INSANE! Membrane UpperLeaflet>loPI:POPI:DPPI:PYPI:ERGO=140.0:15.0:9.0:6.0:30.0 LowerLeaflet>PSPI:POPI:POPS:YOPS:POPE:YOPE:POPC:YOPC:ERGO=6.0:14.0:21.0:9.0:9.0:21.0:12.0:48.0:60.0
49207
    1loPI    C1    1   5.245   6.761  10.239  0.0706  0.2023  0.1727
    1loPI    C2    2   5.066   6.959  10.537 -0.1104 -0.2347  0.3632
    1loPI    C3    3   5.405   6.758  10.605  0.1127  0.0609  0.1536
    1loPI   PO4    4   5.055   6.768  10.043 -0.1009  0.3422 -0.1578
    1loPI   GL1    5   4.778   6.814   9.765  0.0798 -0.2821 -0.1082
    1loPI   GL2    6   4.568   6.645   9.615 -0.0407 -0.1505 -0.0278
    1loPI   C1A    7   5.178   6.790   9.414  0.0996 -0.0168  0.2367
    1loPI   C2A    8   5.250   6.688   8.918 -0.2081  0.1885  0.0953
    1loPI   C3A    9   5.299   6.826   8.474  0.3055  0.2505  0.1069
    1loPI   C4A   10   5.464   7.000   8.272  0.2104  0.1349  0.0760
    1loPI   C5A   11   5.535   7.208   7.899  0.0433  0.0705 -0.1584
    1loPI   C6A   12   5.467   7.209   7.420  0.2633  0.0465 -0.3316
    1loPI   C1B   13   4.423   6.566   9.244  0.2046 -0.1560 -0.0258
    1loPI   C2B   14   4.235   6.547   8.818 -0.1351  0.1917 -0.0864
    1loPI   C3B   15   4.035   6.558   8.428  0.0881  0.0893 -0.0423
    1loPI   C4B   16   3.873   6.660   8.103  0.3423  0.0370 -0.2824
    2loPI    C1   17  18.679  10.541   9.870  0.0976  0.1004 -0.0133
    2loPI    C2   18  19.006  10.768   9.913  0.1780 -0.0094 -0.0394
    2loPI    C3   19  18.935  10.469  10.169 -0.0240  0.1596  0.1056
    2loPI   PO4   20  18.592  10.668   9.675  0.1597 -0.3782  0.0419
    2loPI   GL1   21  18.620  10.828   9.329  0.0029 -0.1133 -0.1541
    2loPI   GL2   22  18.965  10.996   9.347 -0.0261 -0.1325  0.1910
    2loPI   C1A   23  18.339  10.626   9.002  0.1602 -0.0979 -0.0237
    2loPI   C2A   24  18.033  10.624   8.596  0.2452 -0.0088  0.3106
    2loPI   C3A   25  17.965  10.533   8.156  0.3251 -0.0306 -0.0118
    2loPI   C4A   26  17.874  10.882   7.803 -0.0147 -0.0149  0.1364
    2loPI   C5A   27  18.005  11.348   7.860 -0.0742 -0.1892  0.0691
    2loPI   C6A   28  18.398  11.696   7.721 -0.0413 -0.1595  0.0840
    2loPI   C1B   29  19.094  10.628   8.940  0.0728  0.2068 -0.2001
    2loPI   C2B   30  19.377  10.319   8.820 -0.4109  0.0314  0.1138
    2loPI   C3B   31  19.385  10.170   8.389 -0.1275  0.3763 -0.0315
    2loPI   C4B   32  19.014  10.068   7.982  0.3135 -0.1310 -0.2196
    3loPI    C1   33   4.655   4.905  10.319  0.0295 -0.0862 -0.0999
    3loPI    C2   34   4.954   5.161  10.248  0.0499 -0.0626  0.0649
    3loPI    C3   35   5.024   4.822  10.448 -0.0320 -0.0614  0.0961
    3loPI   PO4   36   4.508   4.887   9.964  0.0047 -0.0106  0.2142
    3loPI   GL1   37   4.569   4.972   9.578 -0.0940 -0.2764  0.0177
    3loPI   GL2   38   4.873   5.153   9.695 -0.0976 -0.0475 -0.1911
    3loPI   C1A   39   4.551   5.172   9.179  0.2907 -0.2454  0.0297
    3loPI   C2A   40   4.310   5.268   8.840  0.1324  0.0017 -0.0913
    3loPI   C3A   41   4.139   5.688   8.683  0.3186  0.0041  0.0466
    3loPI   C4A   42   4.218   5.966   8.302 -0.0293 -0.2069  0.1398
    3loPI   C5A   43   4.290   6.339   8.057  0.0773 -0.0863 -0.0234
    3loPI   C6A   44   4.600   6.610   7.827  0.0447 -0.3494  0.2826
    3loPI   C1B   45   4.955   5.361   9.425  0.1439  0.3214 -0.0080
    3loPI   C2B   46   4.997   5.416   9.075  0.2137  0.0162  0.2083
    3loPI   C3B   47   4.837   5.293   8.789  0.0789  0.0552  0.0001
    3loPI   C4B   48   4.687   5.138   8.423 -0.2304 -0.0292  0.1612
    4loPI    C1   49  16.858   4.650  10.167 -0.0469  0.1652 -0.0786
    4loPI    C2   50  17.032   4.844   9.863  0.0054  0.3492  0.0671
    4loPI    C3   51  16.967   5.032  10.210  0.2022  0.0607  0.2655
    4loPI   PO4   52  16.945   4.397  10.052 -0.2252  0.0363  0.1483
    4loPI   GL1   53  17.249   4.430   9.599  0.3351 -0.0652  0.2645
    4loPI   GL2   54  17.595   4.499   9.598 -0.0132  0.0717  0.2510
    4loPI   C1A   55  17.083   4.599   9.304 -0.1126 -0.0312 -0.0631
    4loPI   C2A   56  16.941   4.520   8.837 -0.0133 -0.2123 -0.0715
    4loPI   C3A   57  16.869   4.806   8.479  0.1519  0.0101  0.0622
    4loPI   C4A   58  16.793   5.023   8.014  0.1487 -0.5322  0.0542
    4loPI   C5A   59  16.485   5.378   7.851 -0.0858 -0.0594  0.2366
    4loPI   C6A   60  16.031   5.487   7.909 -0.0108  0.0727  0.0112
    4loPI   C1B   61  17.627   4.702   9.266  0.2471  0.2880  0.3776
    4loPI   C2B   62  17.519   4.668   8.842  0.0262  0.2145 -0.2471
    4loPI   C3B   63  17.396   4.747   8.467  0.1520 -0.1752 -0.0282
    4loPI   C4B   64  17.638   4.993   8.204  0.3533 -0.2649  0.1456
    5loPI    C1   65   6.846  11.595   9.980  0.0485  0.0280 -0.2090
    5loPI    C2   66   7.221  11.466  10.028 -0.0199 -0.0141  0.2556
    5loPI    C3   67   6.923  11.293  10.231 -0.3177 -0.0854 -0.2272
    5loPI   PO4   68   6.808  11.579   9.705  0.1853 -0.0233  0.0565
    5loPI   GL1   69   6.813  11.756   9.370 -0.2641 -0.1277 -0.0996
    5loPI   GL2   70   6.495  11.921   9.282 -0.0712  0.1923 -0.3360
    5loPI   C1A   71   7.105  11.910   9.204  0.4497  0.0428 -0.0270
    5loPI   C2A   72   7.189  12.041   8.928 -0.2743  0.2867  0.3613
    5loPI   C3A   73   7.201  12.101   8.467 -0.0753 -0.0583 -0.1549
    5loPI   C4A   74   7.207  12.281   8.006  0.0433  0.1511 -0.0164
    5loPI   C5A   75   7.053  12.697   7.839  0.0560 -0.1118 -0.2597
    5loPI   C6A   76   7.125  12.932   7.422 -0.0935  0.0197 -0.0678
    5loPI   C1B   77   6.638  11.945   8.857  0.0365 -0.3488  0.2281
    5loPI   C2B   78   6.457  11.755   8.420  0.2003 -0.2378  0.1320
    5loPI   C3B   79   6.274  11.777   7.974 -0.0996  0.0201  0.0835
    5loPI   C4B   80   6.370  11.979   7.547  0.1794  0.0919  0.3983
    6loPI    C1   81   1.186  10.643  10.382 -0.1760  0.2073  0.1005
    6loPI    C2   82   1.407  10.633  10.715  0.2102 -0.2443 -0.1569
    6loPI    C3   83   1.063  10.431  10.698  0.1121 -0.0953  0.0152
    6loPI   PO4   84   1.363  10.694  10.163  0.2500  0.0905  0.1759
    6loPI   GL1   85   1.289  10.816   9.749 -0.1208  0.0553  0.1886
    6loPI   GL2   86   1.256  10.657   9.429 -0.2067 -0.0803 -0.0779
    6loPI   C1A   87   1.134  11.127   9.461 -0.1631  0.1631  0.2558
    6loPI   C2A   88   1.006  11.128   9.027  0.0958 -0.1621  0.1932
    6loPI   C3A   89   1.022  11.181   8.542 -0.1877 -0.2820  0.0050
    6loPI   C4A   90   0.969  11.058   8.101 -0.0028 -0.1842 -0.1449
    6loPI   C5A   91   1.015  10.815   7.735  0.0996  0.0694  0.3763
    6loPI   C6A   92   1.234  10.856   7.418 -0.0022  0.1623  0.0686
    6loPI   C1B   93   1.403  10.812   9.087  0.0423 -0.1018  0.1625
    6loPI   C2B   94   1.391  10.736   8.655  0.1470 -0.1803 -0.0946
    6loPI   C3B   95   1.322  10.693   8.174  0.0943 -0.1821 -0.3062
    6loPI   C4B   96   1.471  10.714   7.812  0.2958 -0.0557 -0.1713
    7loPI    C1   97  14.880  15.834  10.760 -0.0392  0.1213  0.1168
    7loPI    C2   98  14.916  15.693  11.132  0.1082 -0.2197 -0.0221
    7loPI    C3   99  14.937  16.087  11.064 -0.2942 -0.1218  0.3729
    7loPI   PO4  100  14.698  15.896  10.641 -0.0215 -0.1042  0.0297
    7loPI   GL1  101  14.603  16.123  10.280  0.0559 -0.3263  0.2503
    7loPI   GL2  102  14.476  16.420  10.160 -0.2688  0.2732 -0.3845
    7loPI   C1A  103  14.732  16.015   9.859  0.4104  0.3075 -0.1678
    7loPI   C2A  104  14.834  16.135   9.510  0.3246 -0.4681 -0.0650
    7loPI   C3A  105  14.877  16.417   9.184 -0.2958 -0.1002  0.1797
    7loPI   C4A  106  14.713  16.515   8.773 -0.0038 -0.2011 -0.0193
    7loPI   C5A  107  14.762  16.333   8.353  0.1091  0.0727  0.4526
    7loPI   C6A  108  14.744  15.865   8.294 -0.1029  0.0242  0.0971
    7loPI   C1B  109  14.510  16.446   9.793 -0.0653 -0.1206 -0.0914
    7loPI   C2B  110  14.452  16.547   9.439 -0.1424 -0.2915  0.0388
    7loPI   C3B  111  14.124  16.871   9.229  0.2782 -0.0390  0.0704
    7loPI   C4B  112  13.834  17.024   8.978 -0.1211 -0.2902  0.1735
    8loPI    C1  113  11.184   1.516   9.860 -0.0423 -0.0207  0.0204
    8loPI    C2  114  11.123   1.145   9.997  0.1195 -0.0695 -0.0378
    8loPI    C3  115  11.463   1.337  10.085  0.0480  0.0548 -0.0308
    8loPI   PO4  116  10.959   1.651   9.985 -0.1213  0.1150  0.2606
    8loPI   GL1  117  10.648   1.742   9.671  0.1911  0.2044  0.0045
    8loPI   GL2  118  10.456   2.026   9.655 -0.3480 -0.0567  0.2000
    8loPI   C1A  119  10.559   1.524   9.290  0.0507 -0.1873  0.0279
    8loPI   C2A  120  10.644   1.385   8.913 -0.0329 -0.2576 -0.0521
    8loPI   C3A  121  10.899   1.427   8.514 -0.2464 -0.0373  0.0463
    8loPI   C4A  122  11.277   1.477   8.410 -0.1346 -0.0336  0.0978
    8loPI   C5A  123  11.577   1.661   8.161  0.2282  0.0766  0.1385
    8loPI   C6A  124  11.895   1.639   7.898 -0.0449  0.0338  0.0303
    8loPI   C1B  125  10.715   1.981   9.253 -0.1434 -0.0092  0.1106
    8loPI   C2B  126  10.979   1.770   8.882 -0.1239 -0.0094 -0.0318
    8loPI   C3B  127  11.173   1.295   8.902 -0.0905  0.1341  0.3367
    8loPI   C4B  128  11.173   0.907   9.166 -0.0415 -0.0759 -0.0193
    9loPI    C1  129  12.892   8.588  10.462 -0.0344  0.1252  0.0526
    9loPI    C2  130  12.737   8.954  10.508  0.1144  0.2234 -0.2081
    9loPI    C3  131  13.130   8.895  10.555  0.0406  0.0222  0.2046
    9loPI   PO4  132  12.765   8.454  10.232 -0.0043  0.0336 -0.1214
    9loPI   GL1  133  12.939   8.447   9.845  0.0320 -0.2195 -0.1114
    9loPI   GL2  134  12.683   8.667   9.651  0.2014 -0.0563 -0.1475
    9loPI   C1A  135  12.872   8.345   9.289  0.0599 -0.2249 -0.4127
    9loPI   C2A  136  12.813   8.549   8.783  0.0929 -0.0372  0.0287
    9loPI   C3A  137  12.677   8.673   8.405  0.2058  0.0058  0.2942
    9loPI   C4A  138  12.594   9.025   8.089  0.1996  0.0491  0.0016
    9loPI   C5A  139  12.998   9.092   7.890  0.0935 -0.1575  0.1320
    9loPI   C6A  140  13.427   9.151   7.765  0.0970  0.0441  0.1312
    9loPI   C1B  141  12.744   8.810   9.229  0.0623  0.2454  0.1693
    9loPI   C2B  142  12.400   8.819   8.975  0.0154  0.2508 -0.0376
    9loPI   C3B  143  12.253   8.898   8.596 -0.1165  0.2555 -0.2319
    9loPI   C4B  144  12.001   8.713   8.235  0.0738 -0.1535 -0.0606
   10loPI    C1  145   9.118   8.134  10.423 -0.3091 -0.0870  0.1678
   10loPI    C2  146   9.034   8.421  10.156  0.0947 -0.0947  0.0245
   10loPI    C3  147   8.932   8.468  10.540 -0.0602  0.1305 -0.0426
   10loPI   PO4  148   9.341   7.866  10.294  0.1671 -0.0209  0.0274
   10loPI   GL1  149   9.497   7.711   9.944  0.1367  0.1447 -0.2383
   10loPI   GL2  150   9.580   7.414   9.745  0.0313  0.3123 -0.3588
   10loPI   C1A  151   9.328   7.902   9.621 -0.0183 -0.0554 -0.1076
   10loPI   C2A  152   8.946   7.853   9.384  0.0566 -0.0354 -0.0821
   10loPI   C3A  153   8.819   7.633   9.091 -0.2348  0.2751 -0.2028
   10loPI   C4A  154   8.771   7.582   8.663  0.0307 -0.2732  0.5086
   10loPI   C5A  155   8.928   7.414   8.159 -0.0797 -0.1462  0.1917
   10loPI   C6A  156   9.166   7.168   7.893 -0.0090  0.1983  0.1224
   10loPI   C1B  157   9.315   7.461   9.359  0.3989  0.2368  0.2440
   10loPI   C2B  158   9.235   7.471   8.938 -0.2562  0.0654  0.2880
   10loPI   C3B  159   9.318   7.771   8.621 -0.1171  0.1361  0.2583
   10loPI   C4B  160   9.004   7.866   8.313  0.1842  0.1357 -0.1808
   11loPI    C1  161   8.633  10.787  10.055  0.0815  0.0378  0.0486
   11loPI    C2  162   8.423  10.740  10.392  0.0590 -0.0552  0.0218
   11loPI    C3  163   8.648  10.440  10.253  0.0047 -0.0449 -0.0890
   11loPI   PO4  164   8.460  10.878   9.759  0.0698 -0.1594  0.0691
   11loPI   GL1  165   8.553  11.094   9.441  0.1753 -0.1127 -0.0139
   11loPI   GL2  166   8.422  11.126   9.142 -0.0482  0.0456 -0.1221
   11loPI   C1A  167   8.876  11.292   9.388  0.2087 -0.0377  0.0298
   11loPI   C2A  168   9.150  11.574   9.429 -0.3111  0.2121  0.0767
   11loPI   C3A  169   9.447  11.847   9.181 -0.3614 -0.1845  0.1268
   11loPI   C4A  170   9.449  11.881   8.837 -0.0341  0.1067  0.0719
   11loPI   C5A  171   9.428  12.021   8.408 -0.1992 -0.0608  0.0515
   11loPI   C6A  172   9.685  11.927   8.064 -0.3495  0.3285 -0.0112
   11loPI   C1B  173   8.730  11.223   8.940 -0.1858  0.2540 -0.2200
   11loPI   C2B  174   8.709  11.291   8.509  0.2826  0.2417  0.2044
   11loPI   C3B  175   8.851  11.132   8.102 -0.2344  0.2263 -0.0000
   11loPI   C4B  176   8.733  11.126   7.696  0.1289 -0.2195 -0.4210
   12loPI    C1  177  18.679  13.393   9.978  0.1663  0.1242  0.2110
   12loPI    C2  178  18.720  13.071   9.743 -0.0209  0.1604  0.1273
   12loPI    C3  179  18.836  13.056  10.125  0.1697  0.0618  0.0664
   12loPI   PO4  180  18.498  13.582   9.833  0.2647 -0.2869 -0.0047
   12loPI   GL1  181  18.363  13.888   9.555  0.2506 -0.0557 -0.3635
   12loPI   GL2  182  18.362  14.205   9.495 -0.4710 -0.1120 -0.1457
   12loPI   C1A  183  18.081  13.850   9.308  0.1277  0.1671  0.1793
   12loPI   C2A  184  17.732  13.853   8.977 -0.0385 -0.0656  0.1704
   12loPI   C3A  185  17.452  13.702   8.599 -0.1453  0.0601 -0.3415
   12loPI   C4A  186  17.199  13.543   8.355  0.1971 -0.0983 -0.1238
   12loPI   C5A  187  16.993  13.147   8.086  0.0217  0.0024  0.1090
   12loPI   C6A  188  16.700  13.042   7.838  0.0119 -0.1161 -0.0359
   12loPI   C1B  189  18.421  14.065   9.071 -0.0702  0.1854  0.2688
   12loPI   C2B  190  18.157  13.987   8.755 -0.0710  0.0018  0.0513
   12loPI   C3B  191  17.812  14.088   8.554  0.0045  0.1686 -0.0710
   12loPI   C4B  192  17.504  13.989   8.191 -0.0001  0.2732 -0.2612
   13loPI    C1  193   3.362  16.383   9.757  0.2294 -0.1328  0.0248
   13loPI    C2  194   3.369  16.276   9.372  0.0688 -0.1314  0.0209
   13loPI    C3  195   3.029  16.247   9.581  0.1042  0.0631  0.1070
   13loPI   PO4  196   3.452  16.609   9.780 -0.1589 -0.3096  0.1482
   13loPI   GL1  197   3.626  16.778   9.419 -0.1144 -0.2392  0.1230
   13loPI   GL2  198   4.024  16.726   9.356  0.2453 -0.2818 -0.0760
   13loPI   C1A  199   3.631  16.535   9.046  0.0671  0.1043 -0.0939
   13loPI   C2A  200   3.787  16.201   8.900 -0.3014  0.1678  0.0266
   13loPI   C3A  201   3.591  15.980   8.501  0.0436  0.3182  0.1400
   13loPI   C4A  202   3.554  15.990   8.073 -0.2832  0.1788 -0.3326
   13loPI   C5A  203   3.274  15.726   7.851  0.0063 -0.1514 -0.1446
   13loPI   C6A  204   3.017  15.907   7.535 -0.0138 -0.1398  0.2033
   13loPI   C1B  205   4.360  16.908   9.100  0.2613  0.1891  0.3401
   13loPI   C2B  206   4.517  16.788   8.687 -0.0800 -0.1914  0.1032
   13loPI   C3B  207   4.818  16.825   8.416  0.2889 -0.1249 -0.4034
   13loPI   C4B  208   4.834  17.015   7.986 -0.0495 -0.0007 -0.3745
   14loPI    C1  209  15.356   0.884  10.237  0.0799  0.0801 -0.0710
   14loPI    C2  210  15.531   0.531  10.169  0.0366  0.0558 -0.0563
   14loPI    C3  211  15.533   0.687  10.537 -0.1470 -0.0399 -0.0131
   14loPI   PO4  212  15.427   1.075  10.013  0.1328 -0.0934 -0.0786
   14loPI   GL1  213  15.630   1.058   9.638  0.1948  0.0973  0.0931
   14loPI   GL2  214  15.662   0.781   9.600  0.1025  0.0759 -0.0641
   14loPI   C1A  215  15.523   1.248   9.225  0.2192  0.1079 -0.0294
   14loPI   C2A  216  15.470   1.311   8.787 -0.1601 -0.2772 -0.1923
   14loPI   C3A  217  15.480   1.343   8.238 -0.0480  0.1296 -0.0694
   14loPI   C4A  218  15.038   1.441   8.042 -0.0781 -0.1015 -0.2076
   14loPI   C5A  219  14.739   1.234   8.202 -0.2077 -0.0816  0.1004
   14loPI   C6A  220  14.205   1.021   8.212  0.4940  0.0708  0.0948
   14loPI   C1B  221  15.781   0.761   9.218 -0.1747 -0.4578  0.1481
   14loPI   C2B  222  15.598   0.813   8.888 -0.1026 -0.1107 -0.1591
   14loPI   C3B  223  15.326   0.887   8.452 -0.0436  0.0579  0.0483
   14loPI   C4B  224  15.195   0.854   8.135  0.1106  0.0808 -0.2225
   15loPI    C1  225   2.894   6.191  10.336  0.1828  0.0392  0.0938
   15loPI    C2  226   2.521   6.178  10.479  0.0517  0.1010 -0.2336
   15loPI    C3  227   2.801   6.392  10.669 -0.0841  0.0755 -0.0007
   15loPI   PO4  228   2.807   6.106  10.042  0.3582 -0.0175 -0.1251
   15loPI   GL1  229   2.901   6.027   9.641  0.4002 -0.1657  0.2019
   15loPI   GL2  230   2.875   5.675   9.571  0.1874 -0.1325  0.1071
   15loPI   C1A  231   2.972   6.253   9.244  0.3761 -0.1697 -0.1250
   15loPI   C2A  232   2.929   6.125   8.774 -0.0174 -0.0677  0.0790
   15loPI   C3A  233   2.666   5.920   8.473 -0.1267  0.0279  0.0854
   15loPI   C4A  234   2.574   5.854   8.110 -0.0608  0.2904 -0.1324
   15loPI   C5A  235   2.643   5.967   7.665 -0.1280 -0.1465  0.0511
   15loPI   C6A  236   3.025   6.109   7.447  0.0494 -0.0114 -0.0713
   15loPI   C1B  237   2.699   5.807   9.157  0.0552  0.1323  0.2059
   15loPI   C2B  238   2.443   5.729   8.805  0.5097  0.1439 -0.0397
   15loPI   C3B  239   2.150   5.649   8.512  0.2141 -0.3041  0.2826
   15loPI   C4B  240   2.030   5.405   8.107 -0.1000  0.0934 -0.2808
   16loPI    C1  241   5.617  17.111   9.767 -0.2703 -0.0469  0.0309
   16loPI    C2  242   5.602  16.911  10.114 -0.0476 -0.1638 -0.0250
   16loPI    C3  243   5.741  17.286  10.105  0.0268 -0.1906 -0.0002
   16loPI   PO4  244   5.651  16.988   9.598 -0.2020  0.1368  0.0217
   16loPI   GL1  245   5.422  16.962   9.245  0.0600  0.2682 -0.0963
   16loPI   GL2  246   5.395  17.330   9.053 -0.1847  0.1501  0.1274
   16loPI   C1A  247   5.697  16.833   8.935 -0.2364 -0.0435  0.0901
   16loPI   C2A  248   5.641  16.702   8.457  0.0834  0.2039  0.0127
   16loPI   C3A  249   5.374  16.844   8.108  0.2397  0.0497  0.0655
   16loPI   C4A  250   5.279  17.261   7.862  0.0569 -0.0283  0.1089
   16loPI   C5A  251   4.998  17.622   7.731  0.1810 -0.2245 -0.1463
   16loPI   C6A  252   4.596  17.833   7.670  0.2457 -0.1377 -0.1985
   16loPI   C1B  253   5.690  17.262   8.769 -0.2783 -0.2183 -0.1944
   16loPI   C2B  254   5.659  17.338   8.247 -0.2543 -0.2770  0.1892
   16loPI   C3B  255   5.832  17.422   7.796 -0.3050  0.0367 -0.2974
   16loPI   C4B  256   6.141  17.315   7.505  0.1431 -0.1519  0.2084
   17loPI    C1  257   7.776  14.634   9.766 -0.2417  0.1074  0.2107
   17loPI    C2  258   7.977  14.504  10.086  0.0295  0.1082  0.0437
   17loPI    C3  259   7.680  14.284   9.934 -0.0585  0.0776  0.2559
   17loPI   PO4  260   7.673  14.858   9.820 -0.0499 -0.1849 -0.0204
   17loPI   GL1  261   7.484  15.147   9.536 -0.2619  0.1954  0.1588
   17loPI   GL2  262   7.580  14.924   9.346 -0.1748  0.2077  0.3649
   17loPI   C1A  263   7.280  15.261   9.160  0.2327  0.1146 -0.3214
   17loPI   C2A  264   7.130  15.195   8.765  0.3624 -0.0093  0.1593
   17loPI   C3A  265   7.135  15.235   8.329 -0.2679 -0.2460  0.0198
   17loPI   C4A  266   7.269  15.413   8.012 -0.1443  0.0923  0.1776
   17loPI   C5A  267   7.355  15.669   7.566  0.2081  0.4511  0.0021
   17loPI   C6A  268   7.141  15.978   7.236  0.1700 -0.2188 -0.1949
   17loPI   C1B  269   7.611  14.966   8.932 -0.0129  0.1906 -0.0743
   17loPI   C2B  270   7.559  14.960   8.455  0.2965 -0.0311  0.1602
   17loPI   C3B  271   7.656  15.010   8.035 -0.0574  0.1481  0.0716
   17loPI   C4B  272   7.894  14.999   7.687  0.3084  0.1588 -0.1800
   18loPI    C1  273   9.437  17.982   9.947 -0.1662 -0.0532 -0.1677
   18loPI    C2  274   9.252  17.821  10.263  0.0574 -0.0422 -0.0289
   18loPI    C3  275   9.038  17.997   9.974 -0.1492 -0.0551  0.1138
   18loPI   PO4  276   9.632  18.128  10.055  0.1582 -0.3722  0.0689
   18loPI   GL1  277   9.787  18.380   9.746  0.0503 -0.0625 -0.4551
   18loPI   GL2  278   9.983  18.564   9.616  0.0947  0.3051  0.0807
   18loPI   C1A  279   9.683  18.148   9.418  0.0811  0.1177 -0.2043
   18loPI   C2A  280   9.300  18.303   9.110 -0.0377 -0.0636 -0.0673
   18loPI   C3A  281   9.229  18.274   8.700 -0.1356  0.0976 -0.1561
   18loPI   C4A  282   9.229  18.069   8.288 -0.2484  0.1255 -0.0083
   18loPI   C5A  283   8.809  18.069   7.975 -0.0967 -0.0462 -0.0586
   18loPI   C6A  284   8.275  18.162   7.967  0.4646  0.2828  0.3239
   18loPI   C1B  285   9.919  18.590   9.172 -0.0973  0.0005 -0.1989
   18loPI   C2B  286   9.758  18.346   8.858  0.1550  0.0827 -0.1605
   18loPI   C3B  287   9.696  18.302   8.398  0.3589 -0.1142 -0.1678
   18loPI   C4B  288   9.678  18.027   8.191 -0.1429  0.0176  0.1713
   19loPI    C1  289   8.220   9.712  10.466  0.1161 -0.1233  0.1166
   19loPI    C2  290   8.496   9.887  10.697 -0.0391  0.0111  0.2019
   19loPI    C3  291   8.137   9.794  10.848 -0.1460  0.1106  0.0129
   19loPI   PO4  292   8.301   9.458  10.170  0.3395  0.0554  0.2089
   19loPI   GL1  293   8.597   9.257   9.842  0.1939 -0.1896 -0.0111
   19loPI   GL2  294   8.508   9.046   9.964 -0.1130 -0.0651  0.1752
   19loPI   C1A  295   8.400   9.348   9.493 -0.2482 -0.0960 -0.2707
   19loPI   C2A  296   8.504   9.154   9.090 -0.0157  0.1096 -0.1542
   19loPI   C3A  297   8.663   8.944   8.739 -0.0236 -0.1538 -0.2304
   19loPI   C4A  298   8.651   8.869   8.318 -0.0685 -0.2091 -0.1874
   19loPI   C5A  299   8.547   8.640   7.941 -0.1176  0.0128  0.2792
   19loPI   C6A  300   8.591   8.379   7.598  0.0714 -0.1615  0.1634
   19loPI   C1B  301   8.716   8.867   9.513  0.0489 -0.1033 -0.1016
   19loPI   C2B  302   8.707   8.622   9.147 -0.3003  0.0664  0.0000
   19loPI   C3B  303   8.718   8.406   8.901  0.2274 -0.3005  0.0461
   19loPI   C4B  304   8.961   8.014   8.847  0.1066 -0.1642  0.1010
   20loPI    C1  305   5.993   5.555  10.326  0.1539 -0.0686 -0.0395
   20loPI    C2  306   5.659   5.475  10.530  0.0200 -0.0000 -0.2283
   20loPI    C3  307   6.016   5.419  10.701 -0.0879 -0.0238 -0.0067
   20loPI   PO4  308   5.957   5.401  10.056 -0.1573  0.0781  0.1618
   20loPI   GL1  309   6.146   5.091   9.872  0.1098  0.0568  0.2481
   20loPI   GL2  310   6.449   5.308   9.862  0.1462 -0.1049 -0.3049
   20loPI   C1A  311   6.302   4.931   9.428  0.0990  0.0809  0.1234
   20loPI   C2A  312   6.372   4.965   9.002  0.2268  0.0015 -0.2815
   20loPI   C3A  313   6.287   4.925   8.565 -0.1619 -0.1282 -0.0246
   20loPI   C4A  314   6.490   5.092   8.100  0.1390 -0.3553  0.1106
   20loPI   C5A  315   6.357   5.496   7.770 -0.1020  0.3305 -0.0731
   20loPI   C6A  316   6.228   5.892   7.784 -0.1359 -0.0056 -0.1916
   20loPI   C1B  317   6.588   5.347   9.437 -0.2019 -0.4077 -0.0617
   20loPI   C2B  318   6.740   5.248   9.012  0.1812 -0.0882 -0.0035
   20loPI   C3B  319   6.641   5.267   8.559  0.1618 -0.0999  0.0046
   20loPI   C4B  320   6.552   5.606   8.373  0.2148 -0.0013 -0.0496
   21loPI    C1  321   4.340  13.560   9.767 -0.2610  0.0845 -0.2473
   21loPI    C2  322   4.504  13.587  10.131  0.3350 -0.0155 -0.4966
   21loPI    C3  323   4.297  13.895   9.981 -0.0045 -0.0118 -0.0390
   21loPI   PO4  324   4.462  13.476   9.637 -0.1105  0.2131 -0.0489
   21loPI   GL1  325   4.334  13.386   9.252 -0.1886  0.0398 -0.0496
   21loPI   GL2  326   4.153  13.618   9.094 -0.1354 -0.2223 -0.2968
   21loPI   C1A  327   4.552  13.145   8.958  0.2617  0.1623 -0.1277
   21loPI   C2A  328   4.571  13.098   8.608  0.1028 -0.0617  0.0675
   21loPI   C3A  329   4.345  13.025   8.242  0.6759  0.0711  0.0765
   21loPI   C4A  330   4.174  12.716   7.782  0.1633  0.1467 -0.1732
   21loPI   C5A  331   3.803  12.546   7.589  0.1456 -0.0153  0.0723
   21loPI   C6A  332   3.416  12.575   7.448 -0.1774 -0.3659  0.0755
   21loPI   C1B  333   3.884  13.649   8.737 -0.0406 -0.0597  0.0285
   21loPI   C2B  334   3.856  13.756   8.365 -0.1669 -0.0468  0.0194
   21loPI   C3B  335   3.844  13.679   8.038  0.2113 -0.3321 -0.0982
   21loPI   C4B  336   3.543  13.795   7.864 -0.2060 -0.1862  0.0512
   22loPI    C1  337  18.524   0.907  10.256 -0.0030  0.0967 -0.0475
   22loPI    C2  338  18.883   1.060  10.167  0.1514 -0.2508 -0.0379
   22loPI    C3  339  18.742   1.082  10.541  0.2052 -0.1999 -0.0205
   22loPI   PO4  340  18.345   1.025  10.080  0.0205  0.2926  0.2028
   22loPI   GL1  341  18.506   1.391   9.771 -0.1451 -0.1111 -0.2127
   22loPI   GL2  342  18.456   1.638   9.550  0.0963  0.0279 -0.1619
   22loPI   C1A  343  18.498   1.107   9.467 -0.1068 -0.1896  0.1080
   22loPI   C2A  344  18.651   1.060   9.123 -0.1356 -0.1363  0.0254
   22loPI   C3A  345  18.477   0.816   8.817 -0.2495 -0.0904  0.2107
   22loPI   C4A  346  18.465   0.726   8.417 -0.1989  0.0148  0.1053
   22loPI   C5A  347  18.404   0.645   8.038  0.0237  0.1196 -0.0009
   22loPI   C6A  348  18.215   1.086   7.915  0.1896 -0.1739  0.2006
   22loPI   C1B  349  18.398   1.538   9.078  0.0539  0.3381  0.2233
   22loPI   C2B  350  18.467   1.385   8.724 -0.1460  0.1483  0.2048
   22loPI   C3B  351  18.592   1.500   8.370 -0.0926  0.1810 -0.0586
   22loPI   C4B  352  18.581   1.211   8.199 -0.0116 -0.0700 -0.1148
   23loPI    C1  353   5.560  17.878   9.880 -0.0504  0.0348 -0.0808
   23loPI    C2  354   5.761  17.833  10.222 -0.3171  0.0031  0.0747
   23loPI    C3  355   5.696  18.199  10.076  0.1164  0.0010 -0.1398
   23loPI   PO4  356   5.678  17.668   9.786  0.4483 -0.0440  0.2734
   23loPI   GL1  357   5.749  17.429   9.406  0.0845  0.0686 -0.1261
   23loPI   GL2  358   5.886  17.182   9.239 -0.0634 -0.3664  0.2054
   23loPI   C1A  359   5.670  17.737   9.038  0.2932 -0.1158 -0.1465
   23loPI   C2A  360   5.467  17.774   8.617 -0.0194 -0.2078  0.0489
   23loPI   C3A  361   5.348  17.775   8.132 -0.0129  0.0125  0.0354
   23loPI   C4A  362   5.481  17.799   7.746 -0.1908 -0.2703 -0.1253
   23loPI   C5A  363   5.824  17.851   7.483 -0.0780 -0.2285 -0.1707
   23loPI   C6A  364   6.023  17.719   7.238  0.2388  0.2733  0.1244
   23loPI   C1B  365   6.148  17.526   9.185  0.1194  0.1733  0.2537
   23loPI   C2B  366   6.131  17.873   8.909 -0.0620  0.1992 -0.2819
   23loPI   C3B  367   5.809  18.120   8.740  0.1138 -0.0617 -0.3379
   23loPI   C4B  368   5.735  18.513   8.398 -0.0409  0.1686  0.2499
   24loPI    C1  369   0.159  12.343   9.604  0.2266 -0.1335  0.1117
   24loPI    C2  370   0.273  12.726   9.599 -0.0316 -0.0560 -0.0443
   24loPI    C3  371   0.049  12.588   9.900  0.2188 -0.1344  0.1095
   24loPI   PO4  372   0.009  12.311   9.378  0.1095 -0.0371 -0.1501
   24loPI   GL1  373  -0.117  12.364   8.963 -0.1094  0.0262 -0.1530
   24loPI   GL2  374  -0.422  12.165   9.037 -0.1519 -0.1532 -0.0075
   24loPI   C1A  375   0.143  12.371   8.593  0.0214 -0.4812 -0.0064
   24loPI   C2A  376   0.248  12.350   8.157  0.2108  0.1136  0.2429
   24loPI   C3A  377   0.633  12.377   7.880 -0.2571  0.0632 -0.1455
   24loPI   C4A  378   0.880  12.407   7.489  0.0087 -0.1063  0.1122
   24loPI   C5A  379   0.810  12.762   7.301 -0.3228  0.0513  0.2229
   24loPI   C6A  380   0.353  12.890   7.137 -0.3924  0.1166  0.1622
   24loPI   C1B  381  -0.437  12.171   8.599 -0.0414 -0.0313  0.1171
   24loPI   C2B  382  -0.623  12.182   8.255  0.2205  0.3441  0.0682
   24loPI   C3B  383  -0.662  12.235   7.743 -0.0404  0.2714  0.0021
   24loPI   C4B  384  -0.574  12.079   7.387 -0.1756 -0.0537  0.1774
   25loPI    C1  385   5.907   8.426  10.350 -0.2074  0.3738  0.1617
   25loPI    C2  386   6.237   8.485  10.569 -0.0954 -0.1301  0.1418
   25loPI    C3  387   5.892   8.391  10.748 -0.0787 -0.2263  0.1239
   25loPI   PO4  388   6.126   8.162  10.174  0.2510 -0.2175 -0.3096
   25loPI   GL1  389   6.089   7.919   9.900 -0.0808 -0.1195 -0.1031
   25loPI   GL2  390   6.482   7.941   9.859 -0.1902 -0.1671  0.0558
   25loPI   C1A  391   6.146   7.808   9.549 -0.2670  0.2472  0.1075
   25loPI   C2A  392   6.297   7.911   9.184 -0.2067 -0.2386 -0.0610
   25loPI   C3A  393   6.430   7.949   8.818  0.0078 -0.0175  0.1624
   25loPI   C4A  394   6.482   8.008   8.346 -0.2729  0.0008 -0.0628
   25loPI   C5A  395   6.453   8.049   7.837 -0.0637  0.3655  0.0303
   25loPI   C6A  396   6.059   8.346   7.640 -0.1780  0.2572 -0.0818
   25loPI   C1B  397   6.658   8.130   9.487 -0.0441 -0.0765 -0.0007
   25loPI   C2B  398   6.841   8.125   9.060  0.5333  0.2310  0.1139
   25loPI   C3B  399   6.762   8.306   8.697 -0.0162 -0.2048  0.3528
   25loPI   C4B  400   6.861   8.553   8.428 -0.1224  0.1366 -0.0205
   26loPI    C1  401   4.258   0.520  10.020  0.1121 -0.1326 -0.0438
   26loPI    C2  402   4.046   0.642  10.336  0.1105  0.0309 -0.1072
   26loPI    C3  403   4.419   0.508  10.386  0.0247 -0.1761 -0.0063
   26loPI   PO4  404   4.166   0.799   9.804  0.0438 -0.2894 -0.2252
   26loPI   GL1  405   4.126   0.816   9.413 -0.0842  0.2963  0.4256
   26loPI   GL2  406   4.137   0.575   9.165 -0.1600 -0.1622 -0.1377
   26loPI   C1A  407   3.704   0.979   9.166 -0.2458 -0.0634  0.1829
   26loPI   C2A  408   3.501   1.225   8.806  0.0848 -0.0075  0.0185
   26loPI   C3A  409   3.494   1.162   8.347  0.0271  0.0631 -0.5117
   26loPI   C4A  410   3.750   1.045   7.940  0.1430  0.0217 -0.2712
   26loPI   C5A  411   3.907   1.058   7.580 -0.3933  0.2358  0.2124
   26loPI   C6A  412   3.791   0.693   7.296 -0.0305  0.0811 -0.1282
   26loPI   C1B  413   4.242   0.475   8.777 -0.1832  0.1599 -0.0176
   26loPI   C2B  414   4.284   0.576   8.320 -0.0051 -0.0464 -0.3462
   26loPI   C3B  415   4.215   0.725   7.957  0.0244  0.2173 -0.3999
   26loPI   C4B  416   4.379   0.822   7.540  0.1374 -0.4249 -0.2375
   27loPI    C1  417  16.167   3.315  10.042 -0.1650  0.1140  0.2251
   27loPI    C2  418  16.479   3.533   9.918 -0.1617 -0.0573 -0.0786
   27loPI    C3  419  16.528   3.259  10.205 -0.0546 -0.0149 -0.0562
   27loPI   PO4  420  15.982   3.265   9.778 -0.0748  0.0225  0.1074
   27loPI   GL1  421  15.820   3.129   9.419 -0.0356 -0.1230  0.4329
   27loPI   GL2  422  15.604   2.807   9.364  0.3031  0.2514 -0.1967
   27loPI   C1A  423  15.805   3.469   9.067 -0.4124 -0.1393  0.1162
   27loPI   C2A  424  15.988   3.833   8.749  0.2149  0.3835 -0.0840
   27loPI   C3A  425  15.835   4.158   8.441 -0.0601  0.2043 -0.2108
   27loPI   C4A  426  15.898   4.066   7.985  0.2723  0.0020  0.1109
   27loPI   C5A  427  16.220   4.054   7.712  0.1943  0.3082  0.1577
   27loPI   C6A  428  16.551   3.776   7.713 -0.0521  0.0646 -0.2534
   27loPI   C1B  429  15.844   2.834   9.019 -0.2815  0.4132 -0.2349
   27loPI   C2B  430  15.626   2.962   8.678 -0.1087 -0.4125  0.0498
   27loPI   C3B  431  15.637   2.917   8.229  0.3761  0.1004  0.2360
   27loPI   C4B  432  15.532   2.674   7.848 -0.1590 -0.1399  0.1516
   28loPI    C1  433   1.529  18.266  10.083  0.1634  0.0154 -0.1239
   28loPI    C2  434   1.246  18.089  10.303  0.1594  0.2763  0.0860
   28loPI    C3  435   1.561  17.878  10.176 -0.0595  0.0164 -0.0365
   28loPI   PO4  436   1.419  18.476   9.902  0.1237 -0.1337  0.0408
   28loPI   GL1  437   1.236  18.405   9.447 -0.4615 -0.2057 -0.0228
   28loPI   GL2  438   1.070  18.670   9.376  0.0427 -0.0204 -0.2337
   28loPI   C1A  439   1.078  18.057   9.223 -0.1596  0.0486 -0.1293
   28loPI   C2A  440   1.001  18.015   8.795 -0.2854  0.1511 -0.1763
   28loPI   C3A  441   0.893  18.083   8.396  0.1982 -0.3498 -0.0570
   28loPI   C4A  442   0.873  18.342   8.207  0.0550 -0.2579  0.0478
   28loPI   C5A  443   0.797  18.553   7.842  0.0504  0.3315 -0.1226
   28loPI   C6A  444   0.585  18.779   7.403 -0.2336  0.0235  0.0291
   28loPI   C1B  445   1.202  18.596   9.001 -0.1926 -0.1105  0.0009
   28loPI   C2B  446   1.143  18.510   8.614  0.0665 -0.0524  0.0997
   28loPI   C3B  447   1.398  18.502   8.129 -0.1343 -0.1326  0.0259
   28loPI   C4B  448   1.304  18.568   7.710  0.0356  0.1057 -0.2826
   29loPI    C1  449   5.126   7.861  10.533  0.1876  0.1140  0.0656
   29loPI    C2  450   4.993   7.494  10.619 -0.0011  0.1797  0.0586
   29loPI    C3  451   5.227   7.688  10.879  0.2104  0.0025  0.0037
   29loPI   PO4  452   5.195   7.795  10.261 -0.2133 -0.2883  0.2104
   29loPI   GL1  453   5.031   7.628   9.953  0.2254  0.0497  0.1161
   29loPI   GL2  454   5.073   7.835   9.629 -0.1146 -0.2198 -0.0288
   29loPI   C1A  455   5.150   7.264   9.659 -0.2755  0.3029  0.0506
   29loPI   C2A  456   5.319   7.163   9.192 -0.1575 -0.3348  0.1958
   29loPI   C3A  457   5.467   7.295   8.872 -0.1205  0.0013 -0.2298
   29loPI   C4A  458   5.604   7.616   8.474 -0.1148  0.0371  0.2718
   29loPI   C5A  459   5.703   7.693   8.055  0.0799  0.0026  0.0290
   29loPI   C6A  460   5.917   7.887   7.864 -0.2957 -0.0636 -0.1957
   29loPI   C1B  461   5.050   8.042   9.289  0.3164  0.2297 -0.0448
   29loPI   C2B  462   4.930   8.224   8.963  0.0528 -0.0798  0.2973
   29loPI   C3B  463   4.715   8.233   8.552 -0.0774 -0.0649  0.1843
   29loPI   C4B  464   4.371   8.369   8.333 -0.2640 -0.0616 -0.1401
   30loPI    C1  465   3.352  12.837   9.996 -0.0833 -0.2091  0.1976
   30loPI    C2  466   2.977  12.947   9.910 -0.0028 -0.1532 -0.0938
   30loPI    C3  467   3.151  13.075  10.247 -0.1960 -0.0654 -0.0257
   30loPI   PO4  468   3.371  12.619   9.944 -0.0466 -0.2096 -0.0651
   30loPI   GL1  469   3.544  12.486   9.605 -0.1316  0.1050  0.0455
   30loPI   GL2  470   3.938  12.419   9.553 -0.2055 -0.0650 -0.1776
   30loPI   C1A  471   3.709  12.815   9.357 -0.0761  0.0888 -0.1695
   30loPI   C2A  472   3.795  12.757   8.878  0.0537  0.0664  0.3011
   30loPI   C3A  473   3.714  12.837   8.499 -0.0747 -0.2371 -0.0876
   30loPI   C4A  474   3.814  12.868   8.144 -0.0684 -0.2229 -0.0093
   30loPI   C5A  475   4.004  13.179   7.858  0.0261  0.4371 -0.2963
   30loPI   C6A  476   3.804  13.480   7.579  0.3067  0.1800 -0.0069
   30loPI   C1B  477   3.938  12.371   9.153 -0.2546 -0.0898  0.2282
   30loPI   C2B  478   3.995  12.272   8.774  0.2833  0.1755 -0.0552
   30loPI   C3B  479   4.430  12.180   8.563  0.1501  0.2297 -0.3256
   30loPI   C4B  480   4.422  12.333   8.147  0.1081 -0.0848  0.0633
   31loPI    C1  481  18.734   1.560  10.226  0.1822  0.1720 -0.2532
   31loPI    C2  482  18.894   1.852  10.447  0.0088  0.0816 -0.0044
   31loPI    C3  483  18.649   1.584  10.616 -0.0757 -0.0274 -0.2942
   31loPI   PO4  484  18.817   1.677  10.007  0.2648 -0.1465 -0.0329
   31loPI   GL1  485  19.022   1.819   9.616 -0.0036  0.1442 -0.1670
   31loPI   GL2  486  19.466   1.827   9.545 -0.0030  0.2947 -0.0326
   31loPI   C1A  487  18.839   1.800   9.238  0.1947  0.0086 -0.0499
   31loPI   C2A  488  18.738   1.894   8.830  0.0502  0.2322 -0.1351
   31loPI   C3A  489  18.599   1.952   8.498  0.1376  0.2857 -0.3066
   31loPI   C4A  490  18.736   1.899   8.145 -0.2766 -0.2520 -0.1698
   31loPI   C5A  491  18.738   2.075   7.785  0.2331  0.0301 -0.0568
   31loPI   C6A  492  18.730   2.055   7.454 -0.2321 -0.2350  0.0976
   31loPI   C1B  493  19.271   1.442   9.326  0.3223 -0.0615 -0.0316
   31loPI   C2B  494  19.094   1.218   8.945  0.1489 -0.1790 -0.1446
   31loPI   C3B  495  18.929   1.132   8.584 -0.0375  0.0179 -0.3669
   31loPI   C4B  496  18.919   0.900   8.252 -0.1358 -0.1029 -0.1498
   32loPI    C1  497   0.942   8.370  10.108  0.1548  0.0270 -0.1803
   32loPI    C2  498   0.881   8.682  10.351  0.2025 -0.0405 -0.0807
   32loPI    C3  499   0.570   8.490  10.190  0.1751  0.1102 -0.2092
   32loPI   PO4  500   1.108   8.352   9.948  0.2214  0.0756 -0.0727
   32loPI   GL1  501   1.347   8.427   9.525 -0.0500 -0.0302 -0.0425
   32loPI   GL2  502   1.522   8.608   9.514  0.0721 -0.7466 -0.1133
   32loPI   C1A  503   1.296   8.452   8.988 -0.2770  0.2734  0.1482
   32loPI   C2A  504   1.249   8.363   8.583  0.1956 -0.1661 -0.4041
   32loPI   C3A  505   1.561   8.437   8.250 -0.3029  0.3916 -0.2995
   32loPI   C4A  506   1.806   8.345   7.827  0.0556  0.1543 -0.0286
   32loPI   C5A  507   1.678   8.094   7.516  0.0770 -0.1195  0.0152
   32loPI   C6A  508   1.349   7.778   7.638  0.0706 -0.1241 -0.1849
   32loPI   C1B  509   1.551   8.771   9.164 -0.0049 -0.2294 -0.2138
   32loPI   C2B  510   1.609   8.757   8.703  0.0113 -0.2874  0.2321
   32loPI   C3B  511   1.871   8.815   8.293  0.0870 -0.1931 -0.2659
   32loPI   C4B  512   2.135   8.622   8.252  0.1952  0.1563 -0.0886
   33loPI    C1  513   8.447   0.995  10.384 -0.0137 -0.1321  0.0416
   33loPI    C2  514   8.616   0.728  10.629 -0.1209 -0.2583 -0.0208
   33loPI    C3  515   8.220   0.725  10.574 -0.0744 -0.3838 -0.3766
   33loPI   PO4  516   8.692   1.000  10.249 -0.0742 -0.1405 -0.1846
   33loPI   GL1  517   8.817   1.158   9.799 -0.0362 -0.1235 -0.0281
   33loPI   GL2  518   8.805   1.476   9.729  0.2028 -0.1054 -0.0219
   33loPI   C1A  519   8.953   0.960   9.530 -0.0192 -0.2443  0.0881
   33loPI   C2A  520   8.933   0.901   9.114 -0.1938 -0.0865 -0.0997
   33loPI   C3A  521   9.083   0.975   8.713  0.5300 -0.0025  0.0255
   33loPI   C4A  522   9.324   0.803   8.411 -0.3774 -0.0841  0.1362
   33loPI   C5A  523   9.684   0.731   8.111  0.0689 -0.1450 -0.0199
   33loPI   C6A  524   9.918   0.940   7.902  0.0691  0.1988  0.0370
   33loPI   C1B  525   8.828   1.707   9.369 -0.1287  0.0292 -0.1583
   33loPI   C2B  526   8.792   2.065   9.264 -0.0423 -0.0483 -0.1051
   33loPI   C3B  527   8.701   2.282   8.878 -0.1570  0.2099 -0.2244
   33loPI   C4B  528   8.902   2.304   8.506  0.1186  0.0282 -0.1607
   34loPI    C1  529   7.498   6.602  10.275  0.0038 -0.1423  0.2141
   34loPI    C2  530   7.201   6.741  10.504  0.3048  0.3284  0.3341
   34loPI    C3  531   7.416   6.426  10.625 -0.0969  0.0221  0.2742
   34loPI   PO4  532   7.462   6.726  10.039  0.2730 -0.1132 -0.1867
   34loPI   GL1  533   7.530   7.031   9.746  0.3506  0.1623 -0.1987
   34loPI   GL2  534   7.408   7.339   9.655 -0.2922  0.0010  0.1284
   34loPI   C1A  535   7.427   6.906   9.321 -0.3823 -0.3630  0.1044
   34loPI   C2A  536   7.443   6.834   8.907  0.1994  0.2094 -0.0548
   34loPI   C3A  537   7.451   6.963   8.542 -0.0664 -0.0364  0.0227
   34loPI   C4A  538   7.421   6.922   7.996  0.1375  0.3917 -0.1886
   34loPI   C5A  539   7.300   7.042   7.657 -0.1535 -0.0181 -0.0011
   34loPI   C6A  540   7.252   6.736   7.361 -0.3245  0.2810  0.0983
   34loPI   C1B  541   7.583   7.405   9.276 -0.3701  0.0902 -0.0439
   34loPI   C2B  542   7.482   7.348   8.896 -0.1918 -0.1524 -0.2074
   34loPI   C3B  543   7.172   7.429   8.474  0.2566 -0.0497 -0.1946
   34loPI   C4B  544   7.281   7.419   7.977  0.0003 -0.0592  0.1120
   35loPI    C1  545  15.504   8.122  10.500 -0.0234  0.0095 -0.1306
   35loPI    C2  546  15.803   8.048  10.754  0.0320  0.2524 -0.1224
   35loPI    C3  547  15.463   7.839  10.779  0.1806  0.0094 -0.0992
   35loPI   PO4  548  15.613   8.114  10.208  0.0391 -0.0827 -0.1984
   35loPI   GL1  549  15.606   8.231   9.817  0.1721 -0.1044  0.0264
   35loPI   GL2  550  15.668   8.603   9.654 -0.0995 -0.0339  0.2612
   35loPI   C1A  551  15.284   8.184   9.525  0.0265 -0.0842 -0.1274
   35loPI   C2A  552  14.949   7.941   9.188  0.3062 -0.3356  0.0827
   35loPI   C3A  553  15.113   7.818   8.887 -0.2300  0.1462  0.3578
   35loPI   C4A  554  15.238   7.547   8.511  0.2137 -0.0521 -0.2779
   35loPI   C5A  555  15.239   7.358   8.186  0.0482  0.1523 -0.2484
   35loPI   C6A  556  15.109   7.262   7.829 -0.0721 -0.0204  0.1143
   35loPI   C1B  557  15.771   8.458   9.247  0.0620 -0.3240 -0.1127
   35loPI   C2B  558  15.774   8.592   8.891  0.1401 -0.2418  0.2589
   35loPI   C3B  559  15.754   8.784   8.485 -0.0382 -0.1100  0.0713
   35loPI   C4B  560  15.890   8.707   8.112  0.0207  0.1875 -0.0987
   36loPI    C1  561  11.128   5.378   9.939  0.0212  0.1840 -0.1844
   36loPI    C2  562  11.042   5.468  10.320  0.3074  0.2591 -0.1350
   36loPI    C3  563  10.902   5.698  10.023  0.1003  0.2118 -0.0755
   36loPI   PO4  564  11.417   5.367   9.954 -0.1883 -0.0323  0.1906
   36loPI   GL1  565  11.525   5.391   9.567 -0.0594  0.1020  0.0034
   36loPI   GL2  566  11.653   5.651   9.374  0.4150  0.0832  0.2929
   36loPI   C1A  567  11.191   5.093   9.374 -0.2088 -0.1734 -0.0149
   36loPI   C2A  568  11.259   5.037   9.052  0.0329  0.1231  0.0118
   36loPI   C3A  569  11.218   4.879   8.724  0.3922 -0.0715 -0.1876
   36loPI   C4A  570  11.313   4.989   8.311 -0.0193 -0.0876 -0.1284
   36loPI   C5A  571  11.434   5.211   7.983 -0.0867  0.1202  0.1950
   36loPI   C6A  572  11.516   5.305   7.550 -0.0174  0.2125  0.0909
   36loPI   C1B  573  11.634   5.388   8.885  0.1728  0.0256  0.0847
   36loPI   C2B  574  11.379   5.327   8.627  0.2641 -0.3007 -0.1770
   36loPI   C3B  575  11.236   5.579   8.214 -0.1324  0.2006 -0.2076
   36loPI   C4B  576  10.898   5.506   7.818  0.0275  0.3109  0.1099
   37loPI    C1  577   7.969  16.721  10.165  0.0618 -0.0380  0.0123
   37loPI    C2  578   7.614  16.831  10.315  0.0218  0.0738 -0.1609
   37loPI    C3  579   7.951  16.910  10.517 -0.0654 -0.2384  0.1147
   37loPI   PO4  580   7.898  16.763   9.897  0.1128 -0.1499 -0.1305
   37loPI   GL1  581   8.146  16.802   9.552  0.1282  0.1545  0.2330
   37loPI   GL2  582   8.172  16.487   9.426  0.0794 -0.2724  0.3484
   37loPI   C1A  583   7.938  16.844   9.179 -0.0745  0.1488 -0.1279
   37loPI   C2A  584   7.869  16.827   8.691 -0.0047 -0.3413  0.0404
   37loPI   C3A  585   7.820  16.780   8.191  0.1914 -0.0444  0.3534
   37loPI   C4A  586   7.691  16.700   7.820 -0.2122 -0.1244  0.0377
   37loPI   C5A  587   7.351  16.893   7.639  0.3185 -0.1612 -0.0168
   37loPI   C6A  588   6.982  16.762   7.594 -0.1871 -0.0640  0.0333
   37loPI   C1B  589   8.154  16.446   8.956  0.0811 -0.1299 -0.4013
   37loPI   C2B  590   8.102  16.342   8.639 -0.0842  0.1146  0.0736
   37loPI   C3B  591   8.294  16.184   8.289  0.2156  0.0787 -0.0309
   37loPI   C4B  592   8.449  16.247   7.859  0.2364  0.1578 -0.1397
   38loPI    C1  593  11.391  17.705  10.352  0.1635 -0.0242  0.0061
   38loPI    C2  594  11.775  17.632  10.435  0.2415  0.3017 -0.0541
   38loPI    C3  595  11.678  17.930  10.187 -0.0347 -0.0115 -0.3314
   38loPI   PO4  596  11.180  17.440  10.367  0.3092 -0.1348 -0.0782
   38loPI   GL1  597  11.293  17.091  10.108  0.0252 -0.0857 -0.0373
   38loPI   GL2  598  11.416  17.286   9.976 -0.3291 -0.0440  0.0684
   38loPI   C1A  599  11.151  16.903   9.664 -0.2007  0.6524  0.0006
   38loPI   C2A  600  11.286  16.642   9.303  0.2350 -0.0702 -0.1385
   38loPI   C3A  601  11.602  16.498   8.885 -0.0327 -0.0127 -0.0535
   38loPI   C4A  602  11.855  16.645   8.488  0.2858 -0.0440  0.0820
   38loPI   C5A  603  11.635  16.895   8.111 -0.1535 -0.0906 -0.0132
   38loPI   C6A  604  11.603  16.991   7.654 -0.0832 -0.1347  0.0644
   38loPI   C1B  605  11.702  17.525   9.666  0.3540  0.0190  0.2418
   38loPI   C2B  606  11.624  17.600   9.236 -0.1645  0.1357  0.0509
   38loPI   C3B  607  11.515  17.557   8.808  0.0682  0.1178  0.3478
   38loPI   C4B  608  11.295  17.455   8.490  0.2138 -0.0500 -0.1901
   39loPI    C1  609  10.436   2.592  10.597 -0.0876  0.2045 -0.0337
   39loPI    C2  610  10.100   2.389  10.522  0.0273 -0.0079  0.0184
   39loPI    C3  611  10.093   2.702  10.770 -0.1451  0.0335 -0.0370
   39loPI   PO4  612  10.549   2.676  10.310 -0.0863  0.0589 -0.1042
   39loPI   GL1  613  10.730   2.851   9.845 -0.2462 -0.0405  0.1460
   39loPI   GL2  614  10.959   3.049   9.670 -0.0094 -0.1801  0.0184
   39loPI   C1A  615  10.515   2.710   9.469  0.0504  0.0623 -0.1641
   39loPI   C2A  616  10.508   2.924   9.112 -0.0014  0.2153  0.1757
   39loPI   C3A  617  10.717   3.152   8.853  0.0467 -0.4557  0.2908
   39loPI   C4A  618  10.705   3.186   8.484  0.0199  0.1312 -0.1052
   39loPI   C5A  619  10.564   3.311   8.096  0.3605  0.0619 -0.0795
   39loPI   C6A  620  10.608   3.680   7.731 -0.3402 -0.0666  0.2141
   39loPI   C1B  621  10.977   3.030   9.247  0.0286  0.1196  0.1511
   39loPI   C2B  622  11.204   2.967   8.804  0.2550 -0.2614 -0.0127
   39loPI   C3B  623  11.099   2.673   8.488  0.1971  0.0150 -0.0915
   39loPI   C4B  624  11.139   2.457   8.044 -0.0876  0.1789 -0.1796
   40loPI    C1  625  15.651   2.243  10.215  0.0181 -0.1766 -0.0962
   40loPI    C2  626  15.261   2.193  10.140 -0.0273 -0.0520  0.0527
   40loPI    C3  627  15.404   2.129  10.508  0.0691  0.0358  0.0308
   40loPI   PO4  628  15.748   2.424   9.999 -0.0608  0.1945 -0.2382
   40loPI   GL1  629  15.939   2.318   9.666 -0.2852  0.0006  0.0712
   40loPI   GL2  630  16.209   2.455   9.639  0.2185  0.1458 -0.1415
   40loPI   C1A  631  16.099   2.213   9.226 -0.0609  0.2474  0.2970
   40loPI   C2A  632  16.027   2.214   8.779  0.2057  0.0505  0.1124
   40loPI   C3A  633  16.015   2.230   8.462  0.0733 -0.1546  0.1778
   40loPI   C4A  634  16.133   2.086   8.068  0.1548  0.0718  0.2425
   40loPI   C5A  635  16.118   1.673   7.918  0.1612 -0.1034  0.2457
   40loPI   C6A  636  16.010   1.337   8.154 -0.1735 -0.2144  0.0323
   40loPI   C1B  637  16.420   2.694   9.296  0.0206  0.0225 -0.0181
   40loPI   C2B  638  16.380   2.756   8.867  0.0861  0.1023 -0.1636
   40loPI   C3B  639  16.088   2.696   8.538 -0.1973 -0.2053 -0.3082
   40loPI   C4B  640  15.967   2.623   8.113 -0.3577  0.2448 -0.0253
   41loPI    C1  641  12.298   3.996  10.251  0.0659 -0.2529 -0.1139
   41loPI    C2  642  12.342   3.940  10.645  0.1741  0.2933 -0.0412
   41loPI    C3  643  12.004   4.099  10.502  0.1168  0.0539 -0.1760
   41loPI   PO4  644  12.332   3.768  10.138  0.0692  0.2521  0.0263
   41loPI   GL1  645  12.664   3.800   9.861  0.0292  0.0854  0.0481
   41loPI   GL2  646  12.979   3.761   9.879 -0.2436  0.0404  0.0986
   41loPI   C1A  647  12.770   3.751   9.464  0.2475 -0.0017 -0.1207
   41loPI   C2A  648  12.760   3.555   9.067  0.1523 -0.0744 -0.0119
   41loPI   C3A  649  12.755   3.476   8.669 -0.0460 -0.1008 -0.0830
   41loPI   C4A  650  12.795   3.240   8.292 -0.2310  0.1315  0.0299
   41loPI   C5A  651  12.960   3.518   7.921 -0.1443  0.0149  0.1355
   41loPI   C6A  652  13.083   3.572   7.499  0.2192  0.1416  0.2294
   41loPI   C1B  653  13.316   3.706   9.516  0.0215  0.1817  0.0547
   41loPI   C2B  654  13.637   3.523   9.334 -0.0255 -0.1977 -0.2398
   41loPI   C3B  655  14.066   3.572   9.253 -0.0441  0.0819 -0.2064
   41loPI   C4B  656  14.232   3.712   8.938  0.1580 -0.0382  0.1842
   42loPI    C1  657   5.272   8.218   9.971 -0.0598  0.0549  0.0838
   42loPI    C2  658   5.178   8.359  10.333 -0.1919 -0.1407  0.1273
   42loPI    C3  659   4.890   8.221  10.091 -0.1154  0.0730 -0.0898
   42loPI   PO4  660   5.503   8.475   9.983 -0.0061  0.1166 -0.1389
   42loPI   GL1  661   5.743   8.549   9.595 -0.3653 -0.0909 -0.0307
   42loPI   GL2  662   5.978   8.471   9.794 -0.1682  0.0087  0.1799
   42loPI   C1A  663   5.836   8.567   9.143  0.1019  0.5683  0.0265
   42loPI   C2A  664   5.890   8.587   8.706  0.0506 -0.1100  0.3748
   42loPI   C3A  665   5.637   8.545   8.311 -0.1454 -0.1129  0.0388
   42loPI   C4A  666   5.322   8.611   7.992  0.1273  0.2053 -0.3627
   42loPI   C5A  667   4.987   8.759   7.715  0.1677 -0.1209  0.0087
   42loPI   C6A  668   4.828   9.122   7.465  0.0806 -0.0056 -0.2661
   42loPI   C1B  669   6.218   8.322   9.441 -0.1343 -0.0082  0.0364
   42loPI   C2B  670   6.290   8.438   9.043 -0.4911 -0.1005 -0.0153
   42loPI   C3B  671   6.286   8.381   8.601  0.0407 -0.0333 -0.2943
   42loPI   C4B  672   6.410   8.468   8.176  0.1619 -0.1104 -0.0152
   43loPI    C1  673   3.589   9.729  10.407  0.3135  0.2468 -0.4050
   43loPI    C2  674   3.346  10.036  10.326  0.0536  0.1983  0.1446
   43loPI    C3  675   3.714  10.103  10.468 -0.0078  0.2573  0.2771
   43loPI   PO4  676   3.549   9.620  10.144 -0.1393 -0.0829 -0.3039
   43loPI   GL1  677   3.469   9.594   9.740 -0.3809 -0.1925 -0.0487
   43loPI   GL2  678   3.537   9.479   9.520  0.2075 -0.1512  0.0860
   43loPI   C1A  679   3.304   9.977   9.398 -0.0538  0.1113 -0.1462
   43loPI   C2A  680   3.143   9.973   8.935 -0.2502  0.1914  0.0103
   43loPI   C3A  681   2.969   9.957   8.392  0.1998  0.0462 -0.2015
   43loPI   C4A  682   3.039   9.761   8.061  0.1591  0.1760  0.1327
   43loPI   C5A  683   3.285   9.692   7.728  0.1163  0.3427  0.0490
   43loPI   C6A  684   3.721   9.535   7.727  0.2708 -0.3475  0.2760
   43loPI   C1B  685   3.373   9.551   9.095 -0.1452 -0.0896  0.1264
   43loPI   C2B  686   3.321   9.640   8.572  0.1040  0.1341 -0.1380
   43loPI   C3B  687   3.400   9.421   8.112 -0.1057  0.1578  0.1868
   43loPI   C4B  688   3.422   9.089   7.843 -0.2304 -0.1915  0.0742
   44loPI    C1  689  17.879  18.763  10.166 -0.4208 -0.1111  0.3578
   44loPI    C2  690  18.177  18.727  10.430 -0.0674  0.0534 -0.0085
   44loPI    C3  691  18.087  18.422  10.188 -0.3136 -0.0559  0.2166
   44loPI   PO4  692  17.848  18.882   9.961 -0.1297  0.0827 -0.1292
   44loPI   GL1  693  17.649  18.911   9.615  0.1563 -0.0178  0.2390
   44loPI   GL2  694  17.567  18.744   9.477  0.0679  0.1363 -0.1031
   44loPI   C1A  695  17.532  19.055   9.138  0.3257 -0.2000  0.0420
   44loPI   C2A  696  17.583  19.012   8.846 -0.2103 -0.4595 -0.2007
   44loPI   C3A  697  17.918  18.941   8.457 -0.0969 -0.0484  0.0297
   44loPI   C4A  698  17.829  19.189   8.068 -0.1881  0.0465  0.0549
   44loPI   C5A  699  17.599  19.182   7.689  0.2415 -0.2300 -0.1889
   44loPI   C6A  700  17.661  19.182   7.349 -0.1420 -0.0952  0.1136
   44loPI   C1B  701  17.437  18.562   9.035  0.0818 -0.0017  0.0576
   44loPI   C2B  702  17.295  18.673   8.698 -0.2602  0.1048  0.0083
   44loPI   C3B  703  17.097  18.499   8.307  0.1157 -0.0194  0.2368
   44loPI   C4B  704  16.803  18.222   8.024  0.1449 -0.1455  0.3950
   45loPI    C1  705  12.106  13.082   9.987  0.1002 -0.0962 -0.0661
   45loPI    C2  706  12.284  12.885  10.285  0.0539  0.0945  0.0896
   45loPI    C3  707  11.937  13.073  10.349 -0.1793 -0.2262 -0.1966
   45loPI   PO4  708  12.043  12.932   9.816 -0.1773  0.0992  0.0959
   45loPI   GL1  709  11.856  12.610   9.544 -0.0984  0.0356 -0.0499
   45loPI   GL2  710  11.604  12.867   9.499  0.0271 -0.0867  0.0775
   45loPI   C1A  711  11.835  12.685   9.088  0.0603  0.0776 -0.1747
   45loPI   C2A  712  11.857  12.632   8.546 -0.0510  0.1044 -0.2393
   45loPI   C3A  713  11.953  12.547   8.173  0.2008  0.2651 -0.0572
   45loPI   C4A  714  11.970  12.667   7.774 -0.0290 -0.1988 -0.1266
   45loPI   C5A  715  11.959  12.673   7.348 -0.1323  0.2435  0.0630
   45loPI   C6A  716  11.581  12.545   7.045 -0.1747  0.3290 -0.1160
   45loPI   C1B  717  11.410  12.923   9.148  0.1408 -0.0487 -0.2456
   45loPI   C2B  718  11.651  13.150   8.897 -0.1264 -0.1730  0.0320
   45loPI   C3B  719  11.737  13.107   8.505  0.2261 -0.4032  0.4026
   45loPI   C4B  720  11.956  13.059   8.179 -0.1963  0.0133  0.2240
   46loPI    C1  721   6.198  15.212   9.596  0.1131 -0.1778 -0.0761
   46loPI    C2  722   6.189  15.327   9.979  0.0823 -0.3475 -0.0249
   46loPI    C3  723   6.176  15.601   9.687  0.1725 -0.2137  0.0949
   46loPI   PO4  724   6.389  15.063   9.427 -0.1938  0.2585  0.1899
   46loPI   GL1  725   6.374  14.913   8.947 -0.1496 -0.2939  0.0268
   46loPI   GL2  726   6.718  15.079   8.906  0.1407  0.0558  0.2061
   46loPI   C1A  727   6.226  14.803   8.515 -0.1584  0.0653 -0.1016
   46loPI   C2A  728   5.881  14.874   8.354 -0.1515  0.0529  0.2589
   46loPI   C3A  729   5.624  14.608   7.971  0.2861 -0.0767  0.1951
   46loPI   C4A  730   5.382  14.659   7.669 -0.1077  0.1713 -0.0170
   46loPI   C5A  731   5.198  15.007   7.323 -0.1785 -0.1367 -0.3224
   46loPI   C6A  732   4.911  15.337   7.301 -0.0553  0.0212  0.2078
   46loPI   C1B  733   6.684  15.060   8.436  0.1448  0.0720  0.1178
   46loPI   C2B  734   6.700  14.983   8.082 -0.0103  0.2448 -0.0908
   46loPI   C3B  735   6.581  14.876   7.677  0.1793 -0.1362  0.0099
   46loPI   C4B  736   6.340  14.981   7.349  0.1115 -0.2285  0.2318
   47loPI    C1  737  16.453   9.443   9.899 -0.0492 -0.1090 -0.1572
   47loPI    C2  738  16.275   9.563  10.237  0.0540  0.0193 -0.1475
   47loPI    C3  739  16.340   9.174  10.172  0.1797  0.0056  0.0536
   47loPI   PO4  740  16.298   9.600   9.722  0.0826  0.1977  0.2311
   47loPI   GL1  741  16.149   9.648   9.278  0.1059  0.1123 -0.1363
   47loPI   GL2  742  15.904   9.443   9.441  0.2912 -0.1895 -0.1286
   47loPI   C1A  743  16.305   9.354   9.086  0.1552  0.2058 -0.3145
   47loPI   C2A  744  16.560   9.314   8.772  0.0815  0.0107 -0.1295
   47loPI   C3A  745  16.638   9.369   8.371  0.0018 -0.1092 -0.0092
   47loPI   C4A  746  16.627   9.461   7.959 -0.2174  0.1403 -0.1568
   47loPI   C5A  747  16.440   9.373   7.709  0.2224 -0.4041 -0.0717
   47loPI   C6A  748  16.221   9.529   7.427  0.0534 -0.3642  0.2848
   47loPI   C1B  749  15.645   9.495   9.183 -0.4069  0.4742  0.0634
   47loPI   C2B  750  15.867   9.850   8.816 -0.2071  0.0536 -0.1079
   47loPI   C3B  751  15.841   9.813   8.322  0.3165 -0.2129 -0.0511
   47loPI   C4B  752  15.524   9.880   8.053  0.2001  0.0575  0.1777
   48loPI    C1  753   0.646  10.775  10.208  0.1812  0.2136  0.1091
   48loPI    C2  754   0.752  11.020  10.506 -0.1611  0.3351  0.1360
   48loPI    C3  755   0.654  10.640  10.584  0.2388  0.2221  0.1110
   48loPI   PO4  756   0.830  10.770   9.981  0.0583 -0.0445  0.0285
   48loPI   GL1  757   0.577  10.811   9.598  0.0553  0.0193  0.1431
   48loPI   GL2  758   0.649  11.113   9.552 -0.0693  0.1703 -0.0384
   48loPI   C1A  759   0.762  10.646   9.203 -0.2128 -0.2682  0.0542
   48loPI   C2A  760   0.870  10.718   8.755  0.2457  0.1377  0.0557
   48loPI   C3A  761   0.805  10.625   8.296 -0.0216 -0.0627 -0.1186
   48loPI   C4A  762   0.681  10.468   7.948  0.3154  0.2947  0.0717
   48loPI   C5A  763   0.676   9.988   7.773 -0.1594  0.0386 -0.0108
   48loPI   C6A  764   0.671   9.679   7.418  0.2248 -0.2211 -0.4591
   48loPI   C1B  765   0.535  11.170   9.068  0.4337  0.0343  0.1913
   48loPI   C2B  766   0.542  11.085   8.633  0.2073  0.1239  0.1042
   48loPI   C3B  767   0.471  10.965   8.206 -0.1374 -0.3607 -0.0944
   48loPI   C4B  768   0.533  11.027   7.735 -0.1258  0.2807 -0.0578
   49loPI    C1  769   6.496   4.679  10.288  0.0781  0.0982  0.3416
   49loPI    C2  770   6.791   4.424  10.376 -0.0274 -0.0666  0.2227
   49loPI    C3  771   6.422   4.287  10.307 -0.0434  0.0986 -0.0353
   49loPI   PO4  772   6.574   4.827  10.154 -0.2409  0.0367 -0.2151
   49loPI   GL1  773   6.850   5.007   9.911 -0.0324  0.1854 -0.1076
   49loPI   GL2  774   7.048   5.269   9.785 -0.0457 -0.0655 -0.2940
   49loPI   C1A  775   6.880   4.920   9.443 -0.2019  0.2284 -0.0925
   49loPI   C2A  776   6.978   4.853   9.009 -0.0285 -0.1466  0.3732
   49loPI   C3A  777   6.825   4.786   8.631  0.0158 -0.1705  0.3310
   49loPI   C4A  778   6.890   4.895   8.250  0.0021 -0.0571  0.0590
   49loPI   C5A  779   6.790   4.701   7.816 -0.0640 -0.1297  0.0033
   49loPI   C6A  780   6.814   4.734   7.313 -0.1552  0.4531 -0.3130
   49loPI   C1B  781   7.264   5.250   9.383 -0.1867 -0.1248 -0.3060
   49loPI   C2B  782   7.319   5.250   8.940  0.0230 -0.2664  0.3179
   49loPI   C3B  783   7.207   5.156   8.505 -0.1543 -0.0116  0.1568
   49loPI   C4B  784   7.363   5.413   8.145  0.1269  0.2057  0.3200
   50loPI    C1  785   5.111   2.500   9.862 -0.0189 -0.2843 -0.1504
   50loPI    C2  786   5.240   2.261  10.155 -0.2668 -0.0561  0.1517
   50loPI    C3  787   4.915   2.488  10.211 -0.2901  0.0257 -0.2864
   50loPI   PO4  788   5.145   2.353   9.623 -0.0033 -0.2004 -0.0305
   50loPI   GL1  789   5.517   2.465   9.401 -0.1834  0.1016 -0.3399
   50loPI   GL2  790   5.389   2.268   9.165  0.0043  0.2693  0.0170
   50loPI   C1A  791   5.904   2.664   9.378  0.2337 -0.0055  0.1971
   50loPI   C2A  792   6.259   2.663   9.248 -0.0978 -0.2423 -0.1420
   50loPI   C3A  793   6.473   2.287   9.125  0.2770 -0.2198  0.0524
   50loPI   C4A  794   6.420   2.047   8.712 -0.2182  0.2053 -0.0310
   50loPI   C5A  795   6.126   2.041   8.333  0.1159 -0.2825  0.1150
   50loPI   C6A  796   5.757   2.268   8.297 -0.0825  0.0933 -0.0784
   50loPI   C1B  797   5.474   2.005   8.786 -0.0354 -0.4169 -0.0952
   50loPI   C2B  798   5.276   2.067   8.384  0.0087  0.0023  0.1427
   50loPI   C3B  799   5.407   2.192   7.924 -0.0145  0.2358  0.3281
   50loPI   C4B  800   5.587   2.453   7.612 -0.0078  0.3774  0.0431
   51loPI    C1  801   4.180   6.527  10.013  0.1869 -0.0816  0.0487
   51loPI    C2  802   3.788   6.490  10.081  0.1994 -0.2558  0.0299
   51loPI    C3  803   4.039   6.543  10.387  0.1464  0.0096  0.0300
   51loPI   PO4  804   4.210   6.313   9.811 -0.3689  0.0807 -0.2225
   51loPI   GL1  805   4.177   6.190   9.465  0.1098 -0.1311 -0.3236
   51loPI   GL2  806   4.031   5.885   9.456 -0.0259  0.1452  0.3543
   51loPI   C1A  807   4.075   6.059   9.007 -0.1400  0.0287 -0.1270
   51loPI   C2A  808   3.902   6.147   8.688  0.0946  0.1155 -0.2479
   51loPI   C3A  809   3.713   6.130   8.191  0.5252 -0.0357  0.0595
   51loPI   C4A  810   3.920   6.083   7.864 -0.0826  0.4032  0.0097
   51loPI   C5A  811   4.350   6.037   7.657  0.2933  0.3121 -0.2187
   51loPI   C6A  812   4.791   6.131   7.567 -0.0281  0.2723  0.3205
   51loPI   C1B  813   4.359   5.675   9.185  0.0311 -0.1918 -0.1946
   51loPI   C2B  814   4.614   5.740   8.817 -0.0431  0.1475  0.0477
   51loPI   C3B  815   4.750   5.779   8.446  0.0814  0.1884  0.2328
   51loPI   C4B  816   4.768   6.090   8.130 -0.0061  0.1722 -0.0692
   52loPI    C1  817   0.962   9.161  10.289  0.0321 -0.0841 -0.0377
   52loPI    C2  818   1.170   9.380  10.551 -0.0764 -0.0828  0.0484
   52loPI    C3  819   1.234   8.986  10.524  0.0822 -0.0502 -0.0701
   52loPI   PO4  820   1.051   9.362  10.033 -0.0074 -0.0362  0.1201
   52loPI   GL1  821   0.985   9.394   9.625 -0.2243  0.1483  0.1442
   52loPI   GL2  822   0.785   9.484   9.365 -0.1883 -0.1062  0.4849
   52loPI   C1A  823   1.210   9.222   9.269  0.7684  0.2643 -0.0753
   52loPI   C2A  824   1.313   9.234   8.833 -0.0933 -0.1130  0.0831
   52loPI   C3A  825   1.122   9.292   8.350 -0.1115  0.1055 -0.1039
   52loPI   C4A  826   0.847   9.096   8.036 -0.4550  0.2841 -0.2046
   52loPI   C5A  827   0.690   9.091   7.562  0.1230 -0.0790 -0.1762
   52loPI   C6A  828   0.604   8.936   7.156 -0.1039 -0.0637  0.2124
   52loPI   C1B  829   0.877   9.436   8.912  0.0497  0.1025  0.0555
   52loPI   C2B  830   0.671   9.247   8.568 -0.1423 -0.2540  0.2043
   52loPI   C3B  831   0.396   9.191   8.138 -0.0374 -0.0740 -0.0413
   52loPI   C4B  832   0.461   9.478   7.816  0.0906  0.4165  0.0601
   53loPI    C1  833   2.029   4.505  10.135  0.2112 -0.0369 -0.2869
   53loPI    C2  834   2.188   4.139  10.115  0.2728 -0.0266 -0.0194
   53loPI    C3  835   2.147   4.320  10.469  0.1409  0.1813 -0.1390
   53loPI   PO4  836   1.882   4.486   9.816 -0.0835 -0.3433  0.1111
   53loPI   GL1  837   1.834   4.542   9.404  0.0054 -0.0377  0.1883
   53loPI   GL2  838   1.971   4.822   9.178 -0.1908  0.1522  0.0701
   53loPI   C1A  839   1.584   4.387   9.034  0.0661  0.0672  0.1605
   53loPI   C2A  840   1.745   4.415   8.608 -0.0983 -0.1767 -0.1751
   53loPI   C3A  841   1.623   4.207   8.232 -0.1625 -0.0800 -0.4130
   53loPI   C4A  842   1.724   4.127   7.805  0.0737  0.4342  0.0060
   53loPI   C5A  843   2.074   4.139   7.433  0.0520 -0.0357  0.0727
   53loPI   C6A  844   2.160   4.066   7.048 -0.0350  0.0634 -0.0437
   53loPI   C1B  845   2.216   4.568   8.763  0.0144  0.1654 -0.2165
   53loPI   C2B  846   2.042   4.626   8.230 -0.2493  0.0686  0.0289
   53loPI   C3B  847   1.972   4.562   7.784 -0.1130 -0.2368 -0.0492
   53loPI   C4B  848   1.604   4.464   7.448 -0.2338  0.0895  0.0426
   54loPI    C1  849  14.948   7.502   9.892  0.1969 -0.1757  0.0148
   54loPI    C2  850  15.031   7.890   9.841  0.1134 -0.1677 -0.0627
   54loPI    C3  851  14.720   7.780  10.067  0.2231 -0.1933  0.0771
   54loPI   PO4  852  15.024   7.459   9.649 -0.2188  0.1424  0.0403
   54loPI   GL1  853  15.259   7.441   9.288  0.1347 -0.0181  0.1129
   54loPI   GL2  854  14.949   7.444   9.132 -0.1825  0.1558 -0.2021
   54loPI   C1A  855  15.598   7.457   8.978  0.0848 -0.3027  0.0804
   54loPI   C2A  856  15.731   7.404   8.532  0.1510 -0.0506 -0.1199
   54loPI   C3A  857  15.666   7.138   8.196  0.0145  0.1197 -0.4167
   54loPI   C4A  858  15.632   7.295   7.727 -0.1751  0.1739  0.1784
   54loPI   C5A  859  15.741   7.254   7.406 -0.1657 -0.4773 -0.1864
   54loPI   C6A  860  15.993   7.529   7.120 -0.2134  0.2061 -0.1530
   54loPI   C1B  861  14.985   7.202   8.800 -0.0952  0.2685  0.0658
   54loPI   C2B  862  15.155   6.952   8.477 -0.2485 -0.0924  0.1479
   54loPI   C3B  863  15.203   6.841   8.049  0.1194 -0.0650 -0.0578
   54loPI   C4B  864  15.248   6.773   7.693  0.1736  0.0554 -0.1679
   55loPI    C1  865  13.242   9.591  10.123  0.1018 -0.0095  0.0088
   55loPI    C2  866  13.358   9.210  10.167  0.1553  0.0008 -0.0399
   55loPI    C3  867  13.560   9.453   9.923  0.0355  0.0218 -0.1192
   55loPI   PO4  868  12.972   9.642  10.014 -0.1474  0.0097 -0.4086
   55loPI   GL1  869  12.861   9.671   9.566  0.2452  0.1334 -0.0023
   55loPI   GL2  870  12.617   9.815   9.361  0.1584 -0.1300  0.0195
   55loPI   C1A  871  12.960   9.349   9.250  0.0156 -0.1025 -0.1599
   55loPI   C2A  872  12.821   9.192   8.804  0.1957 -0.0144  0.2525
   55loPI   C3A  873  12.962   9.093   8.459 -0.1037  0.1598  0.1162
   55loPI   C4A  874  13.288   8.784   8.129 -0.1934  0.0028 -0.1523
   55loPI   C5A  875  13.375   8.654   7.703 -0.1324  0.2470 -0.2139
   55loPI   C6A  876  13.681   8.605   7.485 -0.1935  0.1855  0.0589
   55loPI   C1B  877  12.613  10.146   9.052  0.0649 -0.0872  0.0638
   55loPI   C2B  878  12.704  10.102   8.624 -0.0241 -0.2343 -0.1993
   55loPI   C3B  879  12.668  10.123   8.249  0.0271 -0.0631  0.2244
   55loPI   C4B  880  12.497  10.169   7.815 -0.1412  0.1720  0.0120
   56loPI    C1  881  18.212  15.867  10.273  0.1277 -0.1087 -0.1557
   56loPI    C2  882  18.581  15.892  10.426  0.0530  0.0367  0.0049
   56loPI    C3  883  18.277  16.079  10.606 -0.1441 -0.2835  0.0123
   56loPI   PO4  884  18.249  15.786   9.983 -0.0944  0.2181  0.2419
   56loPI   GL1  885  18.068  15.898   9.521  0.0436  0.5729  0.2170
   56loPI   GL2  886  18.131  16.074   9.247 -0.1920 -0.0303 -0.2594
   56loPI   C1A  887  17.717  15.712   9.276 -0.0351 -0.0063  0.1251
   56loPI   C2A  888  17.337  15.916   9.111 -0.2490  0.0355  0.2438
   56loPI   C3A  889  16.930  15.827   8.962 -0.3711 -0.1163 -0.0081
   56loPI   C4A  890  16.629  15.817   8.618 -0.0276 -0.0250 -0.1701
   56loPI   C5A  891  16.517  15.879   8.181  0.3252 -0.1220 -0.1271
   56loPI   C6A  892  16.205  15.782   7.903 -0.1887  0.1211  0.0400
   56loPI   C1B  893  17.760  16.122   8.796  0.0728 -0.2540 -0.2335
   56loPI   C2B  894  17.444  15.908   8.589  0.2410  0.0804 -0.1243
   56loPI   C3B  895  17.470  15.653   8.249  0.2411  0.2901 -0.3088
   56loPI   C4B  896  17.394  15.553   7.837  0.0654  0.5681 -0.2724
   57loPI    C1  897  14.673   3.461  10.120  0.1325  0.0360 -0.2197
   57loPI    C2  898  14.859   3.675  10.402 -0.0102 -0.1348  0.0082
   57loPI    C3  899  14.482   3.761  10.302  0.1082  0.0599 -0.2848
   57loPI   PO4  900  14.931   3.374   9.988  0.1581  0.1494 -0.1178
   57loPI   GL1  901  14.964   3.072   9.671  0.2039 -0.4539 -0.0833
   57loPI   GL2  902  15.075   2.879   9.401  0.2503  0.4257  0.0485
   57loPI   C1A  903  14.538   3.219   9.437 -0.0029  0.1208  0.0511
   57loPI   C2A  904  14.305   3.163   8.993 -0.1710 -0.1636 -0.4967
   57loPI   C3A  905  14.222   3.321   8.604 -0.0317 -0.1362 -0.4359
   57loPI   C4A  906  14.081   3.339   8.173 -0.1336 -0.0978  0.0279
   57loPI   C5A  907  13.900   3.030   7.948  0.0416  0.2572 -0.0098
   57loPI   C6A  908  13.936   2.731   7.799  0.1722 -0.1893 -0.0519
   57loPI   C1B  909  15.226   2.823   9.002  0.0782  0.0725  0.4552
   57loPI   C2B  910  14.997   3.114   8.658  0.0604 -0.0968  0.1566
   57loPI   C3B  911  14.702   3.494   8.536 -0.1258 -0.6089 -0.1290
   57loPI   C4B  912  14.783   3.898   8.400 -0.1844 -0.0724  0.1981
   58loPI    C1  913  15.198   6.101  10.132 -0.1972 -0.3179  0.0376
   58loPI    C2  914  15.310   5.822  10.396  0.1982 -0.1028  0.1051
   58loPI    C3  915  15.293   6.207  10.506 -0.5277 -0.1093  0.0675
   58loPI   PO4  916  15.003   6.024  10.054  0.0338  0.0318 -0.2070
   58loPI   GL1  917  14.927   5.760   9.746 -0.0366 -0.0103 -0.2930
   58loPI   GL2  918  14.620   5.704   9.561  0.0584 -0.0968 -0.0345
   58loPI   C1A  919  15.028   5.457   9.609 -0.1720 -0.2233 -0.1925
   58loPI   C2A  920  14.919   5.481   9.199  0.1003  0.2501  0.0566
   58loPI   C3A  921  15.001   5.463   8.767  0.0643  0.1084  0.0780
   58loPI   C4A  922  15.111   5.405   8.431 -0.4481  0.4303 -0.2737
   58loPI   C5A  923  15.643   5.414   8.349 -0.1769 -0.2100 -0.1190
   58loPI   C6A  924  16.144   5.608   8.340  0.0046 -0.0570 -0.5187
   58loPI   C1B  925  14.493   5.661   9.176 -0.5029 -0.0021  0.2309
   58loPI   C2B  926  14.510   5.828   8.808 -0.2416 -0.0917 -0.1063
   58loPI   C3B  927  14.696   5.892   8.418  0.0463 -0.0924 -0.0320
   58loPI   C4B  928  14.706   6.052   8.018 -0.1537  0.2007 -0.1406
   59loPI    C1  929   1.029   4.632   9.761 -0.1351  0.2036 -0.2816
   59loPI    C2  930   1.222   4.581  10.108 -0.3655  0.2368 -0.1464
   59loPI    C3  931   1.422   4.554   9.762 -0.2248 -0.2829 -0.0333
   59loPI   PO4  932   0.777   4.852   9.942 -0.0446 -0.1775  0.0478
   59loPI   GL1  933   0.590   5.139   9.700 -0.4065 -0.0191  0.1793
   59loPI   GL2  934   0.518   5.548   9.618 -0.1026  0.0184  0.0763
   59loPI   C1A  935   0.381   5.101   9.264  0.0367 -0.2608  0.1183
   59loPI   C2A  936   0.281   5.383   8.886  0.0794 -0.1690 -0.0379
   59loPI   C3A  937   0.169   5.338   8.528  0.1418 -0.0138 -0.2179
   59loPI   C4A  938   0.287   4.918   8.327  0.0561  0.1588  0.1491
   59loPI   C5A  939   0.510   4.743   8.028  0.2955 -0.0185  0.0322
   59loPI   C6A  940   0.531   4.596   7.641  0.2552  0.0257 -0.1528
   59loPI   C1B  941   0.233   5.604   9.297  0.3052 -0.3499 -0.1405
   59loPI   C2B  942  -0.089   5.753   9.019  0.0751  0.1642  0.0268
   59loPI   C3B  943  -0.251   5.905   8.689 -0.1165 -0.3092  0.6516
   59loPI   C4B  944  -0.310   6.161   8.249  0.1464  0.2774  0.1940
   60loPI    C1  945   5.830  12.350   9.798 -0.1045 -0.1318  0.1105
   60loPI    C2  946   5.641  12.361  10.151  0.0019 -0.0883  0.1666
   60loPI    C3  947   6.041  12.345  10.138  0.0031  0.0151  0.0472
   60loPI   PO4  948   5.740  12.138   9.632 -0.0123 -0.3734 -0.2785
   60loPI   GL1  949   5.969  11.922   9.357  0.0884  0.2173 -0.1316
   60loPI   GL2  950   5.967  11.654   9.268  0.1092 -0.2063  0.0747
   60loPI   C1A  951   6.086  12.068   8.917 -0.0565  0.3459 -0.0961
   60loPI   C2A  952   6.041  12.079   8.407  0.2370 -0.0901  0.0130
   60loPI   C3A  953   6.165  12.210   8.069 -0.0378 -0.2466 -0.0501
   60loPI   C4A  954   6.111  12.397   7.743 -0.2110  0.3138  0.0983
   60loPI   C5A  955   6.223  12.380   7.297  0.1306  0.0068  0.2108
   60loPI   C6A  956   6.445  12.617   6.994  0.0176  0.2345  0.0997
   60loPI   C1B  957   6.047  11.565   8.834 -0.0601 -0.2143  0.0952
   60loPI   C2B  958   5.940  11.532   8.323  0.0637 -0.0544 -0.0198
   60loPI   C3B  959   5.808  11.547   7.859  0.0597  0.1989  0.2990
   60loPI   C4B  960   5.648  11.668   7.495 -0.2180 -0.0298  0.2180
   61loPI    C1  961  17.047   0.069  10.438  0.3032 -0.0757  0.0958
   61loPI    C2  962  16.895   0.271  10.748  0.0187  0.0930 -0.1483
   61loPI    C3  963  17.291   0.249  10.699  0.0660  0.0818  0.2125
   61loPI   PO4  964  16.953   0.147  10.237  0.0720  0.0001  0.2143
   61loPI   GL1  965  16.800   0.322   9.920 -0.1952  0.2333 -0.1205
   61loPI   GL2  966  17.113   0.525   9.905 -0.0537  0.3043  0.2058
   61loPI   C1A  967  16.814   0.375   9.486 -0.2210  0.6343 -0.0953
   61loPI   C2A  968  16.984   0.121   9.092 -0.0852 -0.0973  0.3294
   61loPI   C3A  969  16.782   0.061   8.622  0.1041 -0.1981  0.0117
   61loPI   C4A  970  16.548  -0.116   8.257  0.0673 -0.0004  0.0331
   61loPI   C5A  971  16.392  -0.271   7.947  0.1647  0.1920  0.0569
   61loPI   C6A  972  16.044  -0.410   7.688 -0.1016  0.1279 -0.1862
   61loPI   C1B  973  17.228   0.610   9.514 -0.0382 -0.1519  0.3169
   61loPI   C2B  974  17.183   0.565   9.010  0.0146 -0.2257  0.0425
   61loPI   C3B  975  17.154   0.366   8.682 -0.5008 -0.2326  0.3627
   61loPI   C4B  976  17.413   0.290   8.377 -0.1687  0.3153  0.3046
   62loPI    C1  977  17.233  14.932  10.385 -0.0056 -0.2287 -0.2786
   62loPI    C2  978  17.470  14.625  10.481  0.1048 -0.0849 -0.0834
   62loPI    C3  979  17.509  14.975  10.671 -0.1273  0.0026 -0.1924
   62loPI   PO4  980  17.206  14.958  10.034 -0.0252 -0.4244  0.0601
   62loPI   GL1  981  17.042  14.619   9.818  0.0302 -0.0371 -0.1054
   62loPI   GL2  982  17.308  14.755   9.601  0.0247  0.1515 -0.0554
   62loPI   C1A  983  16.945  14.463   9.447 -0.1557 -0.0522  0.3749
   62loPI   C2A  984  16.751  14.696   9.161  0.3472  0.0842 -0.0010
   62loPI   C3A  985  17.008  14.650   8.780  0.4083 -0.0799 -0.1213
   62loPI   C4A  986  17.196  14.519   8.255 -0.2088  0.0891  0.0255
   62loPI   C5A  987  17.598  14.479   7.899  0.1239 -0.1161  0.3628
   62loPI   C6A  988  18.103  14.526   7.919  0.0605 -0.0779  0.4112
   62loPI   C1B  989  17.284  14.787   9.152 -0.3036 -0.2848  0.0140
   62loPI   C2B  990  17.401  14.907   8.690  0.1197 -0.1264  0.2533
   62loPI   C3B  991  17.655  15.225   8.609 -0.0087  0.1460 -0.3721
   62loPI   C4B  992  17.701  15.564   8.811  0.1453 -0.0089  0.1432
   63loPI    C1  993  12.207   8.471  10.084 -0.1945 -0.0656 -0.1219
   63loPI    C2  994  11.940   8.766  10.046 -0.1472  0.0021  0.0620
   63loPI    C3  995  12.332   8.848  10.037 -0.1341 -0.0425  0.2017
   63loPI   PO4  996  12.064   8.221   9.861 -0.3134 -0.0378 -0.0026
   63loPI   GL1  997  12.087   8.272   9.498  0.0164 -0.0263  0.0835
   63loPI   GL2  998  12.377   8.374   9.413  0.3263 -0.1393  0.1118
   63loPI   C1A  999  11.910   8.496   9.244 -0.1443 -0.0205  0.1273
   63loPI   C2A 1000  11.803   8.558   8.861 -0.1469  0.2837  0.1764
   63loPI   C3A 1001  11.729   8.221   8.519  0.2752  0.0343 -0.3232
   63loPI   C4A 1002  12.111   7.960   8.409  0.3842 -0.0466  0.1424
   63loPI   C5A 1003  12.511   7.749   8.234  0.2724 -0.4230  0.0602
   63loPI   C6A 1004  12.592   7.713   7.839 -0.1007 -0.1101  0.1899
   63loPI   C1B 1005  12.296   8.331   8.985 -0.1829 -0.0765  0.0704
   63loPI   C2B 1006  12.255   8.413   8.611 -0.0926 -0.1903  0.2464
   63loPI   C3B 1007  12.563   8.161   8.531 -0.0008 -0.1509 -0.1588
   63loPI   C4B 1008  12.857   7.960   8.638 -0.0882  0.1837 -0.1503
   64loPI    C1 1009   3.982   7.008  10.169 -0.3238 -0.1020  0.0900
   64loPI    C2 1010   3.887   7.347  10.358  0.0674 -0.0729  0.2451
   64loPI    C3 1011   4.269   7.265  10.276 -0.0099 -0.5328  0.3149
   64loPI   PO4 1012   3.867   6.995  10.008 -0.0005 -0.2205  0.1741
   64loPI   GL1 1013   3.774   7.056   9.670 -0.2003 -0.3109 -0.0166
   64loPI   GL2 1014   3.868   6.651   9.635 -0.0162 -0.3220 -0.1235
   64loPI   C1A 1015   3.745   7.045   9.199 -0.0886 -0.0865 -0.1554
   64loPI   C2A 1016   3.891   6.983   8.815  0.0782  0.0614  0.0710
   64loPI   C3A 1017   3.885   7.080   8.335  0.1023  0.4161  0.2513
   64loPI   C4A 1018   3.688   7.141   7.848 -0.0108  0.3450 -0.1553
   64loPI   C5A 1019   3.544   7.448   7.538  0.1380  0.1100  0.0553
   64loPI   C6A 1020   3.732   7.540   7.195  0.2868  0.0711 -0.0791
   64loPI   C1B 1021   3.860   6.532   9.238  0.1028  0.0567  0.1007
   64loPI   C2B 1022   3.659   6.556   8.884  0.1427 -0.2103 -0.3240
   64loPI   C3B 1023   3.476   6.510   8.450  0.2518  0.1589  0.0863
   64loPI   C4B 1024   3.361   6.525   8.021 -0.1512  0.0487 -0.2753
   65loPI    C1 1025  14.532   2.447  10.319 -0.1460  0.0506  0.1967
   65loPI    C2 1026  14.253   2.647  10.115 -0.0145  0.1746  0.1367
   65loPI    C3 1027  14.288   2.699  10.510 -0.0993  0.1314  0.1501
   65loPI   PO4 1028  14.709   2.318  10.131 -0.2623  0.1190  0.3239
   65loPI   GL1 1029  14.947   2.104   9.735 -0.1029 -0.0605 -0.2718
   65loPI   GL2 1030  14.942   2.404   9.641 -0.0446 -0.1408 -0.0325
   65loPI   C1A 1031  14.796   1.908   9.460  0.1033  0.0221 -0.2945
   65loPI   C2A 1032  14.865   1.947   8.959  0.0442  0.0288 -0.7474
   65loPI   C3A 1033  14.714   1.935   8.598  0.3662 -0.0352  0.2728
   65loPI   C4A 1034  14.398   2.052   8.294 -0.4134 -0.1826 -0.0035
   65loPI   C5A 1035  14.467   2.394   8.070  0.1115 -0.0372 -0.0658
   65loPI   C6A 1036  14.588   2.711   7.851  0.2217  0.0885 -0.3093
   65loPI   C1B 1037  15.055   2.309   9.240  0.0048 -0.0462 -0.3097
   65loPI   C2B 1038  14.667   2.402   8.961  0.4045 -0.3185 -0.3515
   65loPI   C3B 1039  14.363   2.413   8.744 -0.0937  0.0890 -0.1676
   65loPI   C4B 1040  14.075   2.368   8.512  0.6072  0.0654  0.2599
   66loPI    C1 1041  17.167  18.062  10.501  0.2302  0.0126  0.2243
   66loPI    C2 1042  16.799  17.981  10.637  0.2063 -0.2267  0.0234
   66loPI    C3 1043  17.105  18.016  10.893  0.0523 -0.0668  0.1877
   66loPI   PO4 1044  17.108  18.352  10.316 -0.2652  0.0041 -0.0325
   66loPI   GL1 1045  16.961  18.329   9.892 -0.0374 -0.0659 -0.1948
   66loPI   GL2 1046  16.758  18.572   9.985  0.3531 -0.1180  0.1721
   66loPI   C1A 1047  16.779  18.026   9.611  0.3328  0.0624  0.2506
   66loPI   C2A 1048  16.481  17.700   9.288 -0.0556 -0.1785 -0.1999
   66loPI   C3A 1049  16.575  17.418   8.983  0.2776 -0.1260 -0.1845
   66loPI   C4A 1050  16.599  17.429   8.495  0.1729 -0.2702  0.0543
   66loPI   C5A 1051  16.200  17.368   8.355 -0.1242  0.0545 -0.1163
   66loPI   C6A 1052  15.882  16.945   8.220  0.2104  0.2695 -0.2152
   66loPI   C1B 1053  16.841  18.563   9.475 -0.0595  0.1851  0.2530
   66loPI   C2B 1054  16.687  18.477   9.083 -0.1804 -0.1518 -0.0588
   66loPI   C3B 1055  16.717  18.341   8.621  0.1007  0.0038  0.4674
   66loPI   C4B 1056  16.578  17.878   8.302 -0.1013 -0.2313 -0.0473
   67loPI    C1 1057  16.877   9.345  10.288  0.2318 -0.0036 -0.1331
   67loPI    C2 1058  17.106   9.023  10.226  0.0811 -0.0400 -0.5253
   67loPI    C3 1059  16.745   8.982  10.393  0.2358 -0.0185 -0.1794
   67loPI   PO4 1060  16.902   9.493  10.043  0.2394  0.3461  0.0585
   67loPI   GL1 1061  16.813   9.587   9.581  0.1675  0.4460  0.0185
   67loPI   GL2 1062  17.125   9.680   9.441 -0.3371  0.2007  0.4420
   67loPI   C1A 1063  16.735   9.461   9.270 -0.1773 -0.0273  0.1998
   67loPI   C2A 1064  17.051   9.362   8.932 -0.2374  0.3149 -0.1349
   67loPI   C3A 1065  17.110   9.380   8.511  0.2348 -0.1197 -0.0986
   67loPI   C4A 1066  17.109   9.572   8.147  0.3252 -0.0937 -0.1366
   67loPI   C5A 1067  17.452   9.622   7.801 -0.0494  0.3981  0.2179
   67loPI   C6A 1068  17.505   9.832   7.497 -0.1055 -0.0939 -0.1593
   67loPI   C1B 1069  17.161   9.870   8.979 -0.2660 -0.0247  0.0163
   67loPI   C2B 1070  17.354   9.873   8.636  0.0355  0.0850  0.1166
   67loPI   C3B 1071  17.571   9.833   8.236  0.1809  0.1347  0.1274
   67loPI   C4B 1072  17.907   9.763   7.987 -0.2476 -0.0907  0.1697
   68loPI    C1 1073  17.962   2.358  10.146 -0.0761 -0.1537  0.1353
   68loPI    C2 1074  17.983   2.316  10.543  0.0470 -0.0987  0.1353
   68loPI    C3 1075  17.826   2.024  10.319  0.0803 -0.1775  0.2142
   68loPI   PO4 1076  18.193   2.400  10.043 -0.0139  0.0623 -0.1064
   68loPI   GL1 1077  18.167   2.263   9.584  0.1452  0.2564 -0.1596
   68loPI   GL2 1078  18.575   2.130   9.743 -0.0308  0.3728 -0.0065
   68loPI   C1A 1079  18.263   2.538   9.133 -0.3667  0.0297  0.4250
   68loPI   C2A 1080  18.136   2.658   8.698 -0.0314 -0.1571 -0.2188
   68loPI   C3A 1081  17.998   2.584   8.344  0.1406 -0.2358  0.3503
   68loPI   C4A 1082  17.657   2.453   8.064  0.0370 -0.0559  0.1098
   68loPI   C5A 1083  17.685   2.281   7.693 -0.2486 -0.0506  0.2398
   68loPI   C6A 1084  17.563   1.919   7.592 -0.0334 -0.1008 -0.1957
   68loPI   C1B 1085  18.356   2.036   9.265 -0.2961  0.0962  0.2481
   68loPI   C2B 1086  18.323   2.139   8.868 -0.3365 -0.0752  0.1978
   68loPI   C3B 1087  18.203   2.199   8.507  0.0039  0.2797 -0.1356
   68loPI   C4B 1088  18.294   2.041   8.072  0.0281 -0.0586  0.0768
   69loPI    C1 1089   2.139   6.519  10.251 -0.0091 -0.0330  0.0951
   69loPI    C2 1090   2.031   6.134  10.253 -0.2257  0.0210 -0.3154
   69loPI    C3 1091   1.768   6.416  10.360 -0.2052  0.0856 -0.4336
   69loPI   PO4 1092   2.131   6.579   9.963  0.0684 -0.1034  0.2265
   69loPI   GL1 1093   1.933   6.845   9.612  0.0020 -0.1442  0.0047
   69loPI   GL2 1094   1.793   7.110   9.601 -0.0652  0.1564  0.2009
   69loPI   C1A 1095   1.611   6.954   9.160  0.1061 -0.1790 -0.1841
   69loPI   C2A 1096   1.552   6.997   8.733 -0.1695 -0.0369 -0.2304
   69loPI   C3A 1097   1.352   6.869   8.351 -0.0138 -0.2980 -0.0688
   69loPI   C4A 1098   1.190   6.913   7.925  0.2317  0.0539  0.0365
   69loPI   C5A 1099   1.119   6.846   7.504  0.0631 -0.0645 -0.1516
   69loPI   C6A 1100   0.892   6.564   7.216  0.0254 -0.0936 -0.3378
   69loPI   C1B 1101   2.252   7.150   9.475  0.2503 -0.0084 -0.1431
   69loPI   C2B 1102   2.468   7.177   9.119 -0.1368  0.1824  0.0172
   69loPI   C3B 1103   2.501   7.242   8.723 -0.2253 -0.2598 -0.2041
   69loPI   C4B 1104   2.722   7.339   8.339  0.1839  0.0036 -0.0929
   70loPI    C1 1105  11.279   8.888   9.750 -0.0851 -0.1577 -0.0116
   70loPI    C2 1106  11.095   9.093  10.039  0.0646 -0.1392  0.0712
   70loPI    C3 1107  10.881   8.870   9.786 -0.0600 -0.2230  0.2489
   70loPI   PO4 1108  11.459   9.026   9.701  0.0334 -0.0078 -0.1577
   70loPI   GL1 1109  11.566   9.058   9.279 -0.0285  0.0876 -0.1463
   70loPI   GL2 1110  11.471   8.727   9.157 -0.0732  0.0848 -0.1539
   70loPI   C1A 1111  11.990   9.062   9.062 -0.1387 -0.0967  0.2015
   70loPI   C2A 1112  12.161   9.398   8.775 -0.0119 -0.1393  0.0403
   70loPI   C3A 1113  12.184   9.357   8.316 -0.3126  0.2138  0.0716
   70loPI   C4A 1114  12.158   9.149   7.875  0.0185  0.2851 -0.2866
   70loPI   C5A 1115  12.239   8.736   7.822 -0.1055 -0.0991 -0.0127
   70loPI   C6A 1116  12.267   8.332   8.091 -0.1652  0.0954 -0.0972
   70loPI   C1B 1117  11.283   8.959   8.838  0.0256 -0.0873 -0.2131
   70loPI   C2B 1118  10.896   9.197   8.555 -0.1481 -0.0626  0.2607
   70loPI   C3B 1119  10.689   9.202   8.177 -0.1508  0.0571  0.1387
   70loPI   C4B 1120  10.289   9.115   7.964  0.0731  0.0892  0.1599
   71loPI    C1 1121   6.312   1.594  10.023 -0.2120 -0.0599 -0.0810
   71loPI    C2 1122   6.110   1.584  10.368  0.0927 -0.0533  0.1013
   71loPI    C3 1123   6.426   1.345  10.314  0.2094  0.1363 -0.0708
   71loPI   PO4 1124   6.109   1.528   9.824  0.1786  0.1325  0.1013
   71loPI   GL1 1125   6.069   1.250   9.567 -0.0232 -0.0943 -0.3272
   71loPI   GL2 1126   5.895   1.268   9.292 -0.3064 -0.0070 -0.2721
   71loPI   C1A 1127   6.514   1.193   9.294  0.2370  0.2809  0.1530
   71loPI   C2A 1128   6.920   1.295   9.031 -0.2878 -0.0057 -0.2293
   71loPI   C3A 1129   7.023   1.257   8.737 -0.0343  0.2271  0.1056
   71loPI   C4A 1130   6.785   1.083   8.367 -0.0392  0.1257  0.2624
   71loPI   C5A 1131   6.845   1.053   7.922 -0.2152 -0.0145  0.2121
   71loPI   C6A 1132   6.851   1.329   7.506 -0.2997  0.2304  0.0446
   71loPI   C1B 1133   6.044   1.313   8.921  0.0369 -0.3126 -0.2180
   71loPI   C2B 1134   5.984   1.063   8.573 -0.0989  0.0585  0.0949
   71loPI   C3B 1135   5.877   0.970   8.140 -0.1134  0.0420 -0.3440
   71loPI   C4B 1136   5.822   1.268   7.776 -0.1731  0.1417 -0.1419
   72loPI    C1 1137   1.987   3.572  10.158  0.1408  0.1215 -0.1025
   72loPI    C2 1138   1.881   3.844  10.431  0.0948  0.1385 -0.1372
   72loPI    C3 1139   2.251   3.693  10.433 -0.0143 -0.1383  0.1676
   72loPI   PO4 1140   1.947   3.708   9.927  0.1222 -0.2759  0.1143
   72loPI   GL1 1141   2.085   3.766   9.478 -0.0963 -0.2166  0.1598
   72loPI   GL2 1142   2.134   4.070   9.645  0.5185  0.0959 -0.0314
   72loPI   C1A 1143   1.916   3.919   8.991  0.2407 -0.2375  0.0646
   72loPI   C2A 1144   1.554   3.960   8.725  0.4030 -0.0167  0.3393
   72loPI   C3A 1145   1.470   3.751   8.279 -0.2795 -0.2921 -0.0381
   72loPI   C4A 1146   1.437   3.658   7.754  0.2996 -0.2169  0.1032
   72loPI   C5A 1147   1.316   3.496   7.390 -0.2119 -0.0885  0.1724
   72loPI   C6A 1148   1.072   3.505   7.038  0.0971  0.3462 -0.0078
   72loPI   C1B 1149   2.433   4.033   9.259  0.0147 -0.0753 -0.1823
   72loPI   C2B 1150   2.541   4.248   8.962  0.1504  0.0503  0.1433
   72loPI   C3B 1151   2.329   4.218   8.445  0.2119  0.0178  0.1941
   72loPI   C4B 1152   2.217   4.086   7.965 -0.3290  0.0922  0.0659
   73loPI    C1 1153   0.840   9.866   9.910 -0.1541  0.0774 -0.1279
   73loPI    C2 1154   0.525   9.895   9.666 -0.1259  0.0124 -0.1724
   73loPI    C3 1155   0.474   9.915  10.062 -0.1777  0.0686 -0.1816
   73loPI   PO4 1156   1.128   9.898   9.752  0.1209 -0.3737  0.0409
   73loPI   GL1 1157   1.094  10.151   9.403  0.0749 -0.1607 -0.4104
   73loPI   GL2 1158   0.750  10.157   9.279  0.0542 -0.0288  0.0514
   73loPI   C1A 1159   1.137  10.366   8.988 -0.1240  0.1351  0.0995
   73loPI   C2A 1160   1.101  10.301   8.547 -0.4189  0.0016 -0.3706
   73loPI   C3A 1161   1.062  10.170   8.086  0.1446 -0.0528 -0.0641
   73loPI   C4A 1162   1.191  10.323   7.778 -0.0183  0.1049 -0.0297
   73loPI   C5A 1163   1.427  10.373   7.440  0.1253  0.0774  0.2247
   73loPI   C6A 1164   1.317  10.206   7.004 -0.1248  0.0950  0.1149
   73loPI   C1B 1165   0.929   9.891   8.950  0.2906  0.0357  0.0661
   73loPI   C2B 1166   0.873   9.781   8.559  0.0418  0.0981 -0.0090
   73loPI   C3B 1167   0.839   9.658   8.205 -0.1469 -0.0490  0.1223
   73loPI   C4B 1168   0.958   9.538   7.775 -0.2914 -0.1489 -0.0276
   74loPI    C1 1169  11.206  14.929  10.485  0.2763 -0.0073 -0.1063
   74loPI    C2 1170  11.327  14.682  10.775 -0.0994  0.1472  0.1904
   74loPI    C3 1171  10.937  14.718  10.692 -0.0045  0.1847 -0.2684
   74loPI   PO4 1172  11.432  14.925  10.275  0.2849 -0.1204  0.1283
   74loPI   GL1 1173  11.406  14.723   9.816  0.1170 -0.2503  0.0718
   74loPI   GL2 1174  11.114  14.788   9.793 -0.0750  0.1518 -0.2108
   74loPI   C1A 1175  11.269  14.631   9.331  0.0454 -0.1906 -0.0829
   74loPI   C2A 1176  11.202  14.549   8.937  0.0999 -0.1798 -0.1283
   74loPI   C3A 1177  11.094  14.499   8.510 -0.0019  0.0063 -0.0891
   74loPI   C4A 1178  10.973  14.440   8.116  0.2565  0.1781 -0.2894
   74loPI   C5A 1179  10.789  14.260   7.692 -0.3409 -0.2828 -0.5000
   74loPI   C6A 1180  10.402  14.292   7.541 -0.0780  0.1187 -0.0870
   74loPI   C1B 1181  11.106  15.151   9.542 -0.0394 -0.0888  0.1889
   74loPI   C2B 1182  11.305  15.192   9.181 -0.2699  0.0250  0.1307
   74loPI   C3B 1183  11.453  15.201   8.806 -0.1392 -0.1200  0.1056
   74loPI   C4B 1184  11.540  15.132   8.334  0.4860 -0.2166  0.1607
   75loPI    C1 1185   4.908  11.746   9.815  0.2630  0.1051  0.2664
   75loPI    C2 1186   4.667  12.065   9.819  0.1219  0.0122 -0.2149
   75loPI    C3 1187   4.867  11.962  10.149 -0.1666  0.3399  0.0707
   75loPI   PO4 1188   4.928  11.510   9.599  0.0679 -0.3667  0.3399
   75loPI   GL1 1189   5.223  11.339   9.207  0.1231  0.2040  0.1666
   75loPI   GL2 1190   5.191  11.143   8.974  0.2836 -0.0175 -0.2397
   75loPI   C1A 1191   5.107  11.603   8.811 -0.0909 -0.3944 -0.0905
   75loPI   C2A 1192   5.080  11.595   8.366 -0.1446  0.1928 -0.0817
   75loPI   C3A 1193   4.983  11.266   8.092 -0.4074 -0.0153 -0.2711
   75loPI   C4A 1194   5.058  11.100   7.572  0.2233 -0.0514 -0.1152
   75loPI   C5A 1195   4.980  10.772   7.327  0.1989  0.0482 -0.0718
   75loPI   C6A 1196   4.794  10.479   7.080 -0.0479 -0.1441 -0.0217
   75loPI   C1B 1197   5.192  11.073   8.510  0.0443  0.1689 -0.1041
   75loPI   C2B 1198   5.256  10.734   8.293  0.1557  0.0114 -0.0793
   75loPI   C3B 1199   5.356  10.755   7.950 -0.1069  0.1976 -0.0223
   75loPI   C4B 1200   5.413  10.611   7.592 -0.0377  0.0358 -0.1150
   76loPI    C1 1201   5.807  14.594   9.378  0.0012  0.2072  0.1110
   76loPI    C2 1202   5.464  14.695   9.557 -0.1945 -0.2431  0.0055
   76loPI    C3 1203   5.458  14.470   9.226  0.1949 -0.0218 -0.1582
   76loPI   PO4 1204   5.966  14.842   9.365 -0.3272  0.1815  0.1214
   76loPI   GL1 1205   6.028  15.259   9.154 -0.1949  0.0292 -0.0779
   76loPI   GL2 1206   6.335  15.511   8.960  0.2370 -0.3208 -0.2838
   76loPI   C1A 1207   5.894  15.195   8.759 -0.2822  0.2929 -0.0736
   76loPI   C2A 1208   5.843  15.400   8.267  0.3192  0.0624 -0.1670
   76loPI   C3A 1209   5.840  15.502   7.893 -0.0630 -0.4024  0.2774
   76loPI   C4A 1210   6.198  15.429   7.625  0.0038 -0.0572  0.0799
   76loPI   C5A 1211   6.409  15.482   7.228 -0.4394 -0.1431  0.2062
   76loPI   C6A 1212   6.476  15.322   6.860 -0.1682  0.1818 -0.1057
   76loPI   C1B 1213   6.360  15.475   8.543  0.0207  0.0397  0.0415
   76loPI   C2B 1214   6.315  15.234   8.144 -0.0263  0.0049  0.1979
   76loPI   C3B 1215   6.120  14.930   7.899  0.0787 -0.2575 -0.0429
   76loPI   C4B 1216   5.957  14.622   7.550  0.1675 -0.2087 -0.0735
   77loPI    C1 1217   0.777  11.539   9.899 -0.2321  0.0546  0.0978
   77loPI    C2 1218   0.602  11.217  10.058  0.0388 -0.1754 -0.0597
   77loPI    C3 1219   1.001  11.250  10.062  0.0312 -0.0144 -0.3665
   77loPI   PO4 1220   0.735  11.557   9.651  0.0858  0.2170 -0.2555
   77loPI   GL1 1221   0.862  11.563   9.268  0.0890  0.1195  0.1828
   77loPI   GL2 1222   0.747  11.932   9.321  0.2515 -0.0640  0.0757
   77loPI   C1A 1223   0.781  11.545   8.769  0.0107  0.2512 -0.0493
   77loPI   C2A 1224   0.671  11.475   8.313  0.0817 -0.3445 -0.0686
   77loPI   C3A 1225   0.408  11.445   8.047  0.2466  0.1700 -0.2005
   77loPI   C4A 1226   0.136  11.674   7.843  0.1255 -0.1470  0.1659
   77loPI   C5A 1227   0.270  12.083   7.672  0.0157 -0.2066 -0.1780
   77loPI   C6A 1228   0.389  12.466   7.448  0.1720  0.1335 -0.0148
   77loPI   C1B 1229   0.830  12.020   8.878 -0.0190 -0.0315 -0.2819
   77loPI   C2B 1230   0.881  12.152   8.384 -0.0902 -0.1587  0.0272
   77loPI   C3B 1231   1.015  11.968   8.011 -0.2267  0.0189 -0.0572
   77loPI   C4B 1232   1.119  11.858   7.617 -0.0123  0.2182 -0.1986
   78loPI    C1 1233   2.785   0.562   9.727  0.2376 -0.1731 -0.3625
   78loPI    C2 1234   2.487   0.383   9.528  0.0825 -0.3106 -0.0138
   78loPI    C3 1235   2.618   0.229   9.873 -0.0612  0.2479  0.3035
   78loPI   PO4 1236   2.728   0.866   9.652  0.0208 -0.2274 -0.3224
   78loPI   GL1 1237   2.534   0.865   9.247 -0.1498 -0.0797 -0.0537
   78loPI   GL2 1238   2.368   1.081   9.034  0.0114  0.0974  0.2700
   78loPI   C1A 1239   2.777   0.706   8.839  0.0106 -0.1441  0.0228
   78loPI   C2A 1240   2.629   0.756   8.500  0.1375 -0.0361  0.1692
   78loPI   C3A 1241   2.521   0.571   8.059  0.1318  0.3289  0.0297
   78loPI   C4A 1242   2.447   0.767   7.683  0.0010 -0.0361  0.1688
   78loPI   C5A 1243   2.490   1.088   7.361 -0.0074  0.3637 -0.0901
   78loPI   C6A 1244   2.589   1.134   6.945  0.4605 -0.1754  0.0263
   78loPI   C1B 1245   2.290   1.086   8.624  0.0148 -0.1529 -0.1293
   78loPI   C2B 1246   2.383   1.070   8.144  0.2232  0.3796  0.2743
   78loPI   C3B 1247   2.638   1.191   8.008 -0.1510  0.0033  0.3221
   78loPI   C4B 1248   2.748   1.473   7.677  0.1552  0.0393 -0.1422
   79loPI    C1 1249   6.336   3.182  10.379  0.0571  0.1206 -0.1167
   79loPI    C2 1250   6.483   3.527  10.517 -0.0847  0.1120  0.0585
   79loPI    C3 1251   6.371   3.241  10.773 -0.1237  0.0012 -0.0817
   79loPI   PO4 1252   6.411   3.260  10.123 -0.1051  0.1286  0.1320
   79loPI   GL1 1253   6.288   3.409   9.732 -0.0250 -0.1599 -0.2124
   79loPI   GL2 1254   6.112   3.015   9.659  0.0574 -0.0333  0.2341
   79loPI   C1A 1255   6.481   3.426   9.295  0.7332 -0.1178  0.0220
   79loPI   C2A 1256   6.407   3.378   8.840  0.1116 -0.2103  0.2150
   79loPI   C3A 1257   6.166   3.345   8.517  0.2788  0.1322  0.2043
   79loPI   C4A 1258   6.268   3.534   8.183 -0.0111 -0.3154  0.2545
   79loPI   C5A 1259   6.610   3.833   8.084 -0.0246 -0.0524  0.0809
   79loPI   C6A 1260   6.826   4.154   7.812 -0.1103 -0.2121 -0.0129
   79loPI   C1B 1261   6.056   3.105   9.200  0.2265 -0.1089  0.0442
   79loPI   C2B 1262   6.007   2.971   8.780 -0.3410  0.3166  0.1494
   79loPI   C3B 1263   5.837   2.766   8.291  0.0585 -0.1106  0.3741
   79loPI   C4B 1264   6.034   2.690   7.931  0.1747 -0.2901 -0.1632
   80loPI    C1 1265   9.441   0.786  10.183  0.0256 -0.1807  0.0069
   80loPI    C2 1266   9.538   0.710  10.563 -0.0212 -0.1652  0.0220
   80loPI    C3 1267   9.154   0.725  10.454 -0.0068 -0.2287 -0.0380
   80loPI   PO4 1268   9.707   0.961  10.178 -0.0026 -0.0234  0.0814
   80loPI   GL1 1269  10.003   0.970   9.799 -0.0321 -0.0089 -0.0240
   80loPI   GL2 1270  10.086   0.675   9.688 -0.0957 -0.1937  0.1273
   80loPI   C1A 1271  10.100   1.299   9.422  0.0562 -0.0966 -0.1005
   80loPI   C2A 1272  10.053   1.382   9.066  0.0570 -0.0597  0.0278
   80loPI   C3A 1273  10.038   1.404   8.543  0.0126 -0.0684 -0.3392
   80loPI   C4A 1274  10.205   1.618   8.367  0.3206  0.3736  0.0498
   80loPI   C5A 1275  10.542   1.699   8.067 -0.2515  0.0944 -0.0197
   80loPI   C6A 1276  10.949   1.771   7.912  0.1716 -0.1627  0.0696
   80loPI   C1B 1277  10.112   0.760   9.169 -0.1714  0.0498  0.0905
   80loPI   C2B 1278  10.376   0.870   8.840  0.0905 -0.0411 -0.1311
   80loPI   C3B 1279  10.457   1.098   8.540 -0.2506  0.1149 -0.2127
   80loPI   C4B 1280  10.462   0.915   8.101  0.0478  0.0677  0.1116
   81loPI    C1 1281  12.229  17.818  10.415  0.2091  0.1618 -0.0329
   81loPI    C2 1282  12.016  18.127  10.556 -0.0218 -0.1115  0.2337
   81loPI    C3 1283  12.385  18.058  10.695  0.0268  0.0367  0.1800
   81loPI   PO4 1284  12.199  17.843  10.143  0.3316 -0.1082  0.2656
   81loPI   GL1 1285  12.138  18.138   9.819  0.2588  0.5896 -0.2155
   81loPI   GL2 1286  11.888  18.037   9.719 -0.0380  0.1707 -0.0827
   81loPI   C1A 1287  12.261  18.255   9.532 -0.0035 -0.0200  0.1771
   81loPI   C2A 1288  12.213  18.219   9.109  0.0000  0.1829  0.1426
   81loPI   C3A 1289  12.263  18.213   8.673  0.1205  0.3505  0.3590
   81loPI   C4A 1290  12.367  18.475   8.383 -0.0395 -0.0991 -0.2380
   81loPI   C5A 1291  12.679  18.824   8.405  0.1572 -0.1041 -0.2221
   81loPI   C6A 1292  12.945  19.216   8.566  0.2975 -0.2040  0.1509
   81loPI   C1B 1293  12.088  17.763   9.452 -0.2948 -0.2085 -0.1713
   81loPI   C2B 1294  12.393  17.739   9.115  0.2430 -0.0574 -0.4279
   81loPI   C3B 1295  12.565  17.818   8.654  0.0710 -0.2189 -0.0035
   81loPI   C4B 1296  12.591  17.723   8.228 -0.0751 -0.0537  0.3457
   82loPI    C1 1297  17.756  16.509  10.198  0.1155 -0.0812 -0.2162
   82loPI    C2 1298  18.113  16.539  10.376  0.0287 -0.1177 -0.0333
   82loPI    C3 1299  17.786  16.680  10.559 -0.0560 -0.1170 -0.1840
   82loPI   PO4 1300  17.799  16.623   9.992  0.4906 -0.0363 -0.0999
   82loPI   GL1 1301  17.554  16.736   9.731 -0.0755 -0.0347  0.4160
   82loPI   GL2 1302  17.474  17.123   9.799 -0.4436 -0.0467  0.0951
   82loPI   C1A 1303  17.561  16.702   9.311 -0.3237  0.3685  0.0431
   82loPI   C2A 1304  17.672  16.786   8.923 -0.0051 -0.1872 -0.2647
   82loPI   C3A 1305  17.611  16.549   8.496  0.1049  0.0024  0.0678
   82loPI   C4A 1306  17.738  16.242   8.187  0.1151 -0.0415 -0.0242
   82loPI   C5A 1307  18.056  16.230   7.911 -0.1347 -0.2130 -0.1123
   82loPI   C6A 1308  18.235  16.345   7.532  0.0232  0.0299  0.0553
   82loPI   C1B 1309  17.257  17.091   9.385  0.1490  0.0883 -0.0346
   82loPI   C2B 1310  17.161  16.817   9.049  0.0907 -0.0778  0.0960
   82loPI   C3B 1311  17.167  16.739   8.647 -0.1181  0.1740  0.0421
   82loPI   C4B 1312  16.936  16.761   8.242  0.2064 -0.1187 -0.1109
   83loPI    C1 1313  13.756  10.238  10.257 -0.0398  0.2134 -0.0798
   83loPI    C2 1314  13.686   9.891  10.072  0.1451  0.2899 -0.2972
   83loPI    C3 1315  13.581   9.937  10.455  0.1107 -0.0022 -0.2688
   83loPI   PO4 1316  14.086  10.266  10.217  0.0671  0.0935 -0.0886
   83loPI   GL1 1317  14.429  10.222   9.823  0.0799  0.1603 -0.1673
   83loPI   GL2 1318  14.202  10.307   9.622  0.1334  0.1690  0.0325
   83loPI   C1A 1319  14.652  10.168   9.462 -0.1224  0.3309 -0.1553
   83loPI   C2A 1320  14.729  10.081   9.003 -0.1492  0.0881 -0.2550
   83loPI   C3A 1321  14.769  10.040   8.476 -0.0261 -0.1454 -0.0760
   83loPI   C4A 1322  14.793  10.206   8.039  0.0590  0.1299  0.2784
   83loPI   C5A 1323  15.223  10.300   7.857 -0.0200  0.1967  0.0061
   83loPI   C6A 1324  15.592  10.259   7.530 -0.0489 -0.0836 -0.0447
   83loPI   C1B 1325  14.024  10.097   9.400 -0.2200 -0.1580  0.3503
   83loPI   C2B 1326  14.046   9.921   8.888  0.1402 -0.1423 -0.1403
   83loPI   C3B 1327  14.226   9.833   8.526  0.3112  0.1788  0.2753
   83loPI   C4B 1328  14.305  10.035   8.015 -0.0395 -0.2575  0.1719
   84loPI    C1 1329  11.666  10.103   9.914 -0.0628 -0.1406  0.0939
   84loPI    C2 1330  11.298  10.061  10.065 -0.0833  0.0971  0.1147
   84loPI    C3 1331  11.544  10.338  10.215  0.1078 -0.0662  0.1058
   84loPI   PO4 1332  11.631   9.969   9.671  0.1611 -0.3224  0.1518
   84loPI   GL1 1333  11.541  10.079   9.370 -0.1645  0.0608  0.0249
   84loPI   GL2 1334  11.468  10.424   9.245 -0.1355  0.0543  0.4252
   84loPI   C1A 1335  11.432   9.881   9.031 -0.1591 -0.0362 -0.1726
   84loPI   C2A 1336  11.589   9.819   8.593 -0.0022 -0.1297 -0.0920
   84loPI   C3A 1337  11.733   9.582   8.360 -0.0662 -0.3317 -0.1738
   84loPI   C4A 1338  11.759   9.153   8.312 -0.0031  0.2072  0.1150
   84loPI   C5A 1339  11.596   8.795   8.500  0.1829  0.0905 -0.2808
   84loPI   C6A 1340  11.437   8.527   8.223  0.1321  0.0607 -0.1262
   84loPI   C1B 1341  11.346  10.787   8.970  0.2761  0.0935  0.1371
   84loPI   C2B 1342  11.211  10.899   8.510  0.2324  0.0192 -0.1797
   84loPI   C3B 1343  11.094  11.081   8.127  0.2031  0.1282  0.0021
   84loPI   C4B 1344  11.180  11.146   7.761  0.3897  0.1558  0.3558
   85loPI    C1 1345  13.552   8.562  10.247  0.0155 -0.2271 -0.1826
   85loPI    C2 1346  13.517   8.538  10.645  0.3721  0.1919 -0.1185
   85loPI    C3 1347  13.776   8.301  10.452  0.3224  0.1073 -0.0822
   85loPI   PO4 1348  13.344   8.605  10.173  0.1826 -0.1105 -0.0267
   85loPI   GL1 1349  13.333   8.840   9.874  0.1813 -0.2049  0.1151
   85loPI   GL2 1350  13.522   9.012   9.671 -0.1062  0.0776 -0.0254
   85loPI   C1A 1351  13.149   8.758   9.456 -0.3348  0.0776 -0.2107
   85loPI   C2A 1352  13.193   8.754   9.053 -0.0969  0.1846  0.2312
   85loPI   C3A 1353  13.244   8.717   8.642 -0.1770  0.0638 -0.0368
   85loPI   C4A 1354  13.559   8.530   8.429  0.4827  0.1788 -0.2407
   85loPI   C5A 1355  13.512   8.228   8.126 -0.0350 -0.2892  0.0247
   85loPI   C6A 1356  13.824   8.136   7.771  0.1172  0.2979  0.1380
   85loPI   C1B 1357  13.637   8.714   9.325 -0.1114 -0.0398  0.1154
   85loPI   C2B 1358  13.701   8.777   8.929  0.0234  0.0798 -0.2356
   85loPI   C3B 1359  13.930   8.939   8.694 -0.1370  0.1583 -0.1289
   85loPI   C4B 1360  14.091   8.689   8.430 -0.2888 -0.0001  0.1982
   86loPI    C1 1361  10.496   7.049  10.147  0.2353  0.2230 -0.0505
   86loPI    C2 1362  10.400   6.670  10.233  0.1708  0.2868  0.1639
   86loPI    C3 1363  10.159   6.969  10.347  0.2593  0.3978  0.0623
   86loPI   PO4 1364  10.471   7.041   9.829  0.1110 -0.2626 -0.2653
   86loPI   GL1 1365  10.681   6.925   9.453 -0.0142  0.1583  0.0349
   86loPI   GL2 1366  10.459   7.295   9.310  0.0834 -0.3332 -0.1075
   86loPI   C1A 1367  10.658   6.786   9.096 -0.0523 -0.2718 -0.0144
   86loPI   C2A 1368  10.729   6.522   8.847 -0.0018 -0.0426 -0.2537
   86loPI   C3A 1369  10.873   6.266   8.420  0.0291 -0.2359  0.1921
   86loPI   C4A 1370  11.038   6.222   7.934 -0.3377  0.1583 -0.1823
   86loPI   C5A 1371  11.387   6.369   7.578 -0.2285 -0.2090 -0.1944
   86loPI   C6A 1372  11.879   6.577   7.620 -0.0828  0.2398  0.4446
   86loPI   C1B 1373  10.113   7.572   9.165 -0.1580  0.0258 -0.0197
   86loPI   C2B 1374   9.853   7.690   8.858 -0.2156 -0.1934  0.1601
   86loPI   C3B 1375   9.824   7.613   8.455  0.1332 -0.1070 -0.0779
   86loPI   C4B 1376   9.969   7.617   7.999  0.0139  0.0529  0.2906
   87loPI    C1 1377  12.449  15.251  10.465 -0.1145  0.0178  0.1240
   87loPI    C2 1378  12.260  15.044  10.750  0.0285 -0.4681 -0.1212
   87loPI    C3 1379  12.659  15.069  10.753  0.0041  0.0249  0.0429
   87loPI   PO4 1380  12.383  15.208  10.225 -0.0631  0.1655  0.0231
   87loPI   GL1 1381  12.378  15.482   9.951  0.0528  0.0986 -0.1922
   87loPI   GL2 1382  12.149  15.806   9.898 -0.0265 -0.4319 -0.2736
   87loPI   C1A 1383  12.355  15.561   9.573 -0.3976 -0.0664  0.1402
   87loPI   C2A 1384  12.541  15.751   9.202  0.0183 -0.1577 -0.0799
   87loPI   C3A 1385  12.732  15.671   8.854 -0.2767 -0.2351  0.1260
   87loPI   C4A 1386  12.949  15.485   8.472 -0.2104 -0.2810 -0.1665
   87loPI   C5A 1387  13.070  15.231   8.089  0.0756  0.2155 -0.1902
   87loPI   C6A 1388  13.356  15.159   8.005 -0.4527 -0.1370 -0.1270
   87loPI   C1B 1389  12.313  16.074   9.527  0.2990  0.2590 -0.0725
   87loPI   C2B 1390  12.502  16.311   9.246  0.0711  0.0838 -0.0487
   87loPI   C3B 1391  12.718  16.168   8.879 -0.2875 -0.0880 -0.0429
   87loPI   C4B 1392  12.842  16.165   8.566  0.0072 -0.0943  0.2716
   88loPI    C1 1393  13.660  11.169  10.317 -0.0628  0.0796 -0.1087
   88loPI    C2 1394  14.011  11.330  10.211 -0.0892  0.0836 -0.1906
   88loPI    C3 1395  13.811  11.474  10.526 -0.0154  0.0791 -0.1418
   88loPI   PO4 1396  13.569  11.175  10.089  0.4865  0.0377  0.5476
   88loPI   GL1 1397  13.781  11.185   9.788  0.0960  0.1179 -0.1390
   88loPI   GL2 1398  13.907  11.450   9.724 -0.0009  0.0663  0.2110
   88loPI   C1A 1399  14.169  11.263   9.341  0.3251  0.1127  0.2996
   88loPI   C2A 1400  14.590  11.131   9.279  0.0139 -0.0662  0.0506
   88loPI   C3A 1401  14.742  11.023   8.900  0.4359  0.0734 -0.1851
   88loPI   C4A 1402  14.870  11.089   8.525 -0.1599  0.1221 -0.2476
   88loPI   C5A 1403  14.505  10.964   8.254  0.1337  0.0682  0.1458
   88loPI   C6A 1404  14.393  10.973   7.774 -0.1548 -0.1174 -0.0290
   88loPI   C1B 1405  13.823  11.611   9.299  0.0592  0.1584  0.0761
   88loPI   C2B 1406  13.976  11.485   8.917 -0.1978 -0.0895  0.0036
   88loPI   C3B 1407  14.200  11.573   8.504  0.0695 -0.1641  0.1401
   88loPI   C4B 1408  14.300  11.456   8.184 -0.1010  0.0384 -0.0434
   89loPI    C1 1409  12.255   5.833  10.038  0.0980 -0.1504  0.0702
   89loPI    C2 1410  12.364   5.855  10.423 -0.1317  0.1821  0.1207
   89loPI    C3 1411  12.011   5.695  10.324 -0.0272 -0.0002  0.0375
   89loPI   PO4 1412  12.414   5.713   9.936  0.1298  0.2803  0.3365
   89loPI   GL1 1413  12.552   5.698   9.455  0.2487 -0.2237 -0.2495
   89loPI   GL2 1414  12.158   5.752   9.488 -0.2294 -0.2690 -0.1237
   89loPI   C1A 1415  12.683   5.611   8.965  0.0346  0.2906  0.2643
   89loPI   C2A 1416  12.529   5.255   8.685  0.0361  0.4749 -0.1616
   89loPI   C3A 1417  12.723   4.899   8.643  0.0975 -0.2531  0.0777
   89loPI   C4A 1418  12.881   4.765   8.253  0.1102  0.2289  0.2731
   89loPI   C5A 1419  12.660   4.848   7.929 -0.1543  0.0941  0.2857
   89loPI   C6A 1420  12.353   4.690   7.710  0.5383 -0.1323  0.1102
   89loPI   C1B 1421  12.093   5.625   9.058  0.0836 -0.1317 -0.1618
   89loPI   C2B 1422  12.203   5.637   8.687  0.0839 -0.1285 -0.0350
   89loPI   C3B 1423  12.229   5.623   8.233 -0.3631  0.0298  0.0257
   89loPI   C4B 1424  11.857   5.454   7.909 -0.2990 -0.0034 -0.0071
   90loPI    C1 1425   1.540  15.654  10.091 -0.0695 -0.2864  0.2867
   90loPI    C2 1426   1.931  15.616  10.018 -0.1077  0.1059 -0.1721
   90loPI    C3 1427   1.807  15.772  10.364  0.1450  0.1216 -0.0863
   90loPI   PO4 1428   1.417  15.761   9.874  0.0278 -0.1670 -0.2210
   90loPI   GL1 1429   1.466  15.876   9.451  0.0478 -0.2326 -0.0643
   90loPI   GL2 1430   1.362  16.121   9.471 -0.2790  0.4627  0.2019
   90loPI   C1A 1431   1.451  15.696   9.080 -0.1480  0.0540  0.0026
   90loPI   C2A 1432   1.384  15.326   8.912 -0.0138 -0.0813 -0.1164
   90loPI   C3A 1433   1.277  15.128   8.538  0.4115  0.0485 -0.0158
   90loPI   C4A 1434   1.361  15.123   8.028 -0.0464  0.1809 -0.1054
   90loPI   C5A 1435   1.490  15.195   7.595 -0.2222 -0.0137 -0.2165
   90loPI   C6A 1436   1.429  15.179   7.147 -0.1977 -0.1021 -0.0012
   90loPI   C1B 1437   1.096  16.047   9.110 -0.0255 -0.1037  0.4060
   90loPI   C2B 1438   0.950  16.181   8.714 -0.1282 -0.0032  0.2494
   90loPI   C3B 1439   0.948  16.207   8.283 -0.1112 -0.1714 -0.0628
   90loPI   C4B 1440   0.703  16.377   7.882 -0.0186  0.2086  0.0698
   91loPI    C1 1441  14.061   1.682  10.583  0.0144 -0.0230  0.0538
   91loPI    C2 1442  14.306   1.625  10.894  0.1150  0.0374 -0.0135
   91loPI    C3 1443  13.999   1.879  10.925  0.0257 -0.0823  0.0900
   91loPI   PO4 1444  14.183   1.572  10.305  0.0290 -0.3377 -0.0952
   91loPI   GL1 1445  14.319   1.836   9.934 -0.3072  0.0107 -0.2041
   91loPI   GL2 1446  14.413   2.140   9.774 -0.3100 -0.1324 -0.1931
   91loPI   C1A 1447  14.474   1.580   9.661  0.2198 -0.2200  0.0053
   91loPI   C2A 1448  14.400   1.386   9.333  0.0572  0.0380  0.2176
   91loPI   C3A 1449  14.519   1.116   9.034  0.3860  0.1067 -0.2029
   91loPI   C4A 1450  14.188   1.122   8.691 -0.2729 -0.1589 -0.0299
   91loPI   C5A 1451  13.839   1.307   8.463 -0.2362  0.0586 -0.3732
   91loPI   C6A 1452  13.359   1.192   8.257  0.0209  0.0753 -0.0554
   91loPI   C1B 1453  14.495   2.302   9.429 -0.0663  0.0403  0.1425
   91loPI   C2B 1454  14.645   2.671   9.352  0.1930 -0.2130 -0.1456
   91loPI   C3B 1455  14.703   2.942   9.043 -0.2476  0.0187 -0.2366
   91loPI   C4B 1456  14.804   3.423   9.061 -0.0462 -0.0867  0.0874
   92loPI    C1 1457   6.777   8.909  10.629 -0.1244 -0.1665 -0.1822
   92loPI    C2 1458   7.160   8.800  10.667 -0.0602  0.0597 -0.1686
   92loPI    C3 1459   7.055   9.183  10.718 -0.2863  0.0012 -0.1868
   92loPI   PO4 1460   6.683   8.676  10.471  0.2232  0.0464  0.2560
   92loPI   GL1 1461   6.892   8.553  10.066  0.1660  0.1381 -0.0007
   92loPI   GL2 1462   6.680   8.537   9.768  0.1107 -0.5295 -0.3073
   92loPI   C1A 1463   7.198   8.581   9.789 -0.0818  0.0658  0.2100
   92loPI   C2A 1464   7.187   8.430   9.357  0.1543 -0.0504 -0.0684
   92loPI   C3A 1465   7.311   8.255   9.046  0.0170 -0.3363  0.0958
   92loPI   C4A 1466   7.313   8.172   8.613 -0.3636 -0.3680 -0.4072
   92loPI   C5A 1467   7.328   7.891   8.202 -0.0690 -0.1523 -0.0810
   92loPI   C6A 1468   6.895   7.706   8.019  0.0240 -0.1290 -0.0753
   92loPI   C1B 1469   6.729   8.688   9.389 -0.4135  0.0072  0.1107
   92loPI   C2B 1470   6.737   8.686   9.002  0.1946 -0.0864 -0.4133
   92loPI   C3B 1471   6.561   8.823   8.721  0.1805  0.0257  0.1099
   92loPI   C4B 1472   6.503   9.130   8.492  0.0982 -0.1502 -0.0566
   93loPI    C1 1473  15.771  13.796  10.511 -0.1331  0.1272 -0.2866
   93loPI    C2 1474  16.108  13.918  10.688 -0.2817  0.3088 -0.1239
   93loPI    C3 1475  15.972  13.547  10.750 -0.1301  0.2459 -0.1639
   93loPI   PO4 1476  15.911  13.846  10.196  0.1771  0.0190 -0.3462
   93loPI   GL1 1477  16.171  14.126   9.954  0.0126  0.0355 -0.0959
   93loPI   GL2 1478  16.679  14.154   9.929  0.0438  0.4466  0.4212
   93loPI   C1A 1479  16.375  13.991   9.558 -0.0948  0.0654  0.2060
   93loPI   C2A 1480  16.409  14.119   9.196 -0.0466 -0.0169  0.1274
   93loPI   C3A 1481  16.541  14.351   8.879  0.0281  0.1680 -0.0962
   93loPI   C4A 1482  16.333  14.338   8.487  0.0327 -0.1828  0.0757
   93loPI   C5A 1483  16.290  14.299   8.046 -0.1458  0.2066 -0.0830
   93loPI   C6A 1484  16.688  14.208   7.835  0.0291  0.2705  0.0609
   93loPI   C1B 1485  16.511  14.451   9.602 -0.0046 -0.2200 -0.0240
   93loPI   C2B 1486  16.273  14.592   9.249  0.0327  0.0031  0.0196
   93loPI   C3B 1487  16.072  14.625   8.796  0.1395 -0.0131  0.1097
   93loPI   C4B 1488  15.969  14.652   8.318  0.2090 -0.2405 -0.0868
   94loPI    C1 1489   9.148  12.598  10.107 -0.1681  0.0295 -0.3580
   94loPI    C2 1490   8.795  12.623  10.292 -0.0661 -0.0723 -0.1456
   94loPI    C3 1491   9.129  12.734  10.483  0.0457 -0.2200 -0.2534
   94loPI   PO4 1492   9.076  12.764   9.866 -0.0544  0.0593 -0.1038
   94loPI   GL1 1493   8.979  12.807   9.437  0.0592  0.0822 -0.2859
   94loPI   GL2 1494   9.267  12.780   9.313  0.0351  0.1914  0.0262
   94loPI   C1A 1495   8.971  13.177   9.166 -0.0145 -0.0523 -0.0780
   94loPI   C2A 1496   8.944  13.153   8.664 -0.0599  0.2313 -0.1887
   94loPI   C3A 1497   8.861  13.210   8.209  0.4407  0.4260 -0.0329
   94loPI   C4A 1498   9.008  13.194   7.816 -0.3364 -0.0275  0.2532
   94loPI   C5A 1499   9.414  13.166   7.637  0.3536 -0.0718 -0.0891
   94loPI   C6A 1500   9.840  13.043   7.542  0.2640 -0.0468 -0.1906
   94loPI   C1B 1501   9.064  12.682   8.929 -0.3210 -0.0037 -0.3363
   94loPI   C2B 1502   9.076  12.733   8.425  0.3783 -0.0811  0.2466
   94loPI   C3B 1503   9.089  12.716   7.997  0.0272 -0.0677  0.1799
   94loPI   C4B 1504   9.271  12.339   7.752  0.2992 -0.3709  0.1418
   95loPI    C1 1505  17.155  11.869   9.964  0.0483  0.1550  0.1187
   95loPI    C2 1506  16.803  11.889  10.152  0.1731  0.2513  0.3468
   95loPI    C3 1507  17.123  12.070  10.308  0.2757  0.3523  0.0273
   95loPI   PO4 1508  17.038  11.979   9.729 -0.1067  0.0745  0.0918
   95loPI   GL1 1509  16.838  11.914   9.438 -0.2160 -0.0200  0.1515
   95loPI   GL2 1510  16.600  11.835   9.214 -0.0774  0.1024 -0.0999
   95loPI   C1A 1511  17.053  11.925   9.048  0.0906  0.0621  0.1210
   95loPI   C2A 1512  16.865  12.034   8.702  0.5761  0.2208  0.1214
   95loPI   C3A 1513  16.864  12.137   8.360  0.0147  0.3079 -0.1762
   95loPI   C4A 1514  16.960  11.968   7.958 -0.0035 -0.0780 -0.1086
   95loPI   C5A 1515  17.072  12.134   7.622  0.2166 -0.1562 -0.1678
   95loPI   C6A 1516  17.354  12.485   7.492 -0.0410  0.2266 -0.1072
   95loPI   C1B 1517  16.551  11.655   8.844 -0.1681  0.2611 -0.1095
   95loPI   C2B 1518  16.522  11.749   8.453 -0.0409  0.0594 -0.0164
   95loPI   C3B 1519  16.415  11.648   8.032  0.1555 -0.1275 -0.3229
   95loPI   C4B 1520  16.263  11.651   7.636  0.2777 -0.0650  0.2884
   96loPI    C1 1521   6.880   2.631  10.393  0.1017 -0.2610  0.0175
   96loPI    C2 1522   6.625   2.465  10.652 -0.1150 -0.0587 -0.0628
   96loPI    C3 1523   6.627   2.861  10.599  0.3150 -0.0421  0.0393
   96loPI   PO4 1524   6.851   2.573  10.152 -0.2608 -0.0385  0.0758
   96loPI   GL1 1525   7.040   2.716   9.806 -0.0720 -0.1607  0.2587
   96loPI   GL2 1526   7.117   2.506   9.655  0.3208 -0.3063  0.1339
   96loPI   C1A 1527   7.112   2.948   9.436 -0.1311 -0.1860  0.2563
   96loPI   C2A 1528   7.341   2.800   9.015  0.0449 -0.0468  0.2206
   96loPI   C3A 1529   7.413   2.693   8.613 -0.0486  0.0637  0.2606
   96loPI   C4A 1530   7.548   2.718   8.059  0.0879  0.0066  0.3888
   96loPI   C5A 1531   7.888   2.634   7.709 -0.1703  0.0774  0.2542
   96loPI   C6A 1532   8.030   2.635   7.269  0.1234  0.1179 -0.0214
   96loPI   C1B 1533   7.205   2.309   9.335  0.1126  0.2083  0.3132
   96loPI   C2B 1534   7.250   2.301   8.890 -0.1192 -0.1108  0.1708
   96loPI   C3B 1535   7.268   2.278   8.390 -0.3475 -0.1678  0.3092
   96loPI   C4B 1536   7.248   2.003   8.116 -0.1193  0.3572  0.2982
   97loPI    C1 1537   5.191   3.816   9.901 -0.0521 -0.4250 -0.1412
   97loPI    C2 1538   5.265   3.807  10.294 -0.0314  0.0038 -0.1304
   97loPI    C3 1539   4.915   3.945  10.159 -0.0444 -0.1559 -0.2641
   97loPI   PO4 1540   5.360   3.658   9.868 -0.2185 -0.1152 -0.2166
   97loPI   GL1 1541   5.440   3.504   9.517  0.0764  0.2294 -0.3233
   97loPI   GL2 1542   5.639   3.156   9.437 -0.0923  0.1892  0.1659
   97loPI   C1A 1543   5.400   3.517   9.167  0.1448 -0.3607 -0.3072
   97loPI   C2A 1544   5.118   3.433   8.840  0.1800  0.1857 -0.0928
   97loPI   C3A 1545   5.104   3.371   8.369 -0.0073  0.3002  0.1733
   97loPI   C4A 1546   5.380   3.551   7.910 -0.1262  0.0887  0.2246
   97loPI   C5A 1547   5.663   3.395   7.606  0.0285 -0.3891 -0.1681
   97loPI   C6A 1548   6.065   3.399   7.376 -0.0449 -0.1029  0.0361
   97loPI   C1B 1549   5.531   3.013   9.098 -0.1600 -0.3355  0.3924
   97loPI   C2B 1550   5.588   2.688   8.906  0.1952 -0.0033 -0.0680
   97loPI   C3B 1551   5.408   2.495   8.746 -0.0145 -0.1847  0.6793
   97loPI   C4B 1552   5.345   2.597   8.340 -0.2393  0.0180  0.2063
   98loPI    C1 1553  10.291   9.102  10.217  0.1304 -0.0551 -0.0848
   98loPI    C2 1554  10.670   8.991  10.281  0.0492 -0.1831  0.1889
   98loPI    C3 1555  10.555   9.367  10.360  0.1187 -0.1438  0.1042
   98loPI   PO4 1556  10.240   9.034   9.939  0.1173  0.2943  0.1809
   98loPI   GL1 1557  10.406   8.966   9.532  0.1883  0.1200 -0.1876
   98loPI   GL2 1558  10.244   9.214   9.461  0.0623  0.0528 -0.4538
   98loPI   C1A 1559  10.184   8.756   9.175 -0.2109 -0.0009 -0.1213
   98loPI   C2A 1560  10.041   8.772   8.688 -0.2979  0.1456 -0.2147
   98loPI   C3A 1561  10.237   8.821   8.351 -0.3301 -0.2672 -0.0349
   98loPI   C4A 1562  10.657   8.772   8.291  0.0525  0.1174  0.1324
   98loPI   C5A 1563  10.982   8.690   8.552 -0.0415 -0.0599  0.2774
   98loPI   C6A 1564  11.296   8.476   8.715 -0.1807  0.0907 -0.2234
   98loPI   C1B 1565  10.078   9.253   9.010  0.2542  0.2098 -0.0758
   98loPI   C2B 1566  10.046   9.298   8.537  0.0022 -0.1627  0.1254
   98loPI   C3B 1567   9.856   9.531   8.232 -0.1345  0.2225 -0.2439
   98loPI   C4B 1568   9.526   9.632   7.896  0.3922  0.0525  0.2718
   99loPI    C1 1569  12.266  10.123  10.245 -0.0869  0.1264 -0.1664
   99loPI    C2 1570  11.903   9.981  10.333  0.0171  0.1134  0.2620
   99loPI    C3 1571  12.046  10.300  10.528  0.2283  0.1321  0.0803
   99loPI   PO4 1572  12.266  10.083  10.015 -0.0498 -0.1813  0.1673
   99loPI   GL1 1573  12.234  10.059   9.547 -0.0883 -0.0564  0.1299
   99loPI   GL2 1574  12.046  10.231   9.507 -0.0585  0.3091 -0.0613
   99loPI   C1A 1575  12.200   9.821   9.185  0.0907  0.0580  0.0138
   99loPI   C2A 1576  12.072   9.904   8.745 -0.3498 -0.4183  0.0115
   99loPI   C3A 1577  12.207   9.909   8.283 -0.1198 -0.2517 -0.1275
   99loPI   C4A 1578  12.446   9.647   7.940 -0.3709 -0.0375  0.1809
   99loPI   C5A 1579  12.779   9.648   7.673  0.2724  0.1032  0.3028
   99loPI   C6A 1580  12.769   9.581   7.213 -0.1752 -0.3118  0.0085
   99loPI   C1B 1581  11.935  10.290   9.064 -0.1890  0.0892  0.2328
   99loPI   C2B 1582  11.743  10.291   8.574  0.0714  0.2065 -0.1728
   99loPI   C3B 1583  11.766  10.088   8.169 -0.2264  0.1781  0.0972
   99loPI   C4B 1584  11.941   9.704   7.932  0.2066  0.1309 -0.0560
  100loPI    C1 1585   0.955   1.293  10.401  0.1086 -0.2338  0.1690
  100loPI    C2 1586   1.018   1.669  10.521 -0.0743 -0.1615  0.0426
  100loPI    C3 1587   0.968   1.379  10.792 -0.2586 -0.0386  0.1426
  100loPI   PO4 1588   0.965   1.215  10.096 -0.2943 -0.1278 -0.1572
  100loPI   GL1 1589   0.724   0.954   9.713  0.1642  0.1100 -0.0295
  100loPI   GL2 1590   0.728   1.273   9.728 -0.4441 -0.2012 -0.1768
  100loPI   C1A 1591   0.581   0.807   9.323 -0.1353 -0.1654  0.1516
  100loPI   C2A 1592   0.539   0.722   8.924  0.0121  0.0319 -0.2921
  100loPI   C3A 1593   0.506   0.627   8.518 -0.1738  0.1925  0.1917
  100loPI   C4A 1594   0.744   0.390   8.215 -0.2095  0.1004  0.0421
  100loPI   C5A 1595   0.691   0.270   7.784 -0.0090 -0.4022  0.2117
  100loPI   C6A 1596   0.680   0.624   7.353  0.0686 -0.0822  0.1037
  100loPI   C1B 1597   0.261   1.145   9.720  0.1545  0.0357 -0.4619
  100loPI   C2B 1598   0.043   0.825   9.596  0.3501  0.2231 -0.1048
  100loPI   C3B 1599  -0.364   0.613   9.347 -0.0225 -0.0498  0.1126
  100loPI   C4B 1600  -0.673   0.882   9.085 -0.1100  0.0903  0.0235
  101loPI    C1 1601   9.553   2.719  10.072  0.2013  0.0104 -0.1577
  101loPI    C2 1602   9.780   2.403  10.165 -0.0162 -0.0972  0.0184
  101loPI    C3 1603   9.589   2.603  10.453  0.0009  0.1052 -0.1087
  101loPI   PO4 1604   9.734   2.842   9.919  0.0455  0.3195 -0.0578
  101loPI   GL1 1605   9.778   2.738   9.528  0.2094 -0.1807  0.1128
  101loPI   GL2 1606  10.072   2.948   9.506  0.0991  0.1623 -0.0677
  101loPI   C1A 1607   9.460   2.751   9.151  0.1180 -0.0601  0.0315
  101loPI   C2A 1608   9.504   2.786   8.736 -0.3642  0.2579  0.0051
  101loPI   C3A 1609   9.220   2.657   8.459  0.4129  0.0409  0.2048
  101loPI   C4A 1610   9.191   2.628   8.057  0.1291  0.0155  0.0700
  101loPI   C5A 1611   9.339   3.016   7.718 -0.2249  0.4622  0.0911
  101loPI   C6A 1612   9.410   2.981   7.338 -0.1959  0.4508  0.2974
  101loPI   C1B 1613  10.047   2.780   9.078  0.0315  0.0892 -0.0232
  101loPI   C2B 1614  10.047   2.621   8.667 -0.2168 -0.1637  0.1934
  101loPI   C3B 1615  10.162   2.786   8.309  0.1661  0.0298 -0.3308
  101loPI   C4B 1616  10.133   3.057   7.910 -0.3607  0.2915  0.1786
  102loPI    C1 1617   5.583  15.621   9.658  0.0578  0.0078  0.2394
  102loPI    C2 1618   5.252  15.689   9.444  0.1094 -0.0774  0.1311
  102loPI    C3 1619   5.249  15.743   9.840 -0.0551 -0.1483  0.1404
  102loPI   PO4 1620   5.778  15.629   9.401  0.0369  0.0398 -0.0914
  102loPI   GL1 1621   5.823  15.843   9.052  0.0556  0.0435 -0.2612
  102loPI   GL2 1622   5.514  15.997   9.012  0.0082 -0.0473 -0.0249
  102loPI   C1A 1623   5.910  15.746   8.697 -0.1117 -0.2534  0.1988
  102loPI   C2A 1624   6.095  15.797   8.184 -0.2138  0.2898  0.0030
  102loPI   C3A 1625   6.075  15.979   7.732  0.0168  0.3293  0.2152
  102loPI   C4A 1626   6.285  16.289   7.537 -0.0884 -0.1382 -0.1344
  102loPI   C5A 1627   6.345  16.770   7.356  0.2062  0.1285  0.1891
  102loPI   C6A 1628   6.616  17.062   7.230 -0.0591  0.1445 -0.2752
  102loPI   C1B 1629   5.531  16.010   8.539 -0.2537 -0.2399 -0.1637
  102loPI   C2B 1630   5.616  15.960   7.983 -0.0418 -0.2709 -0.0740
  102loPI   C3B 1631   5.567  15.904   7.524 -0.1531 -0.0211 -0.3132
  102loPI   C4B 1632   5.531  16.158   7.187  0.1475 -0.0569 -0.0824
  103loPI    C1 1633  15.442  11.388  10.228 -0.1894  0.0545  0.0124
  103loPI    C2 1634  15.511  11.084  10.479 -0.0156  0.1317  0.0597
  103loPI    C3 1635  15.471  11.456  10.621  0.0810  0.1755 -0.0268
  103loPI   PO4 1636  15.267  11.223  10.054  0.0437  0.0791 -0.0720
  103loPI   GL1 1637  15.167  10.832   9.695 -0.1960  0.1489 -0.1883
  103loPI   GL2 1638  15.529  10.759   9.682  0.0588 -0.0064  0.2135
  103loPI   C1A 1639  15.093  10.891   9.289 -0.0247  0.0218 -0.1920
  103loPI   C2A 1640  15.251  10.904   8.914  0.2146 -0.0797  0.3517
  103loPI   C3A 1641  15.293  10.787   8.563 -0.0084 -0.0242 -0.0360
  103loPI   C4A 1642  15.261  10.819   8.053  0.2951 -0.3108 -0.3147
  103loPI   C5A 1643  15.287  10.769   7.629  0.0930 -0.1864  0.1116
  103loPI   C6A 1644  15.170  10.749   7.179  0.0783  0.1507 -0.0784
  103loPI   C1B 1645  15.705  10.806   9.294  0.0638  0.0961 -0.1262
  103loPI   C2B 1646  15.770  10.805   8.833 -0.2249  0.0666 -0.1411
  103loPI   C3B 1647  15.720  10.623   8.359 -0.2278  0.4156 -0.3771
  103loPI   C4B 1648  15.677  10.338   8.034  0.2735  0.1081  0.0071
  104loPI    C1 1649  10.094  18.178  10.322  0.2449  0.2060  0.1462
  104loPI    C2 1650  10.105  18.534  10.503  0.0629  0.1380  0.2944
  104loPI    C3 1651   9.790  18.294  10.555  0.1505 -0.0134  0.1346
  104loPI   PO4 1652  10.240  18.324  10.058  0.0576  0.1473 -0.1431
  104loPI   GL1 1653  10.386  18.234   9.699  0.1024 -0.5424 -0.1238
  104loPI   GL2 1654  10.154  17.963   9.711  0.0277  0.0527  0.0366
  104loPI   C1A 1655  10.508  18.456   9.371  0.0129 -0.0135  0.0264
  104loPI   C2A 1656  10.353  18.539   8.988  0.0472  0.0238 -0.3314
  104loPI   C3A 1657  10.209  18.311   8.578  0.2292  0.1328 -0.1626
  104loPI   C4A 1658  10.270  18.321   8.261  0.1482 -0.0495  0.1525
  104loPI   C5A 1659   9.986  18.283   7.865  0.2491  0.0225 -0.0734
  104loPI   C6A 1660   9.583  18.377   7.563 -0.1949 -0.2588 -0.1777
  104loPI   C1B 1661  10.520  17.869   9.356  0.3259  0.1286 -0.0440
  104loPI   C2B 1662  10.764  17.495   9.229 -0.0643  0.2165 -0.3221
  104loPI   C3B 1663  10.969  17.382   8.825  0.0117  0.1831 -0.1076
  104loPI   C4B 1664  10.749  17.475   8.484  0.1559  0.0748 -0.3964
  105loPI    C1 1665  10.914   4.991  10.296  0.1356 -0.0304  0.2396
  105loPI    C2 1666  10.898   4.814  10.654 -0.0258  0.0973  0.2969
  105loPI    C3 1667  10.722   5.169  10.599 -0.1882 -0.0215  0.0337
  105loPI   PO4 1668  11.114   4.893  10.206  0.1363  0.3743  0.0427
  105loPI   GL1 1669  11.310   4.858   9.889  0.0565 -0.0416  0.0821
  105loPI   GL2 1670  11.142   4.658   9.617 -0.2056 -0.1390 -0.0769
  105loPI   C1A 1671  11.598   4.881   9.554  0.4422 -0.2605 -0.1355
  105loPI   C2A 1672  11.705   4.837   9.201 -0.1425  0.2132  0.2769
  105loPI   C3A 1673  11.681   4.767   8.731  0.2606  0.2337  0.1591
  105loPI   C4A 1674  11.863   4.370   8.599  0.4463  0.0660 -0.0709
  105loPI   C5A 1675  11.783   4.049   8.293  0.0786  0.1204  0.0447
  105loPI   C6A 1676  12.084   3.865   8.100 -0.2345  0.1418  0.2043
  105loPI   C1B 1677  11.124   4.564   9.163 -0.2370  0.0850  0.0299
  105loPI   C2B 1678  10.890   4.516   8.743 -0.0995  0.0313  0.0168
  105loPI   C3B 1679  10.889   4.676   8.335 -0.0682 -0.2711  0.0414
  105loPI   C4B 1680  10.913   5.010   7.941 -0.0801 -0.1025 -0.0334
  106loPI    C1 1681   7.168  14.043   9.805 -0.0186  0.0614 -0.0430
  106loPI    C2 1682   7.218  14.280  10.123  0.0752  0.0409 -0.0424
  106loPI    C3 1683   7.059  13.916  10.169  0.0506  0.0538 -0.0246
  106loPI   PO4 1684   7.313  14.177   9.623 -0.0070  0.1255  0.0941
  106loPI   GL1 1685   7.732  14.201   9.456 -0.0166  0.0824  0.1801
  106loPI   GL2 1686   7.609  14.448   9.271  0.3876  0.3122 -0.2920
  106loPI   C1A 1687   8.123  14.271   9.228 -0.2649 -0.2008  0.0539
  106loPI   C2A 1688   8.078  14.507   8.897 -0.2216 -0.2345 -0.1807
  106loPI   C3A 1689   8.040  14.645   8.434  0.3857  0.2813 -0.4137
  106loPI   C4A 1690   8.050  14.682   8.070 -0.4103  0.1949 -0.3226
  106loPI   C5A 1691   7.954  14.528   7.658  0.1651  0.3126 -0.0663
  106loPI   C6A 1692   8.227  14.224   7.463  0.2869 -0.1149 -0.1438
  106loPI   C1B 1693   7.619  14.421   8.792  0.2190  0.1470 -0.0396
  106loPI   C2B 1694   7.609  14.345   8.319 -0.3380  0.3330  0.0097
  106loPI   C3B 1695   7.468  14.544   8.037  0.0393  0.3556 -0.0038
  106loPI   C4B 1696   7.491  14.678   7.592 -0.0241  0.0035 -0.0707
  107loPI    C1 1697  11.867   4.592  10.252  0.0066  0.0196 -0.2625
  107loPI    C2 1698  11.818   4.903  10.006  0.0047  0.0959 -0.1660
  107loPI    C3 1699  11.635   4.898  10.362 -0.1339 -0.0942 -0.2383
  107loPI   PO4 1700  11.901   4.311  10.096 -0.0332 -0.0807  0.0889
  107loPI   GL1 1701  11.844   4.422   9.706 -0.3299  0.3833 -0.2723
  107loPI   GL2 1702  11.700   4.148   9.630 -0.1626  0.1350 -0.1062
  107loPI   C1A 1703  12.093   4.443   9.305  0.0697  0.0750  0.2231
  107loPI   C2A 1704  12.289   4.375   8.892  0.3393 -0.0712 -0.0820
  107loPI   C3A 1705  12.453   4.467   8.412  0.1640 -0.0496  0.0994
  107loPI   C4A 1706  12.211   4.501   8.157 -0.1466  0.0226  0.2828
  107loPI   C5A 1707  12.160   4.211   7.793 -0.3550 -0.0198  0.0208
  107loPI   C6A 1708  12.174   4.163   7.362  0.0138  0.3376  0.0713
  107loPI   C1B 1709  11.576   4.305   9.206  0.0811  0.1085 -0.1494
  107loPI   C2B 1710  11.387   4.375   8.754 -0.0740  0.4967  0.3065
  107loPI   C3B 1711  11.450   4.535   8.345 -0.5397  0.1294  0.1051
  107loPI   C4B 1712  11.662   4.309   7.905 -0.0228 -0.1324 -0.1880
  108loPI    C1 1713  11.147   6.998  10.350  0.0762  0.2050  0.1545
  108loPI    C2 1714  10.835   7.221  10.462 -0.0712  0.1006 -0.0409
  108loPI    C3 1715  11.037   7.008  10.734 -0.2129  0.1142  0.0764
  108loPI   PO4 1716  11.061   6.777  10.077 -0.0833  0.1616  0.0495
  108loPI   GL1 1717  11.224   6.631   9.683  0.1961 -0.3687  0.1750
  108loPI   GL2 1718  11.488   6.661   9.468  0.1668 -0.0069 -0.1782
  108loPI   C1A 1719  10.923   6.441   9.305 -0.2029  0.2674 -0.1083
  108loPI   C2A 1720  10.866   6.050   8.968  0.0752  0.2248  0.0925
  108loPI   C3A 1721  10.784   5.791   8.455  0.4160 -0.2047  0.2375
  108loPI   C4A 1722  10.619   5.927   7.998  0.0684  0.1388 -0.1700
  108loPI   C5A 1723  10.448   6.284   7.849  0.0278 -0.4340  0.3904
  108loPI   C6A 1724  10.596   6.498   7.616 -0.0717 -0.0538 -0.3505
  108loPI   C1B 1725  11.333   6.581   9.067  0.1297  0.1777 -0.0710
  108loPI   C2B 1726  11.322   6.551   8.548  0.1991  0.3253  0.0386
  108loPI   C3B 1727  11.357   6.600   8.046 -0.1050  0.2407 -0.1540
  108loPI   C4B 1728  11.048   6.740   7.749 -0.0488 -0.0135  0.3516
  109loPI    C1 1729  11.052  12.587  10.037 -0.0037  0.0210  0.2674
  109loPI    C2 1730  11.285  12.352   9.813 -0.3204 -0.1611  0.1218
  109loPI    C3 1731  11.242  12.277  10.203  0.0166 -0.0070  0.1923
  109loPI   PO4 1732  10.839  12.548   9.923 -0.1073 -0.0842  0.0704
  109loPI   GL1 1733  10.720  12.256   9.661 -0.0211  0.0553  0.3483
  109loPI   GL2 1734  10.566  12.595   9.469  0.0187  0.2833 -0.2363
  109loPI   C1A 1735  10.994  12.287   9.358  0.0655 -0.0280  0.1323
  109loPI   C2A 1736  11.144  12.518   8.882  0.0910  0.1126  0.1040
  109loPI   C3A 1737  11.330  12.866   8.630  0.1597 -0.0550 -0.0017
  109loPI   C4A 1738  11.267  13.037   8.201 -0.0551  0.1997 -0.2437
  109loPI   C5A 1739  11.540  13.138   7.824 -0.0614 -0.2964 -0.0698
  109loPI   C6A 1740  11.931  13.103   7.509 -0.1241  0.1345 -0.2110
  109loPI   C1B 1741  10.617  12.565   9.052  0.3319  0.2652  0.1167
  109loPI   C2B 1742  10.712  12.545   8.630  0.1232 -0.1258 -0.1627
  109loPI   C3B 1743  11.016  12.525   8.414 -0.3138  0.1406 -0.0789
  109loPI   C4B 1744  11.071  12.583   7.976 -0.0320  0.1826 -0.1659
  110loPI    C1 1745  17.149   3.963  10.246  0.2100  0.1326  0.1107
  110loPI    C2 1746  17.545   3.954  10.306  0.2469  0.0269 -0.1360
  110loPI    C3 1747  17.313   4.187  10.534  0.4176 -0.1164  0.1901
  110loPI   PO4 1748  17.185   3.907   9.905 -0.2704  0.1215  0.1216
  110loPI   GL1 1749  17.010   3.974   9.544 -0.2229  0.1195  0.0670
  110loPI   GL2 1750  16.832   3.710   9.534 -0.0572 -0.1436 -0.2162
  110loPI   C1A 1751  16.882   4.071   9.106  0.1378 -0.2181  0.1119
  110loPI   C2A 1752  16.827   4.085   8.754  0.2466 -0.1345  0.0898
  110loPI   C3A 1753  16.847   4.245   8.463  0.0340  0.1925  0.2614
  110loPI   C4A 1754  17.204   4.240   8.099  0.0899  0.3708  0.0288
  110loPI   C5A 1755  17.297   4.724   7.912 -0.0153  0.2723 -0.3979
  110loPI   C6A 1756  17.275   5.168   7.820  0.0567 -0.3677  0.0497
  110loPI   C1B 1757  16.812   3.311   9.120  0.2886  0.0294 -0.0196
  110loPI   C2B 1758  16.744   3.030   8.821  0.0985  0.3802 -0.1841
  110loPI   C3B 1759  16.509   2.980   8.442  0.2231  0.1432  0.1016
  110loPI   C4B 1760  16.299   2.969   8.049 -0.0097 -0.3445  0.2001
  111loPI    C1 1761   2.820   9.976   9.943  0.0350  0.0932  0.0988
  111loPI    C2 1762   2.959   9.636   9.785  0.1218  0.1749 -0.0027
  111loPI    C3 1763   3.050   9.733  10.162 -0.1418 -0.0540  0.1235
  111loPI   PO4 1764   2.602  10.088   9.867 -0.0659  0.0444 -0.2166
  111loPI   GL1 1765   2.628  10.132   9.479 -0.0965 -0.0856  0.0937
  111loPI   GL2 1766   2.935  10.237   9.460 -0.0473  0.2021 -0.3021
  111loPI   C1A 1767   2.565  10.074   9.094  0.0962  0.1372 -0.1993
  111loPI   C2A 1768   2.509   9.985   8.725  0.1217 -0.2591 -0.0906
  111loPI   C3A 1769   2.528   9.925   8.257 -0.2252  0.2362 -0.1724
  111loPI   C4A 1770   2.533   9.510   7.972  0.2772  0.0684 -0.0826
  111loPI   C5A 1771   2.342   9.196   7.665 -0.0496  0.0641 -0.1670
  111loPI   C6A 1772   2.208   9.264   7.320 -0.1082  0.2349 -0.0720
  111loPI   C1B 1773   2.889   9.756   9.326  0.1214  0.0732  0.0337
  111loPI   C2B 1774   2.911   9.434   9.097 -0.0750 -0.1526  0.0626
  111loPI   C3B 1775   2.835   9.565   8.759  0.0388 -0.0719 -0.0456
  111loPI   C4B 1776   2.767   9.276   8.369  0.0982 -0.4211  0.1395
  112loPI    C1 1777   0.008   9.730   9.977  0.1940 -0.3170 -0.2313
  112loPI    C2 1778   0.198   9.527  10.265  0.1945  0.1710  0.1238
  112loPI    C3 1779  -0.202   9.551  10.267  0.1945  0.1758  0.0851
  112loPI   PO4 1780   0.086   9.635   9.800 -0.0738  0.1422 -0.1755
  112loPI   GL1 1781   0.161   9.720   9.395 -0.1903  0.0616  0.0224
  112loPI   GL2 1782  -0.215   9.570   9.327  0.2796  0.0556 -0.3233
  112loPI   C1A 1783   0.118  10.111   9.051  0.0681  0.0560  0.1435
  112loPI   C2A 1784   0.127  10.225   8.594  0.4182  0.0215 -0.0438
  112loPI   C3A 1785   0.242  10.513   8.237 -0.2386  0.2633  0.0013
  112loPI   C4A 1786   0.104  10.835   7.904 -0.0110  0.0842 -0.0394
  112loPI   C5A 1787  -0.072  11.184   7.743  0.0004 -0.0424  0.1066
  112loPI   C6A 1788   0.264  11.342   7.462 -0.1941 -0.1174 -0.0344
  112loPI   C1B 1789  -0.159   9.650   8.896  0.0260 -0.0638  0.2083
  112loPI   C2B 1790  -0.117   9.453   8.565 -0.0190 -0.1634 -0.0614
  112loPI   C3B 1791  -0.079   9.319   8.152  0.1486 -0.1676  0.0035
  112loPI   C4B 1792  -0.154   9.084   7.895  0.1172  0.2354 -0.4954
  113loPI    C1 1793  15.362   1.526  10.167 -0.0681  0.0136 -0.1226
  113loPI    C2 1794  15.251   1.649  10.531  0.3274 -0.0704  0.0318
  113loPI    C3 1795  15.165   1.277  10.410  0.1108 -0.0112 -0.0013
  113loPI   PO4 1796  15.372   1.726  10.000 -0.0539  0.2335 -0.0038
  113loPI   GL1 1797  15.595   1.955   9.818  0.3439  0.1053 -0.0485
  113loPI   GL2 1798  15.402   2.310   9.670  0.2836 -0.1712 -0.2702
  113loPI   C1A 1799  15.430   1.884   9.407  0.3128 -0.1871 -0.1100
  113loPI   C2A 1800  15.333   1.994   8.998 -0.2077 -0.0420 -0.1542
  113loPI   C3A 1801  15.160   2.205   8.605  0.0386 -0.0359 -0.2048
  113loPI   C4A 1802  14.898   2.403   8.397  0.1680 -0.0941 -0.0609
  113loPI   C5A 1803  14.694   2.809   8.458  0.1143 -0.0193 -0.1204
  113loPI   C6A 1804  14.619   3.209   8.135 -0.0265 -0.1550  0.1420
  113loPI   C1B 1805  15.602   2.295   9.242 -0.0042  0.3649 -0.0606
  113loPI   C2B 1806  15.593   2.443   8.720 -0.0013  0.0504 -0.3088
  113loPI   C3B 1807  15.244   2.705   8.515 -0.0942 -0.2901 -0.0237
  113loPI   C4B 1808  15.109   2.854   8.183 -0.1671  0.0636  0.2001
  114loPI    C1 1809  14.505   3.381  10.641 -0.0319  0.0242  0.0564
  114loPI    C2 1810  14.550   3.016  10.797 -0.1671 -0.0078  0.0225
  114loPI    C3 1811  14.871   3.240  10.715 -0.0835 -0.1212  0.0378
  114loPI   PO4 1812  14.260   3.304  10.464  0.1277  0.0113  0.2416
  114loPI   GL1 1813  14.153   3.397  10.090 -0.3648 -0.1781  0.1732
  114loPI   GL2 1814  14.296   3.136   9.933 -0.2319  0.0143 -0.0222
  114loPI   C1A 1815  14.336   3.734   9.736 -0.1108  0.0578 -0.3399
  114loPI   C2A 1816  14.619   3.774   9.401 -0.1013 -0.0997 -0.0780
  114loPI   C3A 1817  14.704   3.959   8.918 -0.5758 -0.2054 -0.0418
  114loPI   C4A 1818  14.523   4.228   8.662  0.1453 -0.0977 -0.0527
  114loPI   C5A 1819  14.428   4.235   8.250  0.0770 -0.0494  0.2589
  114loPI   C6A 1820  14.085   4.187   8.009 -0.3054 -0.1318 -0.3050
  114loPI   C1B 1821  14.206   2.786   9.623 -0.0466  0.2430  0.2498
  114loPI   C2B 1822  14.200   2.698   9.102  0.1028 -0.1888 -0.1802
  114loPI   C3B 1823  14.060   2.822   8.752 -0.0054  0.2044  0.1588
  114loPI   C4B 1824  14.170   2.777   8.302 -0.2740  0.1310 -0.0119
  115loPI    C1 1825   8.086   2.789  10.253 -0.1989  0.1325 -0.1859
  115loPI    C2 1826   7.782   2.909  10.483 -0.0044  0.0750  0.1068
  115loPI    C3 1827   7.812   2.525  10.375 -0.0670  0.0920  0.0276
  115loPI   PO4 1828   7.981   2.945  10.026 -0.2035 -0.3607  0.2922
  115loPI   GL1 1829   8.148   3.154   9.822 -0.0166 -0.1418 -0.2520
  115loPI   GL2 1830   8.275   3.419   9.808 -0.0224 -0.1474  0.2486
  115loPI   C1A 1831   8.001   3.319   9.417 -0.1634 -0.1849  0.3391
  115loPI   C2A 1832   8.040   3.355   8.995 -0.2447  0.1251 -0.2283
  115loPI   C3A 1833   8.188   3.151   8.523 -0.0138 -0.0206  0.1903
  115loPI   C4A 1834   8.418   3.086   8.129  0.2273 -0.0175  0.1422
  115loPI   C5A 1835   8.799   3.029   7.956 -0.1699 -0.1298 -0.2819
  115loPI   C6A 1836   8.845   2.788   7.622 -0.0294  0.0016 -0.4010
  115loPI   C1B 1837   8.547   3.282   9.451  0.1661 -0.4240 -0.0282
  115loPI   C2B 1838   8.620   3.203   9.063  0.0254 -0.1109 -0.0482
  115loPI   C3B 1839   8.813   3.320   8.670  0.0618 -0.1801  0.1282
  115loPI   C4B 1840   8.754   3.415   8.266 -0.1509 -0.0189  0.2089
  116loPI    C1 1841   7.843  12.560  10.163 -0.0497 -0.0882 -0.1279
  116loPI    C2 1842   7.516  12.784  10.107 -0.0590 -0.0188  0.1849
  116loPI    C3 1843   7.712  12.800  10.455  0.0554 -0.3501  0.1397
  116loPI   PO4 1844   7.843  12.356  10.006  0.1756  0.2258 -0.2450
  116loPI   GL1 1845   7.672  12.166   9.622  0.4150  0.3403  0.0423
  116loPI   GL2 1846   7.391  12.254   9.403 -0.2838 -0.2202 -0.1060
  116loPI   C1A 1847   8.023  12.162   9.342 -0.0591 -0.1441  0.1565
  116loPI   C2A 1848   8.094  12.132   8.937 -0.0729  0.0047  0.1592
  116loPI   C3A 1849   8.114  12.155   8.458  0.1669 -0.1595  0.3844
  116loPI   C4A 1850   8.481  12.200   8.230 -0.0243 -0.1495 -0.1646
  116loPI   C5A 1851   8.638  12.266   7.770  0.0657  0.1406  0.0572
  116loPI   C6A 1852   8.447  12.303   7.354  0.0452  0.1406  0.0281
  116loPI   C1B 1853   7.587  12.388   9.031  0.0066 -0.1541 -0.1753
  116loPI   C2B 1854   7.620  12.363   8.612  0.1294 -0.1533  0.0490
  116loPI   C3B 1855   7.652  12.278   8.227 -0.1764 -0.0218  0.0896
  116loPI   C4B 1856   7.720  12.223   7.814  0.1976 -0.0886 -0.0424
  117loPI    C1 1857  18.530   6.598  10.247  0.2016 -0.2353  0.1234
  117loPI    C2 1858  18.160   6.572  10.399  0.1954 -0.2932  0.0995
  117loPI    C3 1859  18.470   6.419  10.600  0.2052 -0.2541  0.1145
  117loPI   PO4 1860  18.505   6.715  10.040 -0.0701  0.0177 -0.1371
  117loPI   GL1 1861  18.255   6.725   9.750 -0.1502  0.0483 -0.1182
  117loPI   GL2 1862  18.242   6.411   9.759  0.1801 -0.2090  0.0954
  117loPI   C1A 1863  18.296   6.704   9.346  0.2580 -0.0554  0.2137
  117loPI   C2A 1864  18.473   6.750   8.973 -0.0081  0.2290  0.1764
  117loPI   C3A 1865  18.454   6.668   8.548  0.2758 -0.0795 -0.0278
  117loPI   C4A 1866  18.570   6.653   8.035  0.0946  0.3353 -0.0954
  117loPI   C5A 1867  18.914   6.727   7.744  0.1697  0.1819 -0.1154
  117loPI   C6A 1868  19.263   6.387   7.700 -0.2552  0.1422 -0.0212
  117loPI   C1B 1869  17.969   6.387   9.455  0.0829  0.1553 -0.4828
  117loPI   C2B 1870  17.666   6.644   9.451  0.1113  0.0408  0.2030
  117loPI   C3B 1871  17.253   6.737   9.341 -0.2015  0.1226  0.1073
  117loPI   C4B 1872  16.955   6.934   9.098  0.1142 -0.0820 -0.1075
  118loPI    C1 1873   6.808   1.022  10.007 -0.1826  0.0422 -0.1426
  118loPI    C2 1874   6.584   0.744  10.188  0.2117 -0.1877  0.0052
  118loPI    C3 1875   6.419   0.991   9.920 -0.2571 -0.2169  0.2565
  118loPI   PO4 1876   7.020   0.961   9.950 -0.2534  0.1423  0.1399
  118loPI   GL1 1877   7.433   0.909   9.749  0.0027  0.1222  0.0440
  118loPI   GL2 1878   7.609   1.157   9.598 -0.0212 -0.1873 -0.2983
  118loPI   C1A 1879   7.317   0.850   9.269  0.1394  0.0063  0.1607
  118loPI   C2A 1880   7.469   0.988   8.807 -0.2751 -0.0983  0.2666
  118loPI   C3A 1881   7.553   1.308   8.581 -0.0622  0.1358  0.0743
  118loPI   C4A 1882   7.838   1.326   8.209  0.2456 -0.0383  0.1765
  118loPI   C5A 1883   8.098   1.075   8.039 -0.2146 -0.0365  0.1171
  118loPI   C6A 1884   8.392   0.853   7.779  0.0005 -0.1005 -0.0338
  118loPI   C1B 1885   7.878   1.511   9.289 -0.1363  0.0049 -0.1135
  118loPI   C2B 1886   7.835   1.616   8.829 -0.2469  0.4045  0.0415
  118loPI   C3B 1887   7.972   1.779   8.511  0.1938  0.0050 -0.0202
  118loPI   C4B 1888   8.223   2.179   8.480  0.0377  0.2240 -0.1031
  119loPI    C1 1889   0.575  17.887   9.776 -0.1323  0.0692  0.1307
  119loPI    C2 1890   0.344  17.595   9.630  0.0158  0.0086  0.0153
  119loPI    C3 1891   0.574  17.527   9.950  0.2158 -0.0696 -0.1429
  119loPI   PO4 1892   0.424  18.118   9.816 -0.0978 -0.0581 -0.1670
  119loPI   GL1 1893   0.178  18.262   9.514  0.0184 -0.1092 -0.0173
  119loPI   GL2 1894   0.237  17.976   9.353  0.1088 -0.1890  0.0381
  119loPI   C1A 1895   0.079  18.364   9.117 -0.1206 -0.1238  0.1205
  119loPI   C2A 1896  -0.072  18.275   8.738 -0.0022  0.2007  0.2140
  119loPI   C3A 1897  -0.412  18.472   8.526 -0.0308  0.1082 -0.2494
  119loPI   C4A 1898  -0.690  18.371   8.236  0.0317 -0.1641 -0.0807
  119loPI   C5A 1899  -0.937  18.316   7.846 -0.1529 -0.0441 -0.0863
  119loPI   C6A 1900  -1.259  18.560   7.512  0.2679 -0.0907 -0.0612
  119loPI   C1B 1901   0.156  17.874   8.933 -0.2826 -0.2982  0.3185
  119loPI   C2B 1902   0.090  17.851   8.496  0.1512 -0.0226 -0.1287
  119loPI   C3B 1903   0.047  17.882   8.053 -0.1264  0.3420 -0.2909
  119loPI   C4B 1904   0.136  18.042   7.642 -0.2562 -0.2122 -0.0200
  120loPI    C1 1905   7.333  12.320   9.943  0.3080 -0.0476  0.0160
  120loPI    C2 1906   7.142  12.445  10.272 -0.3024  0.0963 -0.3773
  120loPI    C3 1907   7.114  12.062  10.157  0.1569 -0.0251 -0.1096
  120loPI   PO4 1908   7.221  12.564   9.754  0.1905 -0.0432 -0.0177
  120loPI   GL1 1909   7.115  12.725   9.312  0.1730  0.0216 -0.0861
  120loPI   GL2 1910   6.696  12.744   9.229  0.1186  0.2150  0.0635
  120loPI   C1A 1911   7.434  13.003   9.045  0.0465 -0.1556  0.2312
  120loPI   C2A 1912   7.658  12.915   8.504 -0.0226 -0.0665 -0.4311
  120loPI   C3A 1913   7.988  12.688   8.344 -0.2901 -0.1013  0.3068
  120loPI   C4A 1914   8.087  12.507   8.038 -0.0414  0.2490 -0.2294
  120loPI   C5A 1915   8.147  12.625   7.646 -0.0788  0.1908 -0.1160
  120loPI   C6A 1916   7.934  12.368   7.361 -0.1607 -0.0937 -0.1666
  120loPI   C1B 1917   6.803  12.417   9.013  0.0524 -0.0047  0.3211
  120loPI   C2B 1918   6.979  12.496   8.652  0.2332 -0.1236 -0.1055
  120loPI   C3B 1919   7.246  12.691   8.332 -0.0246  0.1233  0.2373
  120loPI   C4B 1920   7.587  12.726   8.018 -0.2368  0.4148  0.1249
  121loPI    C1 1921   3.891  17.947  10.158 -0.3276 -0.0738  0.2525
  121loPI    C2 1922   4.260  17.793  10.148 -0.3637 -0.1506  0.0628
  121loPI    C3 1923   4.162  18.059  10.430 -0.1010  0.0278 -0.0112
  121loPI   PO4 1924   3.883  17.906   9.818 -0.0914 -0.0179 -0.2571
  121loPI   GL1 1925   3.688  18.035   9.393  0.0242  0.3708  0.0907
  121loPI   GL2 1926   3.555  18.388   9.243 -0.1273  0.2779  0.3866
  121loPI   C1A 1927   3.945  17.928   9.000  0.2135 -0.1680  0.2503
  121loPI   C2A 1928   3.873  18.052   8.542 -0.0337 -0.3493 -0.0435
  121loPI   C3A 1929   4.029  18.206   8.078  0.0795 -0.1138 -0.3863
  121loPI   C4A 1930   3.953  18.471   7.773  0.0330  0.0651  0.0746
  121loPI   C5A 1931   3.875  18.438   7.361  0.1538  0.0809  0.1445
  121loPI   C6A 1932   3.435  18.302   7.120 -0.0602 -0.0017 -0.2252
  121loPI   C1B 1933   3.512  18.149   8.879 -0.0291 -0.0555 -0.0198
  121loPI   C2B 1934   3.384  18.098   8.464  0.0475  0.0076 -0.0771
  121loPI   C3B 1935   3.176  17.908   8.010 -0.0476  0.1349  0.1697
  121loPI   C4B 1936   3.562  17.900   7.762 -0.0122  0.1797  0.2478
  122loPI    C1 1937  10.506  17.516  10.366  0.1568  0.0332  0.3640
  122loPI    C2 1938  10.453  17.872  10.190 -0.2841 -0.1749  0.0563
  122loPI    C3 1939  10.471  17.847  10.589  0.1428  0.2326  0.0723
  122loPI   PO4 1940  10.707  17.480  10.257 -0.4170  0.3582  0.2562
  122loPI   GL1 1941  10.963  17.566   9.898 -0.0081 -0.1181  0.0148
  122loPI   GL2 1942  10.750  17.790   9.773 -0.0926  0.0597  0.0031
  122loPI   C1A 1943  11.190  17.383   9.533  0.0551  0.0771 -0.0130
  122loPI   C2A 1944  11.469  17.137   9.165 -0.3027  0.1128 -0.0534
  122loPI   C3A 1945  11.597  17.006   8.803  0.2334  0.0705  0.1853
  122loPI   C4A 1946  11.756  17.298   8.436 -0.1650  0.3012  0.0929
  122loPI   C5A 1947  12.177  17.480   8.059  0.3743  0.1677  0.1109
  122loPI   C6A 1948  12.521  17.267   8.053  0.2431  0.0418  0.2824
  122loPI   C1B 1949  10.925  18.078   9.557 -0.3174  0.2595  0.1339
  122loPI   C2B 1950  10.950  18.234   9.166  0.0601 -0.1447  0.0048
  122loPI   C3B 1951  11.182  18.342   8.756  0.0226 -0.1085  0.1593
  122loPI   C4B 1952  11.204  18.396   8.359  0.1324  0.1465 -0.2811
  123loPI    C1 1953  14.841  15.249  10.636  0.0684 -0.1557  0.0909
  123loPI    C2 1954  15.153  15.205  10.883  0.1143  0.0443  0.0705
  123loPI    C3 1955  14.781  15.196  11.028  0.1418  0.1783  0.1512
  123loPI   PO4 1956  15.022  15.310  10.381  0.1372 -0.0348  0.1459
  123loPI   GL1 1957  15.202  15.646  10.185 -0.0621 -0.2499  0.1402
  123loPI   GL2 1958  15.017  15.821  10.206  0.3456 -0.0613  0.1676
  123loPI   C1A 1959  15.199  15.835   9.718  0.1569 -0.0153 -0.0739
  123loPI   C2A 1960  15.263  16.122   9.352 -0.2144  0.3061 -0.0287
  123loPI   C3A 1961  15.280  16.578   9.395 -0.1498  0.0705  0.2337
  123loPI   C4A 1962  15.391  16.896   9.258  0.3365  0.0987 -0.3646
  123loPI   C5A 1963  15.342  17.176   8.990 -0.1857 -0.1232  0.3180
  123loPI   C6A 1964  15.216  17.391   8.575  0.1083 -0.1090  0.1058
  123loPI   C1B 1965  15.105  16.199  10.164  0.2234 -0.0144 -0.2545
  123loPI   C2B 1966  15.078  16.437   9.833 -0.1955 -0.0771  0.1429
  123loPI   C3B 1967  14.992  16.830   9.717 -0.1878  0.1432 -0.0262
  123loPI   C4B 1968  14.898  17.268   9.979  0.3049 -0.3673  0.0387
  124loPI    C1 1969   1.949   8.929  10.303 -0.0548  0.1552 -0.2165
  124loPI    C2 1970   1.743   9.160  10.556 -0.0475 -0.0517 -0.0177
  124loPI    C3 1971   2.142   9.188  10.540 -0.0428 -0.0838  0.0409
  124loPI   PO4 1972   1.801   8.785  10.140  0.3755 -0.0015 -0.1130
  124loPI   GL1 1973   1.772   8.977   9.701 -0.0941  0.1681  0.0132
  124loPI   GL2 1974   1.970   8.700   9.663 -0.1393  0.1841 -0.1124
  124loPI   C1A 1975   1.745   9.306   9.302 -0.0881 -0.1313  0.3343
  124loPI   C2A 1976   1.737   9.730   9.178  0.3205  0.2583 -0.3048
  124loPI   C3A 1977   1.483   9.750   8.822  0.1579  0.0963 -0.0596
  124loPI   C4A 1978   1.416   9.831   8.335 -0.3319  0.2098  0.3953
  124loPI   C5A 1979   1.372   9.746   7.901  0.2386 -0.3118 -0.3954
  124loPI   C6A 1980   1.147   9.877   7.525  0.1891 -0.0102 -0.0258
  124loPI   C1B 1981   2.037   8.567   9.287  0.0929 -0.1020  0.2529
  124loPI   C2B 1982   2.241   8.473   8.822 -0.0042  0.0220  0.3005
  124loPI   C3B 1983   2.441   8.296   8.498  0.1146  0.0022  0.2345
  124loPI   C4B 1984   2.456   8.344   8.019  0.1154 -0.3529  0.2081
  125loPI    C1 1985  17.038   2.623  10.518  0.1558  0.2214 -0.1680
  125loPI    C2 1986  16.773   2.917  10.459 -0.0053  0.1267  0.0666
  125loPI    C3 1987  16.726   2.664  10.765  0.1060 -0.1724 -0.1585
  125loPI   PO4 1988  17.041   2.527  10.206 -0.3240 -0.2566  0.1395
  125loPI   GL1 1989  17.068   2.483   9.751 -0.0658  0.0969 -0.0261
  125loPI   GL2 1990  17.204   2.821   9.726 -0.1289  0.2146 -0.1540
  125loPI   C1A 1991  17.150   2.403   9.399  0.0738 -0.0225 -0.1274
  125loPI   C2A 1992  17.403   2.503   9.128 -0.2492  0.1989 -0.2193
  125loPI   C3A 1993  17.339   2.443   8.694 -0.1727 -0.2166  0.4447
  125loPI   C4A 1994  17.148   2.552   8.354 -0.2179 -0.0769 -0.0712
  125loPI   C5A 1995  17.018   2.923   8.218  0.1781  0.2625 -0.1995
  125loPI   C6A 1996  16.808   3.243   8.103  0.1013  0.3615  0.0598
  125loPI   C1B 1997  17.400   2.962   9.275  0.1503  0.4597 -0.1061
  125loPI   C2B 1998  17.227   3.129   8.891 -0.0268 -0.1088 -0.3231
  125loPI   C3B 1999  17.192   3.294   8.447  0.0266 -0.1642 -0.1968
  125loPI   C4B 2000  17.295   3.392   8.086 -0.1012  0.2973  0.2408
  126loPI    C1 2001  15.148  14.285  10.341  0.3284  0.0462  0.0857
  126loPI    C2 2002  14.833  14.398  10.561 -0.0869 -0.1754 -0.3746
  126loPI    C3 2003  15.079  14.113  10.695  0.0307  0.1244  0.0690
  126loPI   PO4 2004  15.061  14.322  10.073 -0.0904 -0.2101  0.0194
  126loPI   GL1 2005  15.003  14.291   9.634 -0.1266 -0.1410 -0.1942
  126loPI   GL2 2006  14.743  14.532   9.603 -0.3105 -0.0266 -0.2925
  126loPI   C1A 2007  14.929  14.223   9.175  0.1511 -0.5010 -0.1861
  126loPI   C2A 2008  14.909  14.184   8.732  0.0373  0.2258  0.1435
  126loPI   C3A 2009  15.136  14.385   8.364  0.0830  0.1572  0.1180
  126loPI   C4A 2010  15.175  14.344   7.919  0.0011  0.2958  0.2198
  126loPI   C5A 2011  15.010  14.080   7.730  0.1598 -0.1316  0.0200
  126loPI   C6A 2012  14.714  13.785   7.901 -0.4522 -0.5013  0.0336
  126loPI   C1B 2013  14.756  14.808   9.218  0.0913  0.2981  0.1101
  126loPI   C2B 2014  14.438  14.904   9.049 -0.2349  0.1593 -0.1834
  126loPI   C3B 2015  14.149  15.170   8.809  0.0626  0.0087 -0.0849
  126loPI   C4B 2016  13.875  15.147   8.416  0.1044 -0.1605 -0.1996
  127loPI    C1 2017  17.569   5.945  10.679  0.1177 -0.1426 -0.0607
  127loPI    C2 2018  17.226   6.140  10.610  0.1377 -0.1063 -0.0581
  127loPI    C3 2019  17.390   6.146  10.975  0.1924 -0.0417 -0.0834
  127loPI   PO4 2020  17.735   5.980  10.353  0.0608 -0.0440 -0.1497
  127loPI   GL1 2021  17.858   6.037   9.865  0.1566  0.0947 -0.1991
  127loPI   GL2 2022  17.915   5.632  10.033 -0.0725 -0.0093  0.2894
  127loPI   C1A 2023  17.524   6.194   9.646  0.0942 -0.1141  0.1135
  127loPI   C2A 2024  17.270   6.160   9.235  0.0705  0.0892 -0.0052
  127loPI   C3A 2025  17.288   6.027   8.837 -0.1027  0.0915  0.0008
  127loPI   C4A 2026  17.536   5.810   8.599  0.0509  0.0586 -0.1113
  127loPI   C5A 2027  17.864   6.005   8.160  0.2918 -0.0183  0.0905
  127loPI   C6A 2028  17.989   6.091   7.716  0.2520  0.2279 -0.0193
  127loPI   C1B 2029  17.592   5.674   9.677 -0.2135 -0.2137 -0.0233
  127loPI   C2B 2030  17.317   5.680   9.307 -0.2338 -0.1014 -0.0314
  127loPI   C3B 2031  16.993   5.377   9.260 -0.1372  0.0640 -0.1285
  127loPI   C4B 2032  16.856   5.152   9.009 -0.0996 -0.3192 -0.1251
  128loPI    C1 2033   9.029  17.415  10.459 -0.0222  0.0479 -0.0983
  128loPI    C2 2034   8.730  17.656  10.347 -0.2353 -0.1381  0.0608
  128loPI    C3 2035   8.940  17.738  10.678 -0.1712 -0.0590  0.0010
  128loPI   PO4 2036   9.119  17.340  10.259  0.1421  0.0223 -0.2204
  128loPI   GL1 2037   9.070  17.469   9.939 -0.0981 -0.2613  0.0085
  128loPI   GL2 2038   8.752  17.302   9.923 -0.0687  0.0750 -0.3165
  128loPI   C1A 2039   9.196  17.681   9.625  0.2613  0.0944  0.2983
  128loPI   C2A 2040   9.256  17.833   9.250 -0.4648 -0.0662  0.0052
  128loPI   C3A 2041   9.625  17.867   8.947  0.0123  0.0375  0.4879
  128loPI   C4A 2042   9.988  17.893   8.648 -0.2633  0.1869  0.6176
  128loPI   C5A 2043  10.384  17.825   8.455  0.0798 -0.0419  0.0360
  128loPI   C6A 2044  10.595  17.909   8.110  0.0622 -0.0784 -0.0541
  128loPI   C1B 2045   8.645  17.174   9.558  0.2927  0.1708 -0.2528
  128loPI   C2B 2046   8.834  17.122   9.136 -0.0633 -0.1909  0.5033
  128loPI   C3B 2047   8.893  16.925   8.722  0.0056  0.0958  0.3090
  128loPI   C4B 2048   8.787  16.876   8.286 -0.1111  0.2459  0.0102
  129loPI    C1 2049  16.210  14.801  10.405  0.1752  0.0021 -0.2043
  129loPI    C2 2050  16.505  14.766  10.674 -0.1368 -0.0985  0.1327
  129loPI    C3 2051  16.272  15.091  10.674 -0.0076 -0.0029 -0.1555
  129loPI   PO4 2052  16.261  14.765  10.171 -0.0709 -0.0080 -0.3342
  129loPI   GL1 2053  15.936  14.583   9.904 -0.0462  0.2954 -0.2488
  129loPI   GL2 2054  16.095  14.755   9.715 -0.0617  0.1644 -0.2056
  129loPI   C1A 2055  15.871  14.242   9.559 -0.0739 -0.1442 -0.3808
  129loPI   C2A 2056  15.870  14.139   9.154  0.3918 -0.2768  0.0880
  129loPI   C3A 2057  15.701  13.934   8.742  0.0101  0.1110  0.2154
  129loPI   C4A 2058  15.520  13.958   8.301  0.0032 -0.0369  0.0418
  129loPI   C5A 2059  15.577  13.617   8.147 -0.0268  0.2315  0.1048
  129loPI   C6A 2060  15.588  13.161   8.022  0.2698 -0.0294 -0.0273
  129loPI   C1B 2061  15.808  14.609   9.265  0.0655 -0.1845 -0.0550
  129loPI   C2B 2062  15.621  14.794   8.881  0.0804 -0.1502 -0.0117
  129loPI   C3B 2063  15.480  14.942   8.575  0.0506 -0.3184  0.0958
  129loPI   C4B 2064  15.121  14.948   8.336 -0.0349  0.1814 -0.0327
  130loPI    C1 2065   8.598   2.542  10.329 -0.0348  0.0498  0.1190
  130loPI    C2 2066   8.283   2.296  10.302  0.2246 -0.2740 -0.0317
  130loPI    C3 2067   8.518   2.286  10.626  0.0178  0.0504  0.1337
  130loPI   PO4 2068   8.674   2.557  10.136 -0.1794  0.4770  0.2146
  130loPI   GL1 2069   8.470   2.393   9.826  0.0124  0.0394  0.1278
  130loPI   GL2 2070   8.333   2.659   9.784 -0.1182  0.1090  0.0791
  130loPI   C1A 2071   8.403   2.048   9.540 -0.0353 -0.1608  0.2266
  130loPI   C2A 2072   8.306   1.713   9.378 -0.5230  0.1865 -0.0867
  130loPI   C3A 2073   8.252   1.462   9.006  0.0173 -0.0482 -0.0403
  130loPI   C4A 2074   8.234   1.342   8.595  0.0161  0.0524  0.0272
  130loPI   C5A 2075   8.235   1.583   8.182  0.2636  0.3194 -0.1808
  130loPI   C6A 2076   8.149   1.552   7.837  0.0001  0.1043  0.0476
  130loPI   C1B 2077   8.220   2.901   9.314  0.1934 -0.1502 -0.0141
  130loPI   C2B 2078   7.854   2.826   9.062  0.1353  0.2077 -0.3841
  130loPI   C3B 2079   7.892   2.740   8.671  0.2782  0.1636 -0.1271
  130loPI   C4B 2080   7.806   2.408   8.392  0.2061 -0.1010  0.0639
  131loPI    C1 2081   0.393   4.747  10.279 -0.1485  0.0963 -0.1267
  131loPI    C2 2082   0.599   5.085  10.339 -0.0857  0.0533 -0.0992
  131loPI    C3 2083   0.454   4.882  10.651 -0.2165  0.1120 -0.1210
  131loPI   PO4 2084   0.237   4.833   9.976  0.0342 -0.0017 -0.2674
  131loPI   GL1 2085  -0.081   4.992   9.711  0.0599 -0.0149 -0.0140
  131loPI   GL2 2086  -0.063   5.237   9.589  0.1272  0.1638  0.2121
  131loPI   C1A 2087  -0.110   4.829   9.272  0.4039  0.4008  0.2018
  131loPI   C2A 2088   0.054   4.708   8.855  0.2622 -0.1151 -0.1553
  131loPI   C3A 2089  -0.042   4.543   8.399 -0.1515  0.0730 -0.1612
  131loPI   C4A 2090  -0.130   4.819   7.967  0.0786  0.2243  0.0943
  131loPI   C5A 2091  -0.015   4.963   7.566  0.1172 -0.0058 -0.2978
  131loPI   C6A 2092  -0.395   4.995   7.280  0.5470 -0.0746 -0.0968
  131loPI   C1B 2093  -0.217   5.299   9.085 -0.0833 -0.1145  0.1700
  131loPI   C2B 2094  -0.358   5.418   8.773  0.5019  0.0899  0.2334
  131loPI   C3B 2095  -0.459   5.453   8.399  0.0361 -0.2102  0.1430
  131loPI   C4B 2096  -0.579   5.658   8.016  0.1162  0.1739  0.8033
  132loPI    C1 2097   6.650  15.353   9.693  0.0732  0.0241 -0.2537
  132loPI    C2 2098   6.586  15.654   9.949 -0.2880 -0.0758 -0.2205
  132loPI    C3 2099   6.808  15.340  10.060  0.0395  0.1461 -0.2344
  132loPI   PO4 2100   6.671  15.477   9.438  0.1094  0.2851 -0.0751
  132loPI   GL1 2101   6.849  15.565   9.113 -0.1869  0.0447  0.4835
  132loPI   GL2 2102   6.821  15.892   9.036  0.0777 -0.2134 -0.2690
  132loPI   C1A 2103   6.886  15.584   8.615  0.1279  0.1654 -0.0649
  132loPI   C2A 2104   6.722  15.567   8.208  0.1392  0.0937  0.0051
  132loPI   C3A 2105   6.869  15.423   7.788 -0.3159 -0.1634  0.2816
  132loPI   C4A 2106   6.897  15.463   7.338 -0.1093 -0.0779 -0.1228
  132loPI   C5A 2107   7.251  15.448   7.066 -0.3485  0.3179 -0.1820
  132loPI   C6A 2108   7.328  15.734   6.801  0.0460  0.0343 -0.0190
  132loPI   C1B 2109   6.953  16.070   8.633  0.3734  0.1420  0.2014
  132loPI   C2B 2110   6.982  16.086   8.212  0.1347 -0.1040  0.3529
  132loPI   C3B 2111   6.964  15.989   7.762  0.1926  0.2744  0.2881
  132loPI   C4B 2112   6.600  15.846   7.489  0.0636  0.0450  0.2031
  133loPI    C1 2113  16.467   0.737  10.610 -0.1291 -0.1553 -0.0859
  133loPI    C2 2114  16.340   0.440  10.846  0.0324 -0.0989  0.0739
  133loPI    C3 2115  16.389   0.808  10.996 -0.1015 -0.0055 -0.1073
  133loPI   PO4 2116  16.350   0.734  10.374  0.2791  0.0618  0.0201
  133loPI   GL1 2117  16.135   0.334   9.980 -0.2241 -0.1431  0.0864
  133loPI   GL2 2118  15.896   0.466   9.882  0.2195 -0.0938  0.2097
  133loPI   C1A 2119  16.341   0.083   9.743  0.2553  0.0533  0.0231
  133loPI   C2A 2120  16.410   0.061   9.295 -0.0533  0.1485 -0.1362
  133loPI   C3A 2121  16.312   0.205   8.883 -0.0481 -0.1644  0.1629
  133loPI   C4A 2122  16.186  -0.097   8.575 -0.0508  0.2018  0.2184
  133loPI   C5A 2123  16.245  -0.538   8.391  0.0391  0.1684  0.1755
  133loPI   C6A 2124  16.069  -0.809   8.119 -0.1049 -0.3116 -0.3419
  133loPI   C1B 2125  15.960   0.337   9.421  0.1581 -0.0673 -0.1387
  133loPI   C2B 2126  15.860   0.299   8.996  0.1556 -0.0562 -0.1639
  133loPI   C3B 2127  15.976   0.347   8.568  0.0610  0.1437  0.4168
  133loPI   C4B 2128  15.907   0.308   8.121 -0.0120 -0.0069  0.1924
  134loPI    C1 2129   3.691   3.923   9.838 -0.1586 -0.0951 -0.0465
  134loPI    C2 2130   3.730   3.678  10.152 -0.1030  0.0718  0.0787
  134loPI    C3 2131   3.436   3.949  10.145 -0.2342 -0.0729 -0.1111
  134loPI   PO4 2132   3.662   3.874   9.569  0.1268  0.0639 -0.1956
  134loPI   GL1 2133   3.651   3.629   9.257 -0.2644 -0.0287 -0.0741
  134loPI   GL2 2134   3.780   3.822   9.022 -0.2711 -0.0700 -0.0633
  134loPI   C1A 2135   3.572   3.330   8.919 -0.0474 -0.2469  0.0116
  134loPI   C2A 2136   3.745   3.224   8.584 -0.0381  0.0025 -0.3696
  134loPI   C3A 2137   3.759   3.386   8.254 -0.0190  0.0826 -0.1698
  134loPI   C4A 2138   3.637   3.487   7.814 -0.0480 -0.0866  0.3302
  134loPI   C5A 2139   3.836   3.492   7.499 -0.1871 -0.0009 -0.1344
  134loPI   C6A 2140   4.130   3.716   7.268  0.3385 -0.3243 -0.5127
  134loPI   C1B 2141   3.665   3.777   8.596 -0.1053  0.0669 -0.0212
  134loPI   C2B 2142   3.406   3.741   8.261  0.1326  0.1917  0.2303
  134loPI   C3B 2143   3.226   3.842   7.908  0.0033  0.0215  0.2120
  134loPI   C4B 2144   2.985   4.021   7.497  0.0239 -0.2932  0.2195
  135loPI    C1 2145  17.307  16.659  10.482  0.0919  0.0390 -0.0881
  135loPI    C2 2146  16.948  16.604  10.651  0.1474  0.0615  0.0385
  135loPI    C3 2147  17.275  16.448  10.821  0.2030  0.0762 -0.0540
  135loPI   PO4 2148  17.249  16.622  10.189 -0.0496  0.0024 -0.2009
  135loPI   GL1 2149  17.078  16.823   9.849 -0.2210  0.0965 -0.1359
  135loPI   GL2 2150  16.810  16.904   9.703 -0.0352  0.0238 -0.1481
  135loPI   C1A 2151  16.938  16.496   9.462 -0.1707  0.0012 -0.0310
  135loPI   C2A 2152  16.838  16.468   8.992  0.3864  0.4063  0.4043
  135loPI   C3A 2153  16.663  16.364   8.642  0.0681 -0.0263  0.1441
  135loPI   C4A 2154  16.510  16.412   8.170  0.0696 -0.0192 -0.2323
  135loPI   C5A 2155  16.129  16.282   8.016 -0.0105 -0.3082 -0.1718
  135loPI   C6A 2156  16.081  16.174   7.581  0.1131 -0.1562 -0.0828
  135loPI   C1B 2157  16.734  16.916   9.158  0.0789  0.0532  0.0585
  135loPI   C2B 2158  16.652  16.846   8.714 -0.2551  0.0189 -0.0631
  135loPI   C3B 2159  16.479  16.909   8.283 -0.2494 -0.4525 -0.3683
  135loPI   C4B 2160  16.717  17.028   7.904  0.0604 -0.0747  0.1282
  136loPI    C1 2161   9.585  15.109   9.966  0.0918  0.4036  0.0089
  136loPI    C2 2162   9.845  15.289  10.211  0.0816  0.0780  0.2667
  136loPI    C3 2163   9.514  15.121  10.359  0.0995 -0.1677  0.0371
  136loPI   PO4 2164   9.679  14.823   9.845  0.3141 -0.1408 -0.0195
  136loPI   GL1 2165   9.644  14.795   9.491 -0.0376  0.0865  0.3086
  136loPI   GL2 2166   9.414  14.936   9.253  0.1536 -0.1116  0.4319
  136loPI   C1A 2167   9.848  14.749   9.048 -0.1331  0.0594  0.1811
  136loPI   C2A 2168   9.856  14.824   8.540 -0.3994  0.0965 -0.0693
  136loPI   C3A 2169   9.826  14.991   8.121 -0.1037 -0.1521 -0.3656
  136loPI   C4A 2170   9.717  14.860   7.749  0.2592  0.0294 -0.0904
  136loPI   C5A 2171   9.530  14.852   7.322  0.0231 -0.2561  0.1486
  136loPI   C6A 2172   9.147  14.849   7.098  0.1775  0.1036 -0.2633
  136loPI   C1B 2173   9.434  14.927   8.827 -0.0362  0.2001 -0.3353
  136loPI   C2B 2174   9.448  15.178   8.445 -0.2347  0.0436  0.1387
  136loPI   C3B 2175   9.588  15.601   8.285 -0.1451 -0.1072  0.1450
  136loPI   C4B 2176   9.441  15.706   7.818  0.0734 -0.0435  0.2849
  137loPI    C1 2177  13.746   2.755  10.499  0.2296 -0.0689 -0.3590
  137loPI    C2 2178  13.854   2.977  10.185 -0.0071  0.2221 -0.2399
  137loPI    C3 2179  13.804   3.148  10.542  0.0039 -0.0614 -0.0997
  137loPI   PO4 2180  13.819   2.541  10.385 -0.1669  0.1993 -0.1491
  137loPI   GL1 2181  13.541   2.202  10.047  0.1766 -0.0727 -0.3841
  137loPI   GL2 2182  13.850   2.391   9.869  0.2130  0.1957 -0.2786
  137loPI   C1A 2183  13.467   2.050   9.643 -0.0601  0.0310 -0.0210
  137loPI   C2A 2184  13.590   2.075   9.276 -0.0226 -0.1579  0.3242
  137loPI   C3A 2185  13.627   2.174   8.753  0.0595  0.2926 -0.3192
  137loPI   C4A 2186  13.459   2.177   8.358 -0.0084 -0.0536 -0.1822
  137loPI   C5A 2187  12.996   2.303   8.351  0.3121  0.0453 -0.0049
  137loPI   C6A 2188  12.535   2.427   8.145  0.0386  0.0280 -0.2768
  137loPI   C1B 2189  13.960   2.391   9.497 -0.0916  0.3828 -0.1660
  137loPI   C2B 2190  14.006   2.228   9.038  0.2850  0.1328  0.1475
  137loPI   C3B 2191  14.158   1.970   8.702 -0.0805 -0.2597 -0.1446
  137loPI   C4B 2192  13.910   1.892   8.446 -0.2758 -0.2675  0.0380
  138loPI    C1 2193   5.236  15.227   9.851 -0.1488  0.1793 -0.0136
  138loPI    C2 2194   4.856  15.236   9.975 -0.1061  0.1332  0.1228
  138loPI    C3 2195   5.139  15.425  10.184 -0.0173 -0.0300  0.1518
  138loPI   PO4 2196   5.179  15.162   9.551  0.3879  0.1817 -0.2664
  138loPI   GL1 2197   5.438  15.320   9.184  0.1008 -0.0650  0.0459
  138loPI   GL2 2198   5.484  14.967   9.117 -0.3766 -0.1086 -0.1054
  138loPI   C1A 2199   5.473  15.481   8.813 -0.1605  0.0775 -0.1913
  138loPI   C2A 2200   5.376  15.612   8.447 -0.3246 -0.1766 -0.2154
  138loPI   C3A 2201   5.270  15.569   7.928 -0.3193 -0.0563  0.0243
  138loPI   C4A 2202   5.352  15.456   7.501  0.2184  0.1092  0.0870
  138loPI   C5A 2203   5.732  15.438   7.187  0.1777 -0.0513 -0.0418
  138loPI   C6A 2204   6.032  15.132   6.836 -0.0206 -0.0375  0.0672
  138loPI   C1B 2205   5.473  15.006   8.692  0.0649  0.1980  0.1836
  138loPI   C2B 2206   5.466  15.074   8.261 -0.1740 -0.0379 -0.0181
  138loPI   C3B 2207   5.561  15.102   7.794  0.0151 -0.1780  0.1268
  138loPI   C4B 2208   5.861  15.083   7.476 -0.1613 -0.1485  0.0819
  139loPI    C1 2209  17.907   4.654  10.176 -0.1369  0.2164  0.0133
  139loPI    C2 2210  17.825   4.371  10.447  0.1027  0.1590  0.0286
  139loPI    C3 2211  17.984   4.719  10.564 -0.2798  0.3420  0.0217
  139loPI   PO4 2212  18.001   4.424   9.948 -0.1037 -0.0486  0.1261
  139loPI   GL1 2213  18.255   4.175   9.569 -0.2671  0.0770  0.2515
  139loPI   GL2 2214  18.442   4.329   9.342 -0.0019  0.0497 -0.0916
  139loPI   C1A 2215  17.914   4.288   9.312 -0.2204  0.5061  0.1548
  139loPI   C2A 2216  17.903   4.415   8.917  0.2835  0.2058 -0.2555
  139loPI   C3A 2217  17.900   4.813   8.596 -0.2207 -0.1575  0.1560
  139loPI   C4A 2218  18.115   5.064   8.220 -0.1034 -0.4961 -0.0007
  139loPI   C5A 2219  18.296   5.118   7.799 -0.0812 -0.4269  0.1360
  139loPI   C6A 2220  18.567   5.394   7.640  0.1696  0.0217 -0.0633
  139loPI   C1B 2221  18.430   4.382   8.921 -0.1017 -0.0095  0.1360
  139loPI   C2B 2222  18.262   4.462   8.516  0.1509  0.1374  0.0231
  139loPI   C3B 2223  18.175   4.586   7.999  0.1985  0.0799 -0.3615
  139loPI   C4B 2224  18.218   4.623   7.544 -0.2341  0.1274  0.1360
  140loPI    C1 2225  11.434  13.795   9.801  0.1988  0.0555 -0.1594
  140loPI    C2 2226  11.688  13.741  10.105  0.0758 -0.2155 -0.1020
  140loPI    C3 2227  11.829  13.795   9.735  0.2207 -0.1493 -0.0380
  140loPI   PO4 2228  11.321  13.630   9.819 -0.3210  0.0701  0.4010
  140loPI   GL1 2229  11.218  13.358   9.514  0.4137  0.1735  0.0612
  140loPI   GL2 2230  10.993  13.605   9.444 -0.1822 -0.1501  0.1024
  140loPI   C1A 2231  11.299  13.445   9.052 -0.1660 -0.1224  0.1915
  140loPI   C2A 2232  11.248  13.338   8.648 -0.1704 -0.1360 -0.1114
  140loPI   C3A 2233  11.303  13.546   8.271  0.0866 -0.1868 -0.2338
  140loPI   C4A 2234  11.171  13.411   7.792  0.0085  0.0860 -0.4894
  140loPI   C5A 2235  10.982  13.011   7.667  0.0576  0.0149 -0.1455
  140loPI   C6A 2236  10.602  12.895   7.745  0.0609  0.3870  0.2137
  140loPI   C1B 2237  10.891  13.630   9.001  0.2885 -0.4757  0.1388
  140loPI   C2B 2238  10.829  13.571   8.534  0.2301 -0.0955  0.0527
  140loPI   C3B 2239  10.634  13.529   8.084  0.1368 -0.2636  0.3250
  140loPI   C4B 2240  10.443  13.833   7.718 -0.0206  0.2796 -0.4181
  141loPI    C1 2241   7.555   0.219  10.248 -0.0311  0.0152 -0.0145
  141loPI    C2 2242   7.600   0.504   9.972 -0.0451  0.0583  0.0276
  141loPI    C3 2243   7.598   0.601  10.360 -0.0011 -0.0051  0.0438
  141loPI   PO4 2244   7.419   0.057  10.092 -0.1140  0.3191  0.0124
  141loPI   GL1 2245   7.362   0.130   9.608  0.1947  0.0409 -0.0883
  141loPI   GL2 2246   7.171  -0.062   9.711  0.2788  0.0146  0.1103
  141loPI   C1A 2247   7.523   0.437   9.441 -0.1626  0.1681  0.4480
  141loPI   C2A 2248   7.567   0.521   9.008  0.0473 -0.0366  0.1959
  141loPI   C3A 2249   7.658   0.475   8.587  0.0158  0.1855  0.0403
  141loPI   C4A 2250   7.514   0.370   8.280  0.1565 -0.2357 -0.0230
  141loPI   C5A 2251   7.212   0.226   8.114  0.1482 -0.1594  0.0150
  141loPI   C6A 2252   7.190  -0.276   7.865 -0.0105  0.0556  0.0535
  141loPI   C1B 2253   6.871  -0.090   9.296  0.2708  0.0315 -0.0477
  141loPI   C2B 2254   6.820  -0.117   8.799 -0.0885 -0.1311  0.0908
  141loPI   C3B 2255   6.704  -0.034   8.341  0.1084  0.1250 -0.2503
  141loPI   C4B 2256   6.751   0.144   7.907  0.2521  0.1786  0.1038
  142loPI    C1 2257  16.162   3.907  10.330  0.0042 -0.0904 -0.0358
  142loPI    C2 2258  16.129   3.546  10.499  0.1606 -0.0771  0.0249
  142loPI    C3 2259  15.973   3.866  10.680 -0.0457 -0.1245 -0.0667
  142loPI   PO4 2260  16.149   3.942  10.152  0.2365 -0.1800  0.2371
  142loPI   GL1 2261  16.135   3.847   9.806 -0.1030  0.1496  0.1871
  142loPI   GL2 2262  16.213   3.614   9.505 -0.1762 -0.0528 -0.0982
  142loPI   C1A 2263  16.006   3.973   9.300  0.0095  0.0737  0.0204
  142loPI   C2A 2264  16.292   4.203   8.919 -0.1558  0.1197 -0.4759
  142loPI   C3A 2265  16.317   4.113   8.525 -0.0686  0.0090 -0.2434
  142loPI   C4A 2266  16.382   4.010   8.163 -0.0083 -0.0951 -0.0416
  142loPI   C5A 2267  16.696   4.243   7.903 -0.2918 -0.1607 -0.1696
  142loPI   C6A 2268  16.957   4.417   7.633 -0.0277 -0.2136 -0.1994
  142loPI   C1B 2269  16.359   3.682   9.033 -0.2507 -0.5150 -0.2923
  142loPI   C2B 2270  16.614   3.607   8.594 -0.2432  0.1332  0.1402
  142loPI   C3B 2271  16.436   3.544   8.133  0.0302  0.3457  0.3631
  142loPI   C4B 2272  16.096   3.523   7.789 -0.0549  0.2521 -0.0242
  143loPI    C1 2273   8.069   0.494  10.141  0.0525  0.0049 -0.0596
  143loPI    C2 2274   8.310   0.280  10.378 -0.0104 -0.0127 -0.0110
  143loPI    C3 2275   8.025   0.097  10.166 -0.0520  0.0206  0.0159
  143loPI   PO4 2276   8.336   0.675  10.055 -0.0278  0.0675 -0.1346
  143loPI   GL1 2277   8.577   0.713   9.762 -0.1077 -0.1682 -0.0924
  143loPI   GL2 2278   8.713   0.388   9.742  0.1184  0.0224 -0.1395
  143loPI   C1A 2279   8.520   0.754   9.353  0.0099  0.1165  0.2649
  143loPI   C2A 2280   8.375   0.941   8.972  0.1826 -0.1898 -0.0588
  143loPI   C3A 2281   8.571   0.934   8.595 -0.0328 -0.2345 -0.0305
  143loPI   C4A 2282   8.574   1.186   8.234 -0.1029  0.0216  0.1166
  143loPI   C5A 2283   8.773   1.585   8.120  0.0194  0.2037  0.1117
  143loPI   C6A 2284   8.612   2.042   8.145 -0.2008  0.0901  0.0534
  143loPI   C1B 2285   8.705   0.302   9.331  0.1580 -0.1101  0.0782
  143loPI   C2B 2286   8.756   0.452   8.852  0.0676  0.1666  0.3520
  143loPI   C3B 2287   8.900   0.549   8.550 -0.2942 -0.1792  0.0749
  143loPI   C4B 2288   8.890   0.592   8.160  0.1118  0.1146  0.0972
  144loPI    C1 2289  18.626   5.736  10.149 -0.1579  0.3055  0.2228
  144loPI    C2 2290  18.927   5.724  10.412  0.1108  0.1004 -0.0857
  144loPI    C3 2291  18.667   6.028  10.418  0.1006  0.0893  0.4236
  144loPI   PO4 2292  18.751   5.701   9.928 -0.1484  0.3120  0.1920
  144loPI   GL1 2293  19.042   6.019   9.628  0.1293 -0.1225 -0.1402
  144loPI   GL2 2294  18.799   6.009   9.504 -0.0219  0.1425  0.2429
  144loPI   C1A 2295  19.241   6.039   9.154 -0.1962  0.1209 -0.1476
  144loPI   C2A 2296  19.085   5.908   8.722 -0.1224  0.0942  0.2159
  144loPI   C3A 2297  18.889   5.778   8.316 -0.2942  0.1610  0.0620
  144loPI   C4A 2298  18.794   5.706   7.967  0.0196  0.4098  0.1731
  144loPI   C5A 2299  18.520   6.060   7.751 -0.0738  0.0585 -0.2174
  144loPI   C6A 2300  18.356   6.452   7.664 -0.0918 -0.2045  0.0298
  144loPI   C1B 2301  18.452   6.148   9.268  0.0529 -0.0215  0.0247
  144loPI   C2B 2302  18.241   6.212   8.958  0.1294  0.3682 -0.2097
  144loPI   C3B 2303  18.129   6.340   8.586  0.0758  0.4014  0.0121
  144loPI   C4B 2304  18.076   6.490   8.095  0.1197  0.0775 -0.1525
  145loPI    C1 2305  17.777  11.013  10.090  0.1283  0.1363  0.0601
  145loPI    C2 2306  17.455  11.062  10.322  0.1965  0.0811  0.1678
  145loPI    C3 2307  17.772  11.302  10.367  0.1753  0.1281  0.0698
  145loPI   PO4 2308  17.618  10.947   9.838  0.0884 -0.1422  0.0316
  145loPI   GL1 2309  17.657  11.054   9.409  0.3192 -0.3235  0.0246
  145loPI   GL2 2310  17.900  11.003   9.186 -0.1190 -0.0456  0.2298
  145loPI   C1A 2311  17.498  11.260   9.004  0.1424 -0.0995 -0.0680
  145loPI   C2A 2312  17.391  11.202   8.529 -0.4242 -0.0057  0.0928
  145loPI   C3A 2313  17.105  10.977   8.151  0.0379 -0.2005 -0.0975
  145loPI   C4A 2314  16.849  11.105   7.889 -0.1595 -0.0363 -0.0384
  145loPI   C5A 2315  16.768  11.424   7.567  0.1068  0.1280 -0.3975
  145loPI   C6A 2316  16.766  11.817   7.307 -0.0655 -0.1958  0.0450
  145loPI   C1B 2317  17.716  10.841   8.874 -0.0892 -0.1134 -0.3729
  145loPI   C2B 2318  17.631  10.794   8.378 -0.0135 -0.0672  0.0680
  145loPI   C3B 2319  17.476  10.678   8.073 -0.3328 -0.1402  0.0171
  145loPI   C4B 2320  17.109  10.543   7.937 -0.0992 -0.1430 -0.4318
  146loPI    C1 2321  15.956  11.619  10.038 -0.0514 -0.1808 -0.3694
  146loPI    C2 2322  15.917  11.490  10.414 -0.1137  0.1680 -0.2524
  146loPI    C3 2323  16.206  11.341  10.181  0.1215  0.1705  0.0316
  146loPI   PO4 2324  15.715  11.568   9.859  0.2673  0.2568 -0.2692
  146loPI   GL1 2325  15.490  11.257   9.601  0.1004 -0.0121  0.0032
  146loPI   GL2 2326  15.753  11.217   9.544 -0.3308  0.0763  0.1044
  146loPI   C1A 2327  15.451  11.561   9.294 -0.3482 -0.0634  0.1046
  146loPI   C2A 2328  15.534  11.761   8.919  0.0439 -0.1744 -0.0354
  146loPI   C3A 2329  15.612  11.695   8.409 -0.0563 -0.1570 -0.1911
  146loPI   C4A 2330  15.672  11.591   8.075 -0.2085  0.3724  0.0928
  146loPI   C5A 2331  15.883  11.373   7.734  0.0009  0.0283 -0.0492
  146loPI   C6A 2332  16.133  11.134   7.465  0.1354 -0.2246 -0.1339
  146loPI   C1B 2333  15.766  11.265   9.066 -0.1317  0.1830  0.2109
  146loPI   C2B 2334  15.721  11.221   8.595 -0.0682 -0.0156 -0.0675
  146loPI   C3B 2335  15.708  11.066   8.181  0.0138 -0.2761 -0.2505
  146loPI   C4B 2336  15.838  10.780   7.750 -0.2541  0.0149 -0.2534
  147loPI    C1 2337  13.811   7.806  10.447 -0.1019 -0.1256  0.1261
  147loPI    C2 2338  13.881   7.498  10.693  0.0570 -0.2472 -0.0673
  147loPI    C3 2339  14.099   7.833  10.724  0.0538 -0.2492 -0.0213
  147loPI   PO4 2340  13.557   7.748  10.397 -0.0040 -0.0445 -0.3509
  147loPI   GL1 2341  13.271   7.795  10.064  0.0443 -0.2878 -0.0077
  147loPI   GL2 2342  13.467   7.554   9.876 -0.1764  0.5101  0.2118
  147loPI   C1A 2343  13.214   8.084   9.818  0.1572 -0.1038 -0.1368
  147loPI   C2A 2344  13.393   8.327   9.510 -0.1613 -0.1305 -0.0150
  147loPI   C3A 2345  13.343   8.276   9.103 -0.1387  0.0672 -0.2318
  147loPI   C4A 2346  13.284   8.168   8.727  0.0824 -0.3584  0.1547
  147loPI   C5A 2347  13.036   8.399   8.292 -0.1171 -0.0144  0.2952
  147loPI   C6A 2348  12.791   8.511   7.898 -0.1262 -0.0186  0.2192
  147loPI   C1B 2349  13.304   7.770   9.458 -0.1660 -0.0334  0.2569
  147loPI   C2B 2350  12.998   7.905   9.324 -0.0014 -0.1604 -0.2213
  147loPI   C3B 2351  12.605   7.941   9.124 -0.0555 -0.1083  0.3377
  147loPI   C4B 2352  12.229   7.863   9.002  0.5806  0.0723 -0.1607
  148loPI    C1 2353   3.158   0.827   9.900  0.0537 -0.0042 -0.0231
  148loPI    C2 2354   3.223   0.498  10.117 -0.0261  0.0502  0.0845
  148loPI    C3 2355   3.171   0.850  10.299 -0.0677  0.1006 -0.0243
  148loPI   PO4 2356   3.303   0.832   9.702 -0.1111  0.2249 -0.1134
  148loPI   GL1 2357   3.215   0.710   9.328 -0.2200 -0.0911  0.1806
  148loPI   GL2 2358   3.015   0.481   9.242  0.1793 -0.0451 -0.2099
  148loPI   C1A 2359   3.280   0.804   8.900  0.4026 -0.1060  0.0796
  148loPI   C2A 2360   3.178   0.773   8.498 -0.2813 -0.1820 -0.0216
  148loPI   C3A 2361   3.023   0.835   8.036  0.1339 -0.2425  0.4266
  148loPI   C4A 2362   2.954   0.833   7.564 -0.0728  0.0554 -0.2673
  148loPI   C5A 2363   2.805   0.719   7.316  0.0693  0.0880  0.1781
  148loPI   C6A 2364   2.773   0.323   7.153  0.0507 -0.2139  0.1044
  148loPI   C1B 2365   3.211   0.292   8.807 -0.0996 -0.3162 -0.2231
  148loPI   C2B 2366   3.499   0.218   8.460 -0.0350 -0.3897 -0.3292
  148loPI   C3B 2367   3.568   0.138   7.927  0.4312  0.0465  0.0197
  148loPI   C4B 2368   3.704   0.321   7.648  0.0947 -0.1885 -0.3725
  149loPI    C1 2369   8.313  17.905  10.269  0.1685  0.1587  0.1032
  149loPI    C2 2370   8.356  17.832  10.660  0.1412  0.3033  0.1338
  149loPI    C3 2371   8.116  18.127  10.537 -0.0108  0.1263 -0.0002
  149loPI   PO4 2372   8.278  17.612  10.159 -0.2586 -0.0376 -0.0211
  149loPI   GL1 2373   8.287  17.402   9.735 -0.0684 -0.2424 -0.3112
  149loPI   GL2 2374   8.090  17.659   9.692 -0.1284 -0.1059  0.2098
  149loPI   C1A 2375   8.543  17.679   9.526  0.0336 -0.1122  0.2723
  149loPI   C2A 2376   8.827  17.587   9.258  0.1464  0.1365 -0.0815
  149loPI   C3A 2377   8.957  17.504   8.869 -0.2323 -0.0182  0.2736
  149loPI   C4A 2378   9.017  17.314   8.442 -0.0302 -0.1269  0.3384
  149loPI   C5A 2379   9.028  17.212   8.052 -0.1717  0.0702 -0.1703
  149loPI   C6A 2380   8.938  17.090   7.623  0.0234 -0.3412 -0.1263
  149loPI   C1B 2381   8.140  17.846   9.334 -0.4166  0.1031 -0.2703
  149loPI   C2B 2382   8.442  17.892   9.054  0.1146  0.0792  0.2025
  149loPI   C3B 2383   8.541  17.863   8.695 -0.0373  0.2731 -0.1656
  149loPI   C4B 2384   8.854  17.775   8.403  0.0113 -0.1706 -0.0698
  150loPI    C1 2385   2.970  18.705  10.076  0.2787 -0.1492  0.1946
  150loPI    C2 2386   2.802  18.977  10.316  0.0001 -0.1262 -0.0215
  150loPI    C3 2387   2.767  18.588  10.399  0.1482 -0.1088  0.1280
  150loPI   PO4 2388   2.945  18.645   9.834  0.0284 -0.0773 -0.0453
  150loPI   GL1 2389   2.824  18.775   9.441  0.0180 -0.4104 -0.3224
  150loPI   GL2 2390   3.135  18.744   9.229  0.0643 -0.1361 -0.0346
  150loPI   C1A 2391   2.710  18.953   9.098  0.1739  0.1246  0.0438
  150loPI   C2A 2392   2.731  19.043   8.609 -0.1040 -0.0231  0.0947
  150loPI   C3A 2393   3.038  19.151   8.228 -0.0101 -0.1393  0.1472
  150loPI   C4A 2394   3.161  19.150   7.763 -0.0158 -0.1937 -0.4382
  150loPI   C5A 2395   3.305  19.176   7.286 -0.0998  0.0719 -0.0243
  150loPI   C6A 2396   3.510  18.846   7.086  0.1060 -0.1103 -0.0346
  150loPI   C1B 2397   3.169  18.528   8.820 -0.2193 -0.0642 -0.0764
  150loPI   C2B 2398   3.210  18.629   8.384 -0.0685 -0.3607  0.3882
  150loPI   C3B 2399   2.987  18.729   7.974 -0.0211 -0.0746  0.1597
  150loPI   C4B 2400   3.046  18.302   7.664 -0.1671  0.1974  0.0835
  151loPI    C1 2401  16.823   5.601  10.057 -0.1292 -0.0352 -0.2481
  151loPI    C2 2402  17.014   5.462  10.380 -0.3475 -0.1830 -0.1806
  151loPI    C3 2403  16.827   5.815  10.394  0.2633  0.1625 -0.3718
  151loPI   PO4 2404  16.669   5.374   9.946 -0.1553  0.0676  0.2437
  151loPI   GL1 2405  16.574   5.263   9.582 -0.2395 -0.0239 -0.2017
  151loPI   GL2 2406  16.728   4.962   9.488 -0.1986  0.0515 -0.1169
  151loPI   C1A 2407  16.447   5.420   9.199 -0.2792 -0.2951  0.3759
  151loPI   C2A 2408  16.513   5.554   8.863  0.3173 -0.1108 -0.0964
  151loPI   C3A 2409  16.585   5.782   8.542 -0.0230 -0.1531 -0.0474
  151loPI   C4A 2410  16.305   6.060   8.198  0.0318 -0.0764  0.3012
  151loPI   C5A 2411  16.108   6.209   8.013 -0.0974 -0.0633  0.2720
  151loPI   C6A 2412  15.566   6.165   7.885  0.0985  0.0210  0.2113
  151loPI   C1B 2413  16.368   4.966   9.227  0.1795 -0.1702 -0.0212
  151loPI   C2B 2414  16.443   5.041   8.734  0.2507 -0.1424 -0.0976
  151loPI   C3B 2415  16.699   5.291   8.438 -0.2594  0.2956  0.1621
  151loPI   C4B 2416  17.133   5.200   8.328 -0.0495 -0.0160 -0.0339
  152loPI    C1 2417  12.076  11.283  10.247 -0.4513 -0.4875  0.0222
  152loPI    C2 2418  12.287  11.224  10.582 -0.2956  0.0595  0.0298
  152loPI    C3 2419  11.946  11.434  10.594 -0.4183 -0.1275 -0.1181
  152loPI   PO4 2420  12.324  11.147  10.026  0.0673 -0.1838  0.1146
  152loPI   GL1 2421  12.338  11.218   9.598 -0.0711  0.0666 -0.0855
  152loPI   GL2 2422  12.632  11.000   9.652 -0.0781  0.1453 -0.5305
  152loPI   C1A 2423  12.568  11.533   9.337  0.4239  0.1221  0.1898
  152loPI   C2A 2424  12.689  11.521   8.919  0.0630 -0.1272 -0.1835
  152loPI   C3A 2425  13.084  11.649   8.638 -0.0319 -0.0072 -0.0266
  152loPI   C4A 2426  13.108  11.560   8.194 -0.0515  0.1066  0.1735
  152loPI   C5A 2427  13.088  11.526   7.674  0.2309 -0.1654 -0.2399
  152loPI   C6A 2428  13.059  11.828   7.397  0.2665  0.0986  0.2649
  152loPI   C1B 2429  12.540  11.015   9.150  0.2520 -0.0352  0.2220
  152loPI   C2B 2430  12.484  11.020   8.680 -0.1217  0.0350  0.1551
  152loPI   C3B 2431  12.641  10.963   8.284  0.1923  0.1204 -0.1308
  152loPI   C4B 2432  12.577  10.607   8.064 -0.2202  0.2424 -0.2695
  153loPI    C1 2433   9.649  13.289   9.898  0.0684 -0.0488  0.0311
  153loPI    C2 2434   9.741  13.221  10.282  0.0861 -0.0108  0.0337
  153loPI    C3 2435   9.450  13.011  10.105  0.1006 -0.0517  0.0582
  153loPI   PO4 2436   9.723  13.574   9.857 -0.4664 -0.1866  0.1335
  153loPI   GL1 2437   9.712  13.763   9.434  0.1361 -0.2405 -0.0488
  153loPI   GL2 2438   9.573  13.996   9.478  0.0433 -0.0722 -0.2477
  153loPI   C1A 2439   9.636  13.682   8.966 -0.1905  0.2743  0.1735
  153loPI   C2A 2440   9.515  13.633   8.616 -0.1193 -0.1118 -0.0181
  153loPI   C3A 2441   9.832  13.499   8.435 -0.2792  0.0323 -0.0830
  153loPI   C4A 2442  10.177  13.529   8.058 -0.1646 -0.0651 -0.1383
  153loPI   C5A 2443  10.336  13.319   7.743  0.1790 -0.0031  0.0385
  153loPI   C6A 2444  10.342  13.407   7.310  0.0733  0.0593 -0.1217
  153loPI   C1B 2445   9.803  14.141   9.083 -0.1033  0.0548 -0.0731
  153loPI   C2B 2446   9.783  14.093   8.639 -0.1514 -0.3271 -0.0897
  153loPI   C3B 2447   9.781  13.996   8.204 -0.2392  0.1027 -0.0046
  153loPI   C4B 2448  10.007  13.931   7.865 -0.1005  0.1384  0.2115
  154loPI    C1 2449  17.090  17.211  10.192  0.3719 -0.0028  0.0361
  154loPI    C2 2450  16.963  17.475  10.465 -0.0364 -0.2189  0.0641
  154loPI    C3 2451  17.109  17.121  10.581  0.0768 -0.1907  0.0102
  154loPI   PO4 2452  16.974  17.349   9.977 -0.0315  0.0057  0.1677
  154loPI   GL1 2453  16.804  17.460   9.588  0.2235 -0.1312 -0.2053
  154loPI   GL2 2454  16.608  17.304   9.564 -0.0338 -0.1270  0.2155
  154loPI   C1A 2455  17.011  17.540   9.233  0.1427  0.0355  0.0420
  154loPI   C2A 2456  17.032  17.296   8.833  0.3903 -0.0430  0.1152
  154loPI   C3A 2457  17.040  17.181   8.475  0.1443  0.1534  0.2520
  154loPI   C4A 2458  17.097  17.303   7.998 -0.2432  0.0752  0.1716
  154loPI   C5A 2459  17.251  17.234   7.548 -0.0095  0.0657  0.2964
  154loPI   C6A 2460  17.250  17.155   7.130 -0.1645 -0.1063 -0.3164
  154loPI   C1B 2461  16.302  17.195   9.368 -0.0717  0.3773  0.0523
  154loPI   C2B 2462  16.093  17.446   9.032 -0.2543  0.0397 -0.0557
  154loPI   C3B 2463  15.766  17.590   8.820  0.0793 -0.3226  0.0350
  154loPI   C4B 2464  15.563  17.771   8.481  0.0474  0.3364 -0.1135
  155loPI    C1 2465  15.312  13.811  10.338 -0.2228  0.1749  0.0697
  155loPI    C2 2466  15.274  13.489  10.572 -0.0336  0.0705 -0.0411
  155loPI    C3 2467  14.948  13.687  10.449 -0.1413  0.0336  0.1809
  155loPI   PO4 2468  15.432  13.722  10.149  0.0547 -0.1274  0.3177
  155loPI   GL1 2469  15.324  13.599   9.780  0.1744 -0.1961 -0.2524
  155loPI   GL2 2470  15.375  13.950   9.685  0.2405 -0.2269 -0.1011
  155loPI   C1A 2471  15.602  13.422   9.547 -0.1533 -0.3769  0.1857
  155loPI   C2A 2472  15.636  13.416   9.104  0.2486 -0.0698  0.1036
  155loPI   C3A 2473  15.446  13.289   8.727  0.1188  0.2151  0.1007
  155loPI   C4A 2474  15.234  13.284   8.337  0.2518  0.0796 -0.0393
  155loPI   C5A 2475  15.117  13.407   7.966 -0.0097  0.1667 -0.1883
  155loPI   C6A 2476  15.129  13.600   7.548 -0.1623 -0.0731 -0.1274
  155loPI   C1B 2477  15.369  14.077   9.275 -0.2026  0.0374  0.0576
  155loPI   C2B 2478  15.389  14.306   8.896 -0.0188 -0.1484 -0.1674
  155loPI   C3B 2479  15.581  14.381   8.580 -0.0448  0.2178 -0.1051
  155loPI   C4B 2480  15.520  14.593   8.147  0.1498 -0.1467 -0.0034
  156loPI    C1 2481   5.167  14.392   9.870 -0.1967  0.0193 -0.2321
  156loPI    C2 2482   4.956  14.730   9.902  0.0325  0.1310  0.1644
  156loPI    C3 2483   4.971  14.474  10.209  0.1483 -0.0695 -0.0062
  156loPI   PO4 2484   5.129  14.329   9.600 -0.0014 -0.1184 -0.0774
  156loPI   GL1 2485   4.866  14.567   9.374 -0.3418 -0.1409  0.4459
  156loPI   GL2 2486   5.054  14.816   9.214 -0.3829  0.2114 -0.0208
  156loPI   C1A 2487   4.638  14.523   9.002 -0.0822  0.1849  0.4067
  156loPI   C2A 2488   4.670  14.440   8.459 -0.2620  0.0547  0.0047
  156loPI   C3A 2489   4.480  14.400   8.014  0.0779  0.0013  0.0340
  156loPI   C4A 2490   4.607  14.580   7.558  0.1999 -0.2732  0.0740
  156loPI   C5A 2491   4.779  14.768   7.139  0.2322 -0.2406 -0.2604
  156loPI   C6A 2492   4.825  14.875   6.769 -0.2015 -0.0626  0.2229
  156loPI   C1B 2493   5.061  14.727   8.838 -0.1181  0.4319 -0.0337
  156loPI   C2B 2494   5.066  14.809   8.432  0.0280 -0.1455  0.2272
  156loPI   C3B 2495   5.106  14.763   8.043  0.1678 -0.0348  0.0268
  156loPI   C4B 2496   5.056  15.058   7.827  0.3164 -0.1869 -0.3241
  157loPI    C1 2497  13.551   0.909  10.932 -0.0663  0.0739  0.1543
  157loPI    C2 2498  13.558   0.520  11.025 -0.0001  0.0788  0.1701
  157loPI    C3 2499  13.392   0.783  11.277 -0.1069  0.0522  0.1277
  157loPI   PO4 2500  13.590   0.852  10.636 -0.1978 -0.0667 -0.2108
  157loPI   GL1 2501  13.250   0.661  10.367 -0.3077 -0.0107  0.0295
  157loPI   GL2 2502  13.113   0.765  10.148  0.3008 -0.1130 -0.0849
  157loPI   C1A 2503  13.442   0.372  10.018  0.1316 -0.3531  0.2697
  157loPI   C2A 2504  13.337   0.425   9.644 -0.2311 -0.2239 -0.4401
  157loPI   C3A 2505  13.098   0.420   9.318  0.2574  0.2234  0.4168
  157loPI   C4A 2506  13.243   0.263   8.932  0.1864  0.0740  0.0551
  157loPI   C5A 2507  13.361   0.222   8.488  0.0107 -0.1338  0.1014
  157loPI   C6A 2508  13.409   0.513   8.209 -0.0364  0.1492 -0.1428
  157loPI   C1B 2509  13.001   0.824   9.834 -0.3470 -0.1958  0.2661
  157loPI   C2B 2510  13.195   0.980   9.497  0.1950  0.3083 -0.0115
  157loPI   C3B 2511  13.414   1.125   9.232 -0.1268 -0.1459  0.3235
  157loPI   C4B 2512  13.674   1.183   8.949 -0.1350  0.3969  0.3036
  158loPI    C1 2513   2.972   1.274   9.804  0.1151  0.0526 -0.1437
  158loPI    C2 2514   2.935   1.376  10.189  0.0859 -0.0370 -0.1225
  158loPI    C3 2515   3.299   1.328  10.028  0.1015  0.1817 -0.1546
  158loPI   PO4 2516   2.663   1.483   9.663  0.3692 -0.1369 -0.2851
  158loPI   GL1 2517   2.707   1.639   9.263  0.1137 -0.0418  0.2170
  158loPI   GL2 2518   2.389   1.671   9.098 -0.1933 -0.2590 -0.2031
  158loPI   C1A 2519   2.897   1.860   8.840 -0.0304 -0.0423 -0.1054
  158loPI   C2A 2520   2.983   1.944   8.401  0.1740 -0.3719 -0.2380
  158loPI   C3A 2521   2.887   1.855   8.093 -0.0127 -0.1954  0.0081
  158loPI   C4A 2522   2.605   1.912   7.731 -0.0910 -0.0004 -0.0296
  158loPI   C5A 2523   2.453   2.093   7.277 -0.2143 -0.2631  0.1172
  158loPI   C6A 2524   2.577   1.922   6.876 -0.3180 -0.1773  0.1677
  158loPI   C1B 2525   2.422   1.668   8.650 -0.2355  0.3022 -0.0767
  158loPI   C2B 2526   2.456   1.622   8.230  0.0352 -0.1434 -0.2590
  158loPI   C3B 2527   2.273   1.546   7.734  0.4105 -0.0091  0.1524
  158loPI   C4B 2528   2.074   1.697   7.410  0.1485 -0.2877 -0.0604
  159loPI    C1 2529  10.359  11.720  10.197 -0.1484  0.1977  0.0581
  159loPI    C2 2530  10.182  11.420  10.393 -0.3088  0.2280 -0.0377
  159loPI    C3 2531  10.474  11.630  10.569 -0.3264  0.1384  0.0999
  159loPI   PO4 2532  10.194  11.945  10.179  0.2135 -0.1190  0.0397
  159loPI   GL1 2533  10.294  11.942   9.726  0.1209  0.1531  0.1242
  159loPI   GL2 2534  10.533  11.743   9.643  0.1245 -0.1849  0.2869
  159loPI   C1A 2535  10.395  12.099   9.282  0.0021  0.0279  0.0448
  159loPI   C2A 2536  10.554  12.091   8.809 -0.2901  0.1287 -0.0423
  159loPI   C3A 2537  10.528  12.138   8.343 -0.0690  0.0071  0.2852
  159loPI   C4A 2538  10.390  11.870   8.057 -0.5665 -0.1525  0.0047
  159loPI   C5A 2539  10.467  11.449   7.837 -0.3475 -0.2273  0.0034
  159loPI   C6A 2540  10.785  11.275   7.455 -0.0943 -0.1277 -0.0455
  159loPI   C1B 2541  10.692  11.715   9.162 -0.1017  0.1196 -0.0999
  159loPI   C2B 2542  10.635  11.608   8.799  0.0488 -0.1787 -0.1746
  159loPI   C3B 2543  10.690  11.681   8.413 -0.0598  0.3237  0.0121
  159loPI   C4B 2544  11.003  11.568   8.073 -0.0554  0.1221  0.0099
  160loPI    C1 2545  12.615   2.111  10.731  0.1291 -0.2872 -0.0016
  160loPI    C2 2546  12.968   2.292  10.782 -0.0137 -0.0182  0.0511
  160loPI    C3 2547  12.655   2.395  11.010 -0.2104 -0.0248 -0.2110
  160loPI   PO4 2548  12.613   2.051  10.497 -0.0243  0.2223  0.0050
  160loPI   GL1 2549  12.727   1.970  10.016  0.4798  0.2356 -0.0241
  160loPI   GL2 2550  12.817   2.289   9.966  0.1725 -0.2170  0.0762
  160loPI   C1A 2551  12.550   1.907   9.689 -0.2926 -0.0572  0.1355
  160loPI   C2A 2552  12.864   1.653   9.404 -0.0898 -0.1181 -0.0505
  160loPI   C3A 2553  13.206   1.592   9.136  0.2028 -0.0401  0.1605
  160loPI   C4A 2554  13.197   1.311   8.744  0.2773  0.1502 -0.1058
  160loPI   C5A 2555  12.884   1.280   8.418 -0.0262 -0.0451  0.1602
  160loPI   C6A 2556  12.814   0.856   8.349 -0.5119  0.1842 -0.4252
  160loPI   C1B 2557  12.985   2.182   9.539  0.0026  0.1586 -0.2996
  160loPI   C2B 2558  13.217   2.322   9.105 -0.1043 -0.1786  0.0381
  160loPI   C3B 2559  13.251   2.559   8.744 -0.3041 -0.0247  0.1730
  160loPI   C4B 2560  13.655   2.607   8.359  0.3236  0.2776  0.0181
  161loPI    C1 2561  15.301   0.330  10.712 -0.1356 -0.0161 -0.0644
  161loPI    C2 2562  15.004   0.471  10.940 -0.0086  0.0941  0.0347
  161loPI    C3 2563  15.287   0.239  11.101  0.1108  0.2156  0.0026
  161loPI   PO4 2564  15.121   0.428  10.432  0.1452  0.1771  0.3014
  161loPI   GL1 2565  15.072   0.125   9.943  0.0072 -0.2274  0.2519
  161loPI   GL2 2566  15.089   0.466   9.828  0.0525  0.2357 -0.0320
  161loPI   C1A 2567  15.143  -0.061   9.475 -0.0376  0.1418  0.0487
  161loPI   C2A 2568  15.020  -0.217   9.046  0.2821 -0.2402 -0.0702
  161loPI   C3A 2569  15.273  -0.388   8.752 -0.1290 -0.1687  0.1517
  161loPI   C4A 2570  15.335  -0.611   8.406  0.2365 -0.4037 -0.1306
  161loPI   C5A 2571  15.044  -0.654   8.012  0.3144  0.3687 -0.3552
  161loPI   C6A 2572  14.726  -0.312   7.932 -0.1481  0.0390 -0.0297
  161loPI   C1B 2573  14.926   0.392   9.401  0.1232 -0.0958 -0.1171
  161loPI   C2B 2574  15.094   0.336   9.077  0.1905 -0.1802 -0.2173
  161loPI   C3B 2575  15.304   0.478   8.751 -0.2124  0.2014  0.4061
  161loPI   C4B 2576  15.474   0.297   8.369 -0.0533  0.1767 -0.0974
  162loPI    C1 2577   1.309   6.593  10.320 -0.0083  0.2318 -0.0540
  162loPI    C2 2578   0.955   6.463  10.454 -0.0303  0.2085 -0.1339
  162loPI    C3 2579   1.041   6.853  10.462  0.0049  0.1980  0.0331
  162loPI   PO4 2580   1.282   6.428  10.021 -0.3682  0.1829 -0.2130
  162loPI   GL1 2581   1.360   6.314   9.552  0.0555 -0.3395  0.3188
  162loPI   GL2 2582   1.455   6.616   9.520  0.0827 -0.0247 -0.0496
  162loPI   C1A 2583   1.015   6.201   9.346 -0.1560  0.0869 -0.0372
  162loPI   C2A 2584   1.162   5.980   8.995 -0.0894 -0.0123 -0.1059
  162loPI   C3A 2585   1.114   5.879   8.468  0.2204  0.2227 -0.0446
  162loPI   C4A 2586   0.921   5.955   8.048 -0.0184  0.0060 -0.1902
  162loPI   C5A 2587   0.723   5.637   7.725 -0.1027 -0.0826  0.0739
  162loPI   C6A 2588   0.875   5.239   7.798 -0.1377 -0.2515 -0.0533
  162loPI   C1B 2589   1.251   6.556   9.091 -0.1204  0.1677  0.2074
  162loPI   C2B 2590   1.165   6.482   8.622  0.0646  0.0659 -0.4202
  162loPI   C3B 2591   0.942   6.516   8.148 -0.1235  0.1515  0.0172
  162loPI   C4B 2592   1.036   6.365   7.765  0.0390 -0.4130  0.1639
  163loPI    C1 2593  11.399   4.372  10.043  0.2861  0.0582  0.0466
  163loPI    C2 2594  11.521   4.126  10.333 -0.3048 -0.2018  0.0900
  163loPI    C3 2595  11.321   4.459  10.425 -0.0509 -0.0213 -0.0005
  163loPI   PO4 2596  11.211   4.267   9.876  0.0580  0.1215 -0.3595
  163loPI   GL1 2597  11.231   3.922   9.552  0.1443  0.0363  0.2289
  163loPI   GL2 2598  10.929   3.955   9.638 -0.1562  0.0266 -0.0838
  163loPI   C1A 2599  11.358   3.883   9.159  0.2671  0.0093  0.0420
  163loPI   C2A 2600  11.106   3.926   8.831 -0.0532 -0.0893  0.3414
  163loPI   C3A 2601  10.936   4.069   8.467  0.0327 -0.1042 -0.1018
  163loPI   C4A 2602  11.124   4.242   8.092 -0.2496  0.2096  0.0261
  163loPI   C5A 2603  11.226   4.588   7.867 -0.1533 -0.0576 -0.2327
  163loPI   C6A 2604  11.586   4.811   7.742 -0.1255  0.0392 -0.0139
  163loPI   C1B 2605  10.861   4.104   9.229  0.3249  0.1023 -0.1358
  163loPI   C2B 2606  10.601   4.083   8.923  0.0401 -0.2079  0.2517
  163loPI   C3B 2607  10.380   4.249   8.506 -0.0463 -0.0812 -0.3279
  163loPI   C4B 2608  10.361   4.621   8.258  0.3813  0.0233  0.0486
  164loPI    C1 2609  12.998  17.392  11.012 -0.0984 -0.1855 -0.0168
  164loPI    C2 2610  12.999  17.753  11.185 -0.0243 -0.1462 -0.0977
  164loPI    C3 2611  13.054  17.424  11.406  0.1270 -0.0927 -0.0549
  164loPI   PO4 2612  13.156  17.512  10.801  0.0185 -0.0992  0.0833
  164loPI   GL1 2613  13.318  17.811  10.490  0.2080  0.0386  0.0888
  164loPI   GL2 2614  13.101  17.512  10.286 -0.2218  0.2123 -0.0610
  164loPI   C1A 2615  13.610  17.583  10.210 -0.0559  0.3163 -0.0343
  164loPI   C2A 2616  13.908  17.493   9.866 -0.1026  0.3535 -0.1887
  164loPI   C3A 2617  14.094  17.471   9.445  0.1427  0.0473 -0.2012
  164loPI   C4A 2618  13.932  17.640   9.026  0.0304 -0.2518  0.0870
  164loPI   C5A 2619  13.870  17.812   8.567 -0.3601 -0.1443 -0.1667
  164loPI   C6A 2620  13.816  17.959   8.189 -0.2459  0.0071  0.2102
  164loPI   C1B 2621  13.180  17.796   9.913 -0.1513  0.0218  0.3180
  164loPI   C2B 2622  13.155  17.656   9.397  0.0782  0.0695  0.2104
  164loPI   C3B 2623  13.073  17.761   8.927 -0.0096 -0.0822  0.0738
  164loPI   C4B 2624  13.062  17.768   8.497  0.6306 -0.5188  0.0332
  165loPI    C1 2625   2.411  18.569   9.762  0.0179 -0.1851 -0.3265
  165loPI    C2 2626   2.444  18.308  10.063 -0.0162 -0.2206 -0.3536
  165loPI    C3 2627   2.274  18.664  10.126  0.1411 -0.1568 -0.2870
  165loPI   PO4 2628   2.321  18.365   9.550  0.0187 -0.0308 -0.2552
  165loPI   GL1 2629   2.195  18.438   9.132  0.3034  0.0214 -0.1732
  165loPI   GL2 2630   2.229  18.765   9.291 -0.0328 -0.0365  0.0440
  165loPI   C1A 2631   2.196  18.456   8.653 -0.0070  0.0806 -0.0112
  165loPI   C2A 2632   2.284  18.364   8.297  0.2307 -0.2067 -0.1622
  165loPI   C3A 2633   2.289  18.492   7.789 -0.1161  0.1994  0.0690
  165loPI   C4A 2634   2.621  18.602   7.472  0.0542 -0.0377  0.0501
  165loPI   C5A 2635   2.988  18.747   7.438 -0.0627  0.4338 -0.0833
  165loPI   C6A 2636   3.379  18.689   7.525  0.0336 -0.0103 -0.0426
  165loPI   C1B 2637   2.288  18.853   8.888  0.0653  0.1253  0.0661
  165loPI   C2B 2638   2.229  18.974   8.475 -0.2833 -0.1977 -0.2317
  165loPI   C3B 2639   2.548  18.763   8.165  0.1651  0.2667  0.1023
  165loPI   C4B 2640   2.590  19.067   7.666  0.2714  0.1139 -0.1821
  166loPI    C1 2641  17.842   3.522  10.112  0.0839 -0.0003 -0.1656
  166loPI    C2 2642  18.098   3.345  10.363  0.1052 -0.0262 -0.2055
  166loPI    C3 2643  17.714   3.233  10.358  0.0196  0.2407  0.0888
  166loPI   PO4 2644  17.909   3.432   9.845 -0.2331  0.1638 -0.1094
  166loPI   GL1 2645  18.076   3.321   9.473 -0.0630  0.0709 -0.2984
  166loPI   GL2 2646  17.771   3.227   9.406 -0.0560  0.4702 -0.1164
  166loPI   C1A 2647  18.441   3.357   9.399  0.2823  0.4391  0.0795
  166loPI   C2A 2648  18.477   3.333   8.936  0.2376  0.2479 -0.1686
  166loPI   C3A 2649  18.620   3.435   8.514 -0.0757 -0.2947  0.3862
  166loPI   C4A 2650  18.894   3.399   8.121 -0.0716  0.0201  0.0531
  166loPI   C5A 2651  18.842   3.404   7.568  0.2736 -0.1383  0.0199
  166loPI   C6A 2652  18.879   3.567   7.194 -0.0983 -0.1295  0.0872
  166loPI   C1B 2653  17.716   3.390   8.912 -0.0091 -0.0172 -0.1549
  166loPI   C2B 2654  17.712   3.562   8.557 -0.3878 -0.2355  0.3515
  166loPI   C3B 2655  17.587   3.912   8.238 -0.0764 -0.1241  0.0629
  166loPI   C4B 2656  17.598   3.924   7.828 -0.2159 -0.1984 -0.3123
  167loPI    C1 2657   8.396   8.666  10.530  0.0356 -0.0870 -0.1806
  167loPI    C2 2658   8.264   9.033  10.442  0.0883 -0.0199  0.0165
  167loPI    C3 2659   8.019   8.768  10.616  0.1218  0.0034  0.0999
  167loPI   PO4 2660   8.494   8.631  10.238  0.0061 -0.1065  0.0122
  167loPI   GL1 2661   8.434   8.539   9.766  0.1373  0.3408  0.3233
  167loPI   GL2 2662   8.530   8.231   9.622  0.0306  0.1106  0.1185
  167loPI   C1A 2663   8.243   8.812   9.384  0.3145 -0.1453 -0.2228
  167loPI   C2A 2664   8.239   8.685   8.938 -0.1763 -0.0827 -0.1175
  167loPI   C3A 2665   8.355   8.438   8.572  0.2943 -0.1162  0.1397
  167loPI   C4A 2666   8.187   8.349   8.159  0.0037 -0.1679 -0.1623
  167loPI   C5A 2667   7.916   8.443   7.855 -0.0687 -0.0202 -0.1966
  167loPI   C6A 2668   7.471   8.284   7.822 -0.1092 -0.1781  0.2217
  167loPI   C1B 2669   8.519   7.976   9.252 -0.3044 -0.1225  0.0407
  167loPI   C2B 2670   8.491   8.027   8.799 -0.0352  0.0944  0.1649
  167loPI   C3B 2671   8.522   7.897   8.324 -0.2572 -0.0545 -0.0682
  167loPI   C4B 2672   8.711   7.933   7.938 -0.0014 -0.1868 -0.1723
  168loPI    C1 2673   9.639  11.246  10.229  0.0799 -0.0165 -0.0639
  168loPI    C2 2674   9.328  11.426  10.404  0.2278  0.2137 -0.0329
  168loPI    C3 2675   9.701  11.529  10.505  0.3183 -0.2114  0.0861
  168loPI   PO4 2676   9.589  11.244  10.049  0.2073 -0.4945  0.3589
  168loPI   GL1 2677   9.340  11.254   9.750 -0.3200 -0.1919  0.2604
  168loPI   GL2 2678   9.699  11.288   9.559  0.3118  0.0796 -0.2142
  168loPI   C1A 2679   9.291  11.108   9.288 -0.1235  0.1912 -0.0064
  168loPI   C2A 2680   9.193  11.032   8.819  0.0867  0.2356 -0.1777
  168loPI   C3A 2681   9.308  10.993   8.491 -0.2683  0.1317  0.0668
  168loPI   C4A 2682   9.264  10.898   8.061 -0.1341  0.4203  0.0510
  168loPI   C5A 2683   9.595  10.988   7.728  0.0900  0.1045  0.0234
  168loPI   C6A 2684   9.694  11.364   7.512  0.0095  0.2256 -0.3477
  168loPI   C1B 2685   9.652  11.409   9.216  0.1182 -0.4953 -0.3061
  168loPI   C2B 2686   9.651  11.309   8.737 -0.2525 -0.2508 -0.1071
  168loPI   C3B 2687   9.638  11.428   8.365  0.3422  0.1365  0.0246
  168loPI   C4B 2688   9.846  11.350   7.997  0.1232 -0.2591  0.2970
  169loPI    C1 2689   3.643   1.557   9.690 -0.1095 -0.2153  0.2666
  169loPI    C2 2690   3.732   1.174   9.618  0.0213 -0.0822 -0.3350
  169loPI    C3 2691   3.390   1.329   9.480  0.0294  0.0516 -0.2066
  169loPI   PO4 2692   3.891   1.717   9.537 -0.0658 -0.0990  0.4838
  169loPI   GL1 2693   3.866   1.865   9.143 -0.0331  0.1215  0.0372
  169loPI   GL2 2694   3.745   1.627   8.966  0.1247  0.2278 -0.0039
  169loPI   C1A 2695   3.952   1.962   8.715  0.2934 -0.0804  0.0732
  169loPI   C2A 2696   3.927   1.975   8.305  0.2915 -0.0953 -0.0496
  169loPI   C3A 2697   3.763   2.004   7.871  0.1479 -0.0302 -0.3413
  169loPI   C4A 2698   3.706   1.965   7.347  0.2427  0.0516  0.1100
  169loPI   C5A 2699   3.761   2.240   7.058  0.1627  0.3912 -0.0975
  169loPI   C6A 2700   3.745   2.657   6.955  0.1893  0.2998  0.0309
  169loPI   C1B 2701   3.829   1.489   8.536 -0.0432  0.3325  0.1674
  169loPI   C2B 2702   3.866   1.506   8.064  0.0778  0.1163  0.1113
  169loPI   C3B 2703   3.909   1.602   7.632 -0.1920 -0.1711  0.1442
  169loPI   C4B 2704   3.860   1.470   7.109  0.1405 -0.3743  0.0310
  170loPI    C1 2705  14.285   7.551   9.889  0.4844 -0.0436  0.2480
  170loPI    C2 2706  14.240   7.540  10.287 -0.0918 -0.4746  0.1848
  170loPI    C3 2707  14.346   7.209  10.088  0.3576 -0.2214 -0.0135
  170loPI   PO4 2708  14.038   7.676   9.797 -0.1720  0.2055  0.1965
  170loPI   GL1 2709  13.911   7.736   9.422  0.0108 -0.0246 -0.0795
  170loPI   GL2 2710  13.812   8.038   9.416 -0.0391  0.0790 -0.0105
  170loPI   C1A 2711  14.004   7.691   9.069 -0.2203 -0.2541 -0.4645
  170loPI   C2A 2712  13.998   7.585   8.688  0.1307  0.1043 -0.1226
  170loPI   C3A 2713  14.055   7.407   8.450  0.0321 -0.0698  0.0007
  170loPI   C4A 2714  14.191   7.343   8.008  0.1450 -0.0567 -0.1050
  170loPI   C5A 2715  14.611   7.621   7.871 -0.1380  0.3995 -0.0847
  170loPI   C6A 2716  14.822   7.521   7.540 -0.1813 -0.0146  0.0797
  170loPI   C1B 2717  13.557   7.838   9.056  0.1532  0.1270 -0.0068
  170loPI   C2B 2718  13.198   7.697   8.931 -0.0049 -0.0049 -0.1554
  170loPI   C3B 2719  13.031   7.343   8.725 -0.3384  0.0740  0.0208
  170loPI   C4B 2720  12.590   7.120   8.490 -0.2444  0.1875  0.2350
  171loPI    C1 2721   6.959   0.207  10.087  0.2076 -0.0321 -0.0463
  171loPI    C2 2722   6.647   0.278  10.327  0.0409  0.1226 -0.3041
  171loPI    C3 2723   6.797  -0.091  10.299  0.0198  0.0896 -0.0161
  171loPI   PO4 2724   7.013   0.442   9.934 -0.0935  0.1327 -0.0645
  171loPI   GL1 2725   7.055   0.497   9.602  0.0827 -0.1805 -0.0008
  171loPI   GL2 2726   6.793   0.815   9.529 -0.2606  0.1555  0.1177
  171loPI   C1A 2727   7.075   0.346   9.133 -0.0243  0.1212  0.2945
  171loPI   C2A 2728   7.237   0.125   9.004  0.2007  0.2990  0.0661
  171loPI   C3A 2729   7.409   0.053   8.597  0.3258  0.1062 -0.0544
  171loPI   C4A 2730   7.542  -0.125   8.244 -0.0018  0.1939  0.0302
  171loPI   C5A 2731   7.635   0.091   7.848  0.1059 -0.0240  0.0021
  171loPI   C6A 2732   8.000   0.344   7.860  0.0830  0.0769 -0.2421
  171loPI   C1B 2733   6.749   0.706   9.173 -0.1181 -0.3949 -0.1776
  171loPI   C2B 2734   6.944   0.740   8.807  0.2410 -0.0371 -0.0073
  171loPI   C3B 2735   7.164   0.743   8.503  0.0454  0.0252  0.1713
  171loPI   C4B 2736   7.390   0.963   8.210 -0.0514  0.1607 -0.0113
  172loPI    C1 2737   5.062  13.940   9.932  0.2102 -0.0818 -0.1812
  172loPI    C2 2738   4.773  14.023  10.196  0.1958  0.0085 -0.2252
  172loPI    C3 2739   5.149  13.969  10.322  0.1543 -0.1428 -0.1640
  172loPI   PO4 2740   4.838  13.774   9.767  0.2210  0.0973 -0.1453
  172loPI   GL1 2741   4.780  13.858   9.389  0.2173  0.0198  0.0718
  172loPI   GL2 2742   4.637  14.100   9.263  0.1160 -0.2788 -0.0704
  172loPI   C1A 2743   4.752  13.606   9.034  0.0889  0.0359 -0.2034
  172loPI   C2A 2744   4.410  13.570   8.684  0.1589  0.0119  0.0878
  172loPI   C3A 2745   4.280  13.474   8.251  0.0337 -0.2203 -0.2191
  172loPI   C4A 2746   4.263  13.567   7.799 -0.1322 -0.1207  0.2232
  172loPI   C5A 2747   4.391  13.527   7.413  0.1612  0.1397  0.1105
  172loPI   C6A 2748   4.669  13.829   7.154 -0.2648 -0.1227 -0.2112
  172loPI   C1B 2749   4.347  14.051   8.971  0.0002  0.0584  0.0428
  172loPI   C2B 2750   4.214  14.014   8.583 -0.2944 -0.2716 -0.1825
  172loPI   C3B 2751   4.149  14.055   8.105 -0.0222 -0.2948 -0.0351
  172loPI   C4B 2752   4.066  14.027   7.677 -0.4081  0.0586  0.0814
  173loPI    C1 2753   1.922   2.995  10.114 -0.0054  0.0582  0.0263
  173loPI    C2 2754   1.963   3.174  10.469  0.3136 -0.0048  0.0243
  173loPI    C3 2755   1.913   2.778  10.450 -0.1468  0.0487  0.0167
  173loPI   PO4 2756   1.984   3.184   9.845 -0.1534 -0.2163 -0.2558
  173loPI   GL1 2757   2.004   3.191   9.415 -0.1469 -0.0401  0.1058
  173loPI   GL2 2758   1.716   2.957   9.345 -0.0021  0.1850  0.1217
  173loPI   C1A 2759   1.984   3.449   9.022  0.2098 -0.0642  0.1018
  173loPI   C2A 2760   1.755   3.454   8.671 -0.1045  0.0361  0.2367
  173loPI   C3A 2761   1.802   3.346   8.305  0.1756 -0.0934  0.1720
  173loPI   C4A 2762   1.706   3.298   7.921  0.2976 -0.1374 -0.1796
  173loPI   C5A 2763   1.715   3.157   7.533 -0.2067  0.0219  0.0253
  173loPI   C6A 2764   1.386   2.963   7.378 -0.1968 -0.1308 -0.1386
  173loPI   C1B 2765   1.821   2.945   9.001  0.0242  0.1100  0.0230
  173loPI   C2B 2766   1.603   2.947   8.526 -0.0937 -0.2945  0.2407
  173loPI   C3B 2767   1.674   2.802   8.068  0.1640 -0.0687  0.2749
  173loPI   C4B 2768   1.787   2.601   7.658 -0.2454 -0.2906  0.1811
  174loPI    C1 2769   9.388  14.493  10.112 -0.2056  0.3538  0.2755
  174loPI    C2 2770   9.197  14.841  10.063 -0.2494  0.3021  0.0671
  174loPI    C3 2771   9.154  14.636  10.403 -0.1564  0.5394  0.2253
  174loPI   PO4 2772   9.407  14.417   9.772  0.3671  0.0017 -0.1320
  174loPI   GL1 2773   9.097  14.585   9.556 -0.0780  0.1143  0.2252
  174loPI   GL2 2774   8.940  14.728   9.354 -0.1771  0.4017 -0.2087
  174loPI   C1A 2775   9.355  14.397   9.172  0.1745  0.0133 -0.1532
  174loPI   C2A 2776   9.451  14.483   8.661  0.0440  0.1452  0.2604
  174loPI   C3A 2777   9.460  14.660   8.254  0.0948  0.3481  0.0145
  174loPI   C4A 2778   9.206  14.690   7.844 -0.1260 -0.0517 -0.0417
  174loPI   C5A 2779   9.142  15.030   7.557  0.3662 -0.0934 -0.0474
  174loPI   C6A 2780   9.096  15.405   7.620  0.1588 -0.1030  0.1561
  174loPI   C1B 2781   8.971  14.722   8.975  0.2373 -0.0160 -0.0111
  174loPI   C2B 2782   9.007  14.893   8.528 -0.1143 -0.2273 -0.0597
  174loPI   C3B 2783   9.039  15.076   8.160 -0.0485  0.1158 -0.2223
  174loPI   C4B 2784   9.413  15.173   7.955  0.0416  0.1350 -0.2747
  175loPI    C1 2785  15.729  12.482  10.145 -0.0801  0.0778 -0.1090
  175loPI    C2 2786  16.040  12.533  10.393 -0.1454 -0.0521  0.0003
  175loPI    C3 2787  15.863  12.851  10.226 -0.1192  0.0384  0.1435
  175loPI   PO4 2788  15.902  12.307   9.954  0.1704  0.2118 -0.0925
  175loPI   GL1 2789  16.021  12.289   9.538 -0.1042  0.0286 -0.0518
  175loPI   GL2 2790  15.931  11.916   9.507 -0.2406 -0.1053 -0.4232
  175loPI   C1A 2791  16.057  12.516   9.165 -0.1572  0.0096 -0.2382
  175loPI   C2A 2792  15.891  12.521   8.727 -0.1577 -0.0166 -0.0662
  175loPI   C3A 2793  15.885  12.451   8.302  0.2536 -0.1563 -0.0786
  175loPI   C4A 2794  15.799  12.657   7.945 -0.1269  0.0127  0.2301
  175loPI   C5A 2795  16.038  12.817   7.555  0.2449 -0.1714 -0.0496
  175loPI   C6A 2796  16.459  12.811   7.470  0.3342 -0.0671  0.0052
  175loPI   C1B 2797  16.025  12.008   9.073 -0.1293  0.1378 -0.0476
  175loPI   C2B 2798  15.881  12.051   8.655 -0.0082 -0.1779  0.1950
  175loPI   C3B 2799  16.042  11.915   8.324  0.1990 -0.0891  0.1495
  175loPI   C4B 2800  16.076  12.028   7.827  0.0593 -0.1651  0.0687
  176loPI    C1 2801  14.305  12.925  10.027  0.1106 -0.0807  0.1916
  176loPI    C2 2802  14.232  12.800  10.400 -0.1844 -0.0480  0.1472
  176loPI    C3 2803  13.949  12.996  10.195  0.0165  0.0390 -0.0520
  176loPI   PO4 2804  14.293  12.720   9.821  0.1678 -0.2241  0.1025
  176loPI   GL1 2805  14.180  12.481   9.482 -0.0401  0.2929 -0.0792
  176loPI   GL2 2806  13.899  12.348   9.269 -0.0008 -0.1532 -0.1062
  176loPI   C1A 2807  14.358  12.589   9.224  0.0303 -0.2062  0.0750
  176loPI   C2A 2808  14.586  12.792   8.914  0.1626  0.2173  0.1450
  176loPI   C3A 2809  14.645  12.895   8.478  0.0363  0.1268 -0.1337
  176loPI   C4A 2810  14.809  12.994   8.052 -0.0332  0.0808 -0.2090
  176loPI   C5A 2811  14.603  13.208   7.859 -0.1760 -0.0683 -0.3100
  176loPI   C6A 2812  14.275  13.269   7.525 -0.0468  0.3249 -0.2559
  176loPI   C1B 2813  13.986  12.383   8.922  0.1128 -0.0321  0.1000
  176loPI   C2B 2814  14.217  12.600   8.508  0.1873  0.0293 -0.3694
  176loPI   C3B 2815  14.446  12.471   8.154 -0.4232 -0.0771 -0.1451
  176loPI   C4B 2816  14.680  12.392   7.765 -0.2319  0.1831 -0.2894
  177loPI    C1 2817  12.997  10.621  10.068 -0.0840  0.1097  0.3436
  177loPI    C2 2818  13.391  10.568  10.121 -0.0171  0.0381 -0.1789
  177loPI    C3 2819  13.210  10.891  10.274  0.1878 -0.0643  0.2962
  177loPI   PO4 2820  13.039  10.492   9.778  0.1179  0.0458  0.1763
  177loPI   GL1 2821  13.263  10.281   9.421 -0.0459 -0.0283  0.0522
  177loPI   GL2 2822  13.030  10.159   9.378 -0.0597  0.0752 -0.0669
  177loPI   C1A 2823  13.593  10.043   9.208 -0.3981  0.0021 -0.0500
  177loPI   C2A 2824  13.624   9.645   8.889  0.1141 -0.1146 -0.3062
  177loPI   C3A 2825  13.796   9.443   8.601  0.2124 -0.0340  0.0391
  177loPI   C4A 2826  13.971   9.121   8.214  0.2736  0.0350 -0.0877
  177loPI   C5A 2827  13.854   8.675   7.985  0.1109  0.2048 -0.0310
  177loPI   C6A 2828  14.023   8.255   8.196  0.2255 -0.2455  0.1235
  177loPI   C1B 2829  13.214  10.266   8.928 -0.1624 -0.3442 -0.3613
  177loPI   C2B 2830  13.606  10.088   8.711  0.0435  0.1749  0.1628
  177loPI   C3B 2831  13.796   9.880   8.285 -0.1234 -0.1715  0.2593
  177loPI   C4B 2832  13.708  10.033   7.835  0.0174  0.0606  0.2045
  178loPI    C1 2833   7.424  16.266  10.114 -0.1103  0.0215  0.0391
  178loPI    C2 2834   7.280  16.056  10.422 -0.2635  0.1903  0.0845
  178loPI    C3 2835   7.270  16.456  10.431 -0.1747  0.1973 -0.0955
  178loPI   PO4 2836   7.248  16.136   9.793 -0.2647 -0.2342 -0.0248
  178loPI   GL1 2837   7.217  16.091   9.248 -0.1578  0.0266 -0.3852
  178loPI   GL2 2838   7.502  15.894   9.394 -0.2758  0.1537 -0.0530
  178loPI   C1A 2839   7.022  16.453   8.878 -0.3524  0.0550 -0.0355
  178loPI   C2A 2840   7.013  16.585   8.486  0.0608 -0.2337  0.0852
  178loPI   C3A 2841   6.939  16.897   8.099  0.2538  0.0037 -0.1401
  178loPI   C4A 2842   6.988  17.258   7.732  0.4248  0.0089  0.0470
  178loPI   C5A 2843   6.968  17.725   7.514  0.0559  0.2072 -0.3228
  178loPI   C6A 2844   6.815  17.961   7.177 -0.0366  0.1239  0.3157
  178loPI   C1B 2845   7.327  15.782   8.924 -0.1128  0.0858 -0.2086
  178loPI   C2B 2846   7.316  15.795   8.407 -0.1084 -0.0207 -0.0791
  178loPI   C3B 2847   7.475  15.961   8.034  0.2104  0.0121 -0.0839
  178loPI   C4B 2848   7.492  16.121   7.636 -0.0091 -0.0116  0.4267
  179loPI    C1 2849  15.012   8.493   9.774 -0.2352  0.0899  0.1785
  179loPI    C2 2850  15.137   8.296  10.099 -0.1964 -0.3898 -0.1174
  179loPI    C3 2851  15.293   8.653  10.008 -0.0053 -0.3795  0.2349
  179loPI   PO4 2852  14.752   8.380   9.764 -0.1973  0.0762 -0.1474
  179loPI   GL1 2853  14.660   8.125   9.562  0.2512  0.1432  0.1611
  179loPI   GL2 2854  14.480   7.833   9.557  0.2887 -0.1321 -0.2015
  179loPI   C1A 2855  14.396   8.047   9.127 -0.0993 -0.1382  0.0199
  179loPI   C2A 2856  14.363   8.023   8.621  0.1160  0.1129  0.0121
  179loPI   C3A 2857  14.324   7.806   8.252  0.0553 -0.1068  0.1484
  179loPI   C4A 2858  13.951   7.809   8.113 -0.0808  0.1122 -0.4044
  179loPI   C5A 2859  13.656   7.470   7.904  0.1455  0.0701 -0.0959
  179loPI   C6A 2860  13.550   7.001   7.862  0.1394  0.0162 -0.4708
  179loPI   C1B 2861  14.452   7.535   9.169  0.1324 -0.0160 -0.0490
  179loPI   C2B 2862  14.662   7.580   8.716  0.0463 -0.4579  0.0507
  179loPI   C3B 2863  14.765   7.309   8.321  0.4159  0.0089  0.3959
  179loPI   C4B 2864  14.607   7.131   7.902  0.0939  0.1757 -0.1099
  180loPI    C1 2865   9.237  18.491  10.425  0.1386 -0.1403  0.2797
  180loPI    C2 2866   8.953  18.766  10.369  0.2076 -0.1212  0.0091
  180loPI    C3 2867   9.039  18.640  10.738  0.2474  0.2965  0.1476
  180loPI   PO4 2868   9.226  18.401  10.196  0.1144  0.0391 -0.2927
  180loPI   GL1 2869   9.258  18.428   9.742 -0.1211  0.1181  0.1368
  180loPI   GL2 2870   8.950  18.624   9.554  0.4879 -0.0795  0.1249
  180loPI   C1A 2871   9.447  18.757   9.445  0.2658 -0.1219 -0.1452
  180loPI   C2A 2872   9.516  18.796   9.000  0.2218  0.4451 -0.1958
  180loPI   C3A 2873   9.978  18.776   8.666  0.1129 -0.1930  0.0918
  180loPI   C4A 2874  10.290  18.866   8.301 -0.3927  0.0323  0.2093
  180loPI   C5A 2875  10.555  18.723   8.073  0.2623  0.1211  0.0086
  180loPI   C6A 2876  10.727  18.860   7.679  0.2638 -0.0553  0.0433
  180loPI   C1B 2877   9.034  18.776   9.106 -0.0108 -0.1929  0.1382
  180loPI   C2B 2878   9.030  18.773   8.702 -0.2439 -0.1752 -0.0406
  180loPI   C3B 2879   9.144  18.586   8.219  0.2140 -0.0161 -0.2884
  180loPI   C4B 2880   9.436  18.438   8.007 -0.0955  0.2987 -0.0107
  181loPI    C1 2881   4.218  16.328   9.979  0.1387  0.0985 -0.1778
  181loPI    C2 2882   4.420  16.060  10.197 -0.0823 -0.0199 -0.1153
  181loPI    C3 2883   4.382  16.436  10.328  0.0227 -0.0190 -0.0860
  181loPI   PO4 2884   4.314  16.191   9.716  0.0861 -0.4102  0.1884
  181loPI   GL1 2885   4.253  16.317   9.350  0.0017 -0.0178  0.1446
  181loPI   GL2 2886   4.627  16.319   9.150  0.6282  0.0371 -0.1869
  181loPI   C1A 2887   4.179  16.488   8.912  0.2836 -0.0840  0.2345
  181loPI   C2A 2888   4.042  16.398   8.488 -0.0194 -0.2052  0.0026
  181loPI   C3A 2889   4.072  16.515   8.080  0.5349  0.0983  0.0339
  181loPI   C4A 2890   3.887  16.670   7.681 -0.2797 -0.1384 -0.2873
  181loPI   C5A 2891   3.692  16.600   7.355 -0.0859 -0.2580 -0.1131
  181loPI   C6A 2892   3.455  16.768   7.074 -0.0947 -0.0825 -0.1786
  181loPI   C1B 2893   4.722  16.339   8.727 -0.0125 -0.0875 -0.2589
  181loPI   C2B 2894   4.553  16.338   8.354  0.3607 -0.1967  0.0861
  181loPI   C3B 2895   4.531  16.363   7.890  0.0035  0.3750 -0.1003
  181loPI   C4B 2896   4.699  16.532   7.486  0.1225 -0.0031  0.1856
  182loPI    C1 2897  16.159   5.422  10.055 -0.1090  0.1100  0.0942
  182loPI    C2 2898  16.044   5.801  10.111  0.0555  0.1643  0.0725
  182loPI    C3 2899  16.301   5.631  10.366  0.1298  0.1296 -0.0254
  182loPI   PO4 2900  15.888   5.340  10.064  0.0983  0.0447  0.1512
  182loPI   GL1 2901  15.468   5.594   9.872 -0.0677 -0.1700 -0.0145
  182loPI   GL2 2902  15.635   5.917   9.896 -0.1977  0.2948 -0.0518
  182loPI   C1A 2903  15.567   5.443   9.491 -0.1443  0.1174  0.2165
  182loPI   C2A 2904  15.294   5.169   9.293  0.1246 -0.2430 -0.2265
  182loPI   C3A 2905  14.976   5.004   9.017  0.1737 -0.0361 -0.0263
  182loPI   C4A 2906  14.674   4.755   8.711  0.0521 -0.0854 -0.2370
  182loPI   C5A 2907  14.619   4.672   8.256 -0.2200  0.0794  0.0805
  182loPI   C6A 2908  14.767   5.077   8.147  0.1092 -0.1516  0.2292
  182loPI   C1B 2909  15.872   5.928   9.611  0.0074 -0.0522  0.1761
  182loPI   C2B 2910  16.017   6.184   9.256 -0.2165 -0.2001 -0.0483
  182loPI   C3B 2911  16.169   6.132   8.889 -0.2623 -0.2514 -0.0634
  182loPI   C4B 2912  16.522   6.246   8.713  0.2616 -0.4636 -0.0054
  183loPI    C1 2913  15.791  14.954  10.684  0.2308  0.4002  0.1660
  183loPI    C2 2914  15.635  14.959  11.053  0.3010 -0.0268  0.2067
  183loPI    C3 2915  15.819  14.630  10.918 -0.1608 -0.0567 -0.3908
  183loPI   PO4 2916  15.486  15.124  10.496  0.1137 -0.0393  0.2485
  183loPI   GL1 2917  15.375  15.143  10.088 -0.0259  0.1904 -0.1538
  183loPI   GL2 2918  15.642  14.975   9.835 -0.0549  0.0243  0.3332
  183loPI   C1A 2919  15.418  15.435   9.757 -0.0565 -0.2722 -0.2292
  183loPI   C2A 2920  15.656  15.638   9.414 -0.0979  0.3134 -0.2171
  183loPI   C3A 2921  15.537  15.777   9.113 -0.0181  0.3091 -0.1388
  183loPI   C4A 2922  15.590  15.989   8.825 -0.0631 -0.0483 -0.0420
  183loPI   C5A 2923  15.781  15.932   8.385 -0.0920 -0.1512 -0.0533
  183loPI   C6A 2924  16.138  15.617   8.302  0.1023 -0.1682 -0.1031
  183loPI   C1B 2925  15.471  15.089   9.417  0.0701 -0.1516 -0.1160
  183loPI   C2B 2926  15.304  15.221   9.010 -0.0237  0.1230  0.0509
  183loPI   C3B 2927  15.196  15.621   8.716  0.0845 -0.0858 -0.1327
  183loPI   C4B 2928  15.279  15.863   8.330 -0.1866 -0.2479 -0.1956
  184loPI    C1 2929   4.819  15.924   9.737  0.3874 -0.1645 -0.0855
  184loPI    C2 2930   4.819  15.539   9.629  0.2112 -0.1957  0.0227
  184loPI    C3 2931   4.546  15.674   9.888 -0.0650  0.1156 -0.4156
  184loPI   PO4 2932   4.828  16.066   9.530  0.1222  0.1470  0.1676
  184loPI   GL1 2933   4.839  15.851   9.200 -0.2458  0.4464 -0.6398
  184loPI   GL2 2934   5.044  16.104   9.019 -0.2379  0.0465 -0.0907
  184loPI   C1A 2935   4.646  15.834   8.877  0.2470  0.0001 -0.2984
  184loPI   C2A 2936   4.510  15.862   8.508  0.0915 -0.0036  0.0152
  184loPI   C3A 2937   4.553  15.874   8.042  0.1586  0.1626  0.0050
  184loPI   C4A 2938   4.665  15.941   7.651 -0.0488  0.1439 -0.0876
  184loPI   C5A 2939   5.011  15.861   7.460  0.2838  0.1619  0.2342
  184loPI   C6A 2940   5.213  15.773   7.058 -0.1422  0.0289  0.0091
  184loPI   C1B 2941   5.011  15.949   8.538  0.0777 -0.0109 -0.0295
  184loPI   C2B 2942   5.001  15.939   8.182  0.1406  0.0350  0.1441
  184loPI   C3B 2943   5.111  16.057   7.914 -0.2875  0.0260 -0.1090
  184loPI   C4B 2944   5.282  16.314   7.588 -0.0301 -0.1253 -0.0380
  185loPI    C1 2945  14.775  12.003  10.066 -0.1237  0.1369 -0.0383
  185loPI    C2 2946  15.087  12.251  10.028  0.1114 -0.1091  0.2331
  185loPI    C3 2947  14.935  12.173  10.390 -0.2089 -0.0649  0.1121
  185loPI   PO4 2948  14.764  11.887   9.864  0.0226  0.1633  0.3445
  185loPI   GL1 2949  14.868  11.637   9.474 -0.0536  0.0739 -0.0236
  185loPI   GL2 2950  14.995  11.343   9.584  0.0241  0.0243  0.2157
  185loPI   C1A 2951  15.036  11.862   9.081 -0.0863  0.0516  0.1324
  185loPI   C2A 2952  15.144  11.870   8.636 -0.0888  0.0950 -0.0212
  185loPI   C3A 2953  15.180  11.828   8.234 -0.0688 -0.0008 -0.0306
  185loPI   C4A 2954  15.153  11.737   7.814  0.0229  0.0996  0.0335
  185loPI   C5A 2955  15.365  11.626   7.480 -0.1218  0.2261  0.1350
  185loPI   C6A 2956  15.444  11.765   7.152 -0.1015  0.1822  0.0618
  185loPI   C1B 2957  15.039  11.383   9.098 -0.3937  0.2265  0.0440
  185loPI   C2B 2958  15.266  11.378   8.700  0.3592 -0.4139  0.0946
  185loPI   C3B 2959  15.316  11.300   8.344  0.1553  0.0044 -0.0680
  185loPI   C4B 2960  15.366  11.260   7.848  0.0345 -0.0035 -0.0474
  186loPI    C1 2961  12.791   0.941  10.451  0.4726  0.1264 -0.1641
  186loPI    C2 2962  12.662   0.585  10.320  0.1383  0.2174 -0.0918
  186loPI    C3 2963  12.637   0.677  10.709  0.1008  0.3702 -0.1296
  186loPI   PO4 2964  12.629   1.170  10.164 -0.3901  0.1332  0.1266
  186loPI   GL1 2965  12.687   1.507   9.884 -0.0392  0.0205  0.0173
  186loPI   GL2 2966  12.305   1.503   9.786 -0.0988 -0.3448 -0.2193
  186loPI   C1A 2967  12.744   1.212   9.526 -0.0731  0.1084  0.0488
  186loPI   C2A 2968  12.882   1.180   9.038  0.1414 -0.0346 -0.1804
  186loPI   C3A 2969  13.177   0.820   8.910  0.2317  0.2894  0.0800
  186loPI   C4A 2970  13.404   0.834   8.626  0.0211  0.0867  0.0212
  186loPI   C5A 2971  13.715   0.841   8.402  0.1266  0.0656 -0.2746
  186loPI   C6A 2972  13.935   0.418   8.247  0.0582  0.1339 -0.0829
  186loPI   C1B 2973  12.408   1.479   9.273  0.4972 -0.0149 -0.2418
  186loPI   C2B 2974  12.370   1.112   8.988  0.2223  0.0158 -0.0637
  186loPI   C3B 2975  12.413   1.263   8.559  0.1839 -0.0271  0.0770
  186loPI   C4B 2976  12.298   1.100   8.162  0.1676 -0.0269 -0.1272
  187loPI    C1 2977   3.042  11.999   9.968 -0.0248 -0.3414  0.0390
  187loPI    C2 2978   2.699  12.185   9.877  0.3516  0.3359 -0.0613
  187loPI    C3 2979   2.714  11.786   9.884 -0.4256  0.2913 -0.0775
  187loPI   PO4 2980   3.227  12.138   9.884 -0.0338  0.0028  0.3383
  187loPI   GL1 2981   3.333  12.065   9.297  0.1205 -0.0145  0.3996
  187loPI   GL2 2982   3.005  12.003   9.409 -0.1157 -0.0067 -0.1648
  187loPI   C1A 2983   3.401  12.493   9.096 -0.2419 -0.1050 -0.0206
  187loPI   C2A 2984   3.300  12.866   8.994 -0.2990  0.0720  0.0164
  187loPI   C3A 2985   3.066  13.190   9.081 -0.0484  0.0565 -0.1501
  187loPI   C4A 2986   2.862  13.569   8.999  0.0034  0.1125  0.3282
  187loPI   C5A 2987   2.422  13.709   8.876  0.0266  0.0753 -0.0588
  187loPI   C6A 2988   1.980  13.779   8.926 -0.1635  0.2373 -0.1350
  187loPI   C1B 2989   3.028  12.073   8.895 -0.1295  0.1105 -0.2515
  187loPI   C2B 2990   2.955  12.098   8.424 -0.1240 -0.0821 -0.0684
  187loPI   C3B 2991   2.920  12.090   7.974  0.0689 -0.1048  0.2676
  187loPI   C4B 2992   2.748  12.180   7.622  0.1234 -0.0131 -0.2521
  188loPI    C1 2993  17.282   9.319   9.754 -0.0290 -0.0704  0.1565
  188loPI    C2 2994  17.451   9.385  10.111  0.0842 -0.1350  0.1154
  188loPI    C3 2995  17.329   9.693   9.887  0.0862 -0.0909  0.1749
  188loPI   PO4 2996  17.526   9.253   9.598  0.3840 -0.0710 -0.1168
  188loPI   GL1 2997  17.855   9.130   9.394 -0.2239  0.0672  0.0067
  188loPI   GL2 2998  18.209   9.152   9.368  0.1050 -0.0680  0.0795
  188loPI   C1A 2999  17.823   8.972   8.975  0.1022 -0.0235 -0.3905
  188loPI   C2A 3000  17.864   8.827   8.484  0.1138 -0.0412 -0.1841
  188loPI   C3A 3001  17.936   8.520   8.144  0.2514 -0.1562  0.1647
  188loPI   C4A 3002  17.784   8.211   7.878  0.0031  0.2093 -0.0799
  188loPI   C5A 3003  17.636   7.772   7.869 -0.0138  0.1183 -0.0637
  188loPI   C6A 3004  17.219   7.570   8.107  0.2375  0.1119  0.4239
  188loPI   C1B 3005  18.338   9.133   8.938 -0.2007  0.4487  0.0928
  188loPI   C2B 3006  18.233   9.112   8.533 -0.4057 -0.1272  0.0746
  188loPI   C3B 3007  18.159   9.010   8.104  0.0393  0.1486  0.0682
  188loPI   C4B 3008  18.200   8.880   7.722  0.0821  0.0919 -0.0027
  189loPI    C1 3009  11.122   7.928  10.119  0.0524 -0.0304 -0.0616
  189loPI    C2 3010  11.146   7.574  10.304  0.2469  0.0022 -0.0228
  189loPI    C3 3011  11.477   7.789  10.238  0.1117  0.2540  0.1041
  189loPI   PO4 3012  11.023   7.875   9.904  0.1533  0.2060  0.0138
  189loPI   GL1 3013  10.965   7.975   9.482 -0.1789  0.1208  0.0133
  189loPI   GL2 3014  11.283   7.799   9.403  0.2983  0.1282  0.1754
  189loPI   C1A 3015  11.085   8.105   9.075  0.0995 -0.0435  0.0262
  189loPI   C2A 3016  10.880   8.276   8.724 -0.1170 -0.1414 -0.1583
  189loPI   C3A 3017  10.928   8.329   8.179  0.1853 -0.1341  0.0045
  189loPI   C4A 3018  11.110   8.595   7.843 -0.0818  0.2774 -0.3373
  189loPI   C5A 3019  11.282   8.446   7.492 -0.0396 -0.0182  0.1819
  189loPI   C6A 3020  11.378   8.445   7.018 -0.1615 -0.0858  0.2988
  189loPI   C1B 3021  11.251   7.551   9.130 -0.0267  0.2970  0.0421
  189loPI   C2B 3022  11.295   7.430   8.781 -0.1059  0.0332 -0.0111
  189loPI   C3B 3023  11.302   7.393   8.368 -0.0169  0.0523  0.0407
  189loPI   C4B 3024  11.505   7.014   8.233  0.2704  0.0504 -0.0202
  190loPI    C1 3025  16.196   6.830   9.913  0.1093 -0.1135  0.0183
  190loPI    C2 3026  16.211   6.694  10.289  0.0881 -0.1530  0.0049
  190loPI    C3 3027  16.530   6.657  10.050  0.1859  0.0923  0.0947
  190loPI   PO4 3028  15.851   6.802   9.912 -0.1095 -0.0815 -0.1471
  190loPI   GL1 3029  15.439   6.754   9.566  0.1550  0.1311 -0.0458
  190loPI   GL2 3030  15.215   6.961   9.434 -0.0815  0.1775  0.2817
  190loPI   C1A 3031  15.664   6.641   9.213  0.2054  0.0954 -0.0883
  190loPI   C2A 3032  15.932   6.646   8.869  0.1185  0.2892  0.1555
  190loPI   C3A 3033  16.166   6.633   8.424 -0.1512 -0.0426  0.1049
  190loPI   C4A 3034  16.600   6.594   8.181 -0.4916  0.1679 -0.2384
  190loPI   C5A 3035  16.803   6.800   7.877 -0.1432  0.0313  0.0565
  190loPI   C6A 3036  16.905   7.211   7.793 -0.6303  0.2993  0.1919
  190loPI   C1B 3037  15.354   7.032   9.045  0.0479 -0.2530  0.2763
  190loPI   C2B 3038  15.580   6.966   8.709  0.2216 -0.0698  0.2741
  190loPI   C3B 3039  15.629   6.704   8.408 -0.4141 -0.1426 -0.2646
  190loPI   C4B 3040  15.701   6.717   7.940 -0.0876  0.2317 -0.0659
  191loPI    C1 3041   1.945  16.124   9.992 -0.0254 -0.0420 -0.0343
  191loPI    C2 3042   2.204  16.364   9.803 -0.0565  0.0849  0.0825
  191loPI    C3 3043   2.182  16.369  10.203 -0.2409  0.0774  0.0733
  191loPI   PO4 3044   1.734  16.105   9.877 -0.0263  0.0592  0.0221
  191loPI   GL1 3045   1.828  16.329   9.493  0.0447  0.2786 -0.0778
  191loPI   GL2 3046   1.934  16.621   9.430 -0.0906 -0.0137 -0.1159
  191loPI   C1A 3047   1.682  16.179   9.069  0.0584  0.0213 -0.1015
  191loPI   C2A 3048   1.487  16.081   8.709  0.0176 -0.2981  0.2501
  191loPI   C3A 3049   1.536  16.012   8.286 -0.0697  0.0114 -0.0838
  191loPI   C4A 3050   1.277  15.866   8.009  0.2070 -0.2027 -0.2052
  191loPI   C5A 3051   1.153  15.502   7.698  0.0263  0.1411 -0.1783
  191loPI   C6A 3052   1.024  15.128   7.618  0.2837 -0.0610  0.1421
  191loPI   C1B 3053   2.004  16.515   9.076 -0.1020  0.0278  0.1866
  191loPI   C2B 3054   1.855  16.382   8.607 -0.0595  0.1163 -0.0568
  191loPI   C3B 3055   1.791  16.522   8.163  0.0787  0.0676 -0.2877
  191loPI   C4B 3056   1.643  16.743   7.768  0.0738  0.0459  0.1272
  192loPI    C1 3057   2.882   4.522   9.765  0.1102  0.1581  0.2508
  192loPI    C2 3058   2.569   4.540  10.015 -0.1072  0.2094 -0.0203
  192loPI    C3 3059   2.611   4.227   9.768  0.1798  0.0926  0.1700
  192loPI   PO4 3060   2.941   4.620   9.508  0.0828 -0.0818 -0.3150
  192loPI   GL1 3061   3.333   4.630   9.256  0.4085  0.0184 -0.1515
  192loPI   GL2 3062   3.587   4.676   9.018  0.2800  0.1348  0.2521
  192loPI   C1A 3063   3.090   4.635   8.893  0.2233  0.2283 -0.0940
  192loPI   C2A 3064   3.149   4.641   8.409 -0.2858 -0.0296  0.0243
  192loPI   C3A 3065   3.003   4.809   8.011 -0.1446 -0.2274  0.0773
  192loPI   C4A 3066   2.914   4.604   7.523 -0.0609 -0.0006  0.2134
  192loPI   C5A 3067   3.118   4.796   7.160  0.1487 -0.2374 -0.2622
  192loPI   C6A 3068   3.302   5.193   7.250  0.1559 -0.1318 -0.1444
  192loPI   C1B 3069   3.629   4.712   8.511  0.0009  0.2107  0.2133
  192loPI   C2B 3070   3.567   4.710   8.050 -0.3789 -0.2430 -0.4312
  192loPI   C3B 3071   3.827   4.577   7.696 -0.1189  0.2484  0.0970
  192loPI   C4B 3072   4.200   4.649   7.501 -0.0991 -0.0877  0.3622
  193loPI    C1 3073   8.593   4.743  10.201  0.0951  0.2145  0.1355
  193loPI    C2 3074   8.203   4.832  10.226  0.0457  0.1013 -0.1824
  193loPI    C3 3075   8.418   4.778  10.559 -0.2532 -0.0201 -0.0061
  193loPI   PO4 3076   8.702   4.836  10.045  0.0885  0.1703  0.0184
  193loPI   GL1 3077   8.377   4.908   9.744  0.1806 -0.2051 -0.2025
  193loPI   GL2 3078   8.204   5.219   9.649  0.1043 -0.0214  0.1615
  193loPI   C1A 3079   8.458   4.617   9.429 -0.0643  0.1182  0.3273
  193loPI   C2A 3080   8.516   4.744   8.983  0.1368  0.1810  0.2187
  193loPI   C3A 3081   8.555   4.811   8.482 -0.0213 -0.1044 -0.0056
  193loPI   C4A 3082   8.357   4.857   8.151 -0.0791  0.0853 -0.3123
  193loPI   C5A 3083   8.000   5.007   8.025  0.1335 -0.1374 -0.2800
  193loPI   C6A 3084   7.773   5.353   7.783 -0.1304  0.2982  0.0991
  193loPI   C1B 3085   8.332   5.141   9.320 -0.2261  0.3974  0.3426
  193loPI   C2B 3086   8.319   5.200   8.850 -0.0506  0.1755  0.0694
  193loPI   C3B 3087   8.238   5.276   8.448 -0.1053 -0.0196 -0.1038
  193loPI   C4B 3088   8.404   5.301   7.990  0.3167  0.1004  0.2935
  194loPI    C1 3089  15.179  12.941  10.442  0.2680  0.2025 -0.1029
  194loPI    C2 3090  15.537  12.924  10.620  0.0774  0.0682  0.2766
  194loPI    C3 3091  15.213  13.029  10.831 -0.1345  0.0314 -0.0244
  194loPI   PO4 3092  15.157  12.714  10.317  0.1803  0.1532  0.0493
  194loPI   GL1 3093  15.297  12.680   9.890 -0.1415 -0.0630  0.0624
  194loPI   GL2 3094  15.260  12.978   9.727  0.1480  0.0674  0.1827
  194loPI   C1A 3095  15.371  12.535   9.478 -0.1121 -0.0593 -0.4611
  194loPI   C2A 3096  15.409  12.663   9.102  0.0654 -0.1245  0.2519
  194loPI   C3A 3097  15.407  12.781   8.710 -0.0817  0.2107 -0.3603
  194loPI   C4A 3098  15.355  12.736   8.380  0.1100 -0.1833 -0.1836
  194loPI   C5A 3099  15.278  12.735   7.964 -0.0328 -0.0192 -0.0997
  194loPI   C6A 3100  15.415  12.661   7.561  0.1418 -0.1355 -0.2116
  194loPI   C1B 3101  15.210  13.103   9.320 -0.2259 -0.0890 -0.2158
  194loPI   C2B 3102  15.063  13.073   8.935  0.0387  0.1027  0.3268
  194loPI   C3B 3103  14.802  13.308   8.680  0.2047 -0.0594 -0.2699
  194loPI   C4B 3104  14.753  13.434   8.349  0.0713 -0.1829 -0.2156
  195loPI    C1 3105   2.297  10.408  10.406  0.0014 -0.1732  0.2750
  195loPI    C2 3106   2.548  10.714  10.464  0.1727 -0.2776  0.0953
  195loPI    C3 3107   2.519  10.426  10.739 -0.0288 -0.0750  0.2902
  195loPI   PO4 3108   2.260  10.418  10.128 -0.0104 -0.1153  0.3785
  195loPI   GL1 3109   2.331  10.419   9.632  0.0319 -0.3070 -0.0263
  195loPI   GL2 3110   2.119  10.157   9.628 -0.1956  0.2203 -0.2254
  195loPI   C1A 3111   2.348  10.489   9.241 -0.2404 -0.0315 -0.3810
  195loPI   C2A 3112   2.243  10.435   8.841 -0.0917  0.2874  0.0301
  195loPI   C3A 3113   2.195  10.296   8.377  0.0831  0.0514  0.2915
  195loPI   C4A 3114   2.129  10.182   7.919  0.0506 -0.2092 -0.0990
  195loPI   C5A 3115   2.466  10.030   7.759  0.3994  0.0575  0.2974
  195loPI   C6A 3116   2.989  10.085   7.720 -0.2953  0.0622  0.0491
  195loPI   C1B 3117   2.088  10.086   9.193  0.1084  0.0021 -0.2313
  195loPI   C2B 3118   1.999   9.943   8.761 -0.0055  0.0223  0.0937
  195loPI   C3B 3119   1.938   9.839   8.319 -0.0963 -0.1869 -0.0757
  195loPI   C4B 3120   1.943   9.636   7.969 -0.1284 -0.0777 -0.0618
  196loPI    C1 3121  18.454   7.767   9.745  0.1837  0.1331  0.1098
  196loPI    C2 3122  18.495   7.998  10.069 -0.0073  0.0390  0.2027
  196loPI    C3 3123  18.313   7.643  10.098 -0.0685  0.0507 -0.0172
  196loPI   PO4 3124  18.663   7.837   9.543 -0.3666 -0.0541 -0.1415
  196loPI   GL1 3125  18.816   8.011   9.264  0.0102  0.0639  0.1220
  196loPI   GL2 3126  18.595   8.191   9.107  0.0297 -0.1924 -0.0436
  196loPI   C1A 3127  19.084   8.062   8.945 -0.0548 -0.0416  0.2958
  196loPI   C2A 3128  19.164   7.974   8.539 -0.0423 -0.4972  0.4202
  196loPI   C3A 3129  19.296   8.062   8.129  0.1376 -0.0335  0.2333
  196loPI   C4A 3130  19.418   8.339   7.908 -0.1050 -0.2967  0.0688
  196loPI   C5A 3131  19.810   8.553   7.647  0.0243  0.0932  0.0692
  196loPI   C6A 3132  19.962   9.014   7.567 -0.2186 -0.0022  0.1007
  196loPI   C1B 3133  18.658   8.016   8.690  0.1124 -0.0520 -0.1174
  196loPI   C2B 3134  18.745   8.220   8.282 -0.1789  0.0709  0.0201
  196loPI   C3B 3135  18.884   8.277   7.871 -0.1602 -0.0794  0.0017
  196loPI   C4B 3136  19.080   8.100   7.445 -0.1768  0.2642 -0.2637
  197loPI    C1 3137  15.114  10.324  10.473 -0.0528  0.1482  0.0597
  197loPI    C2 3138  15.096  10.711  10.572  0.2183  0.1546  0.0927
  197loPI    C3 3139  15.441  10.513  10.605  0.0797 -0.0927  0.0816
  197loPI   PO4 3140  15.059  10.284  10.290 -0.0197  0.1266 -0.1373
  197loPI   GL1 3141  14.823  10.423   9.941 -0.2908 -0.1129 -0.1715
  197loPI   GL2 3142  15.074  10.380   9.822 -0.3143 -0.0533  0.0884
  197loPI   C1A 3143  14.638  10.625   9.618  0.3211  0.1230 -0.3774
  197loPI   C2A 3144  14.739  10.595   9.179  0.0305  0.1306  0.0253
  197loPI   C3A 3145  14.911  10.514   8.793 -0.0045  0.0303  0.0101
  197loPI   C4A 3146  14.721  10.571   8.320 -0.0138  0.1972 -0.1850
  197loPI   C5A 3147  14.823  10.716   7.919 -0.0706 -0.1383 -0.1043
  197loPI   C6A 3148  14.877  11.128   7.713 -0.0292  0.2356  0.1081
  197loPI   C1B 3149  15.113  10.326   9.414  0.2021 -0.2290  0.1874
  197loPI   C2B 3150  15.440  10.481   9.041 -0.1828  0.1096 -0.1035
  197loPI   C3B 3151  15.451  10.330   8.702  0.0622  0.4091  0.2794
  197loPI   C4B 3152  15.166  10.385   8.324  0.2290  0.1632 -0.0728
  198loPI    C1 3153  12.010   7.436   9.750  0.0163 -0.0271 -0.2048
  198loPI    C2 3154  11.946   7.736  10.007  0.2322  0.0120 -0.1945
  198loPI    C3 3155  11.832   7.364  10.101  0.2180  0.0435 -0.0861
  198loPI   PO4 3156  12.176   7.510   9.557  0.0374 -0.0170 -0.0072
  198loPI   GL1 3157  12.233   7.364   9.216 -0.1599  0.0662 -0.2359
  198loPI   GL2 3158  12.110   7.075   9.294  0.1540 -0.0940  0.0105
  198loPI   C1A 3159  12.530   7.075   8.994  0.0454  0.4296  0.0100
  198loPI   C2A 3160  12.886   6.759   8.687  0.2659 -0.1869 -0.0283
  198loPI   C3A 3161  13.061   6.671   8.298 -0.1361 -0.1461 -0.1318
  198loPI   C4A 3162  13.157   7.090   8.259  0.0001 -0.0233  0.0992
  198loPI   C5A 3163  13.051   7.556   8.190  0.1938 -0.2572 -0.0320
  198loPI   C6A 3164  13.053   7.952   7.888 -0.3882  0.0357  0.1361
  198loPI   C1B 3165  12.014   7.102   8.896 -0.1768 -0.0656  0.0720
  198loPI   C2B 3166  12.026   7.039   8.523  0.5485 -0.1641 -0.0423
  198loPI   C3B 3167  11.997   6.989   8.051 -0.0642 -0.0261  0.1157
  198loPI   C4B 3168  11.900   7.291   7.785  0.1763  0.2682  0.0787
  199loPI    C1 3169  12.099  14.054  10.095  0.0303  0.1684 -0.0364
  199loPI    C2 3170  12.220  14.309  10.378  0.0786  0.1474 -0.0378
  199loPI    C3 3171  11.989  13.997  10.475  0.2666  0.0224  0.0129
  199loPI   PO4 3172  12.338  13.917   9.930 -0.0368 -0.0655  0.3839
  199loPI   GL1 3173  12.211  14.074   9.552  0.0830 -0.2972 -0.1492
  199loPI   GL2 3174  12.116  13.896   9.316 -0.0947  0.3831 -0.1999
  199loPI   C1A 3175  12.427  14.242   9.225 -0.2083  0.1432 -0.1227
  199loPI   C2A 3176  12.378  14.355   8.843  0.0025  0.0149  0.0278
  199loPI   C3A 3177  12.369  14.347   8.419 -0.1573  0.0304 -0.2780
  199loPI   C4A 3178  12.364  14.415   8.012  0.4549 -0.0901 -0.1657
  199loPI   C5A 3179  12.322  14.223   7.612 -0.0384 -0.4316  0.3128
  199loPI   C6A 3180  12.231  14.248   7.086  0.0524  0.0366 -0.0913
  199loPI   C1B 3181  12.193  13.875   8.884  0.1763 -0.6276 -0.1948
  199loPI   C2B 3182  12.298  13.792   8.438  0.0545 -0.2209  0.2149
  199loPI   C3B 3183  12.385  13.889   8.006  0.3446  0.1200 -0.1881
  199loPI   C4B 3184  12.735  13.951   7.815  0.0676 -0.2000  0.1036
  200loPI    C1 3185   9.586  12.429  10.234 -0.0991 -0.0384 -0.1443
  200loPI    C2 3186   9.492  12.421  10.623  0.1387  0.0070 -0.0842
  200loPI    C3 3187   9.624  12.760  10.456  0.1697 -0.0480 -0.1720
  200loPI   PO4 3188   9.740  12.234  10.183  0.2681 -0.0402  0.1594
  200loPI   GL1 3189   9.876  12.267   9.803 -0.3164  0.0975  0.1113
  200loPI   GL2 3190  10.092  12.369   9.600  0.0211  0.0382  0.2162
  200loPI   C1A 3191   9.908  11.977   9.425 -0.0125  0.3331 -0.1496
  200loPI   C2A 3192   9.898  11.904   8.930 -0.1201 -0.0105  0.0378
  200loPI   C3A 3193   9.998  11.668   8.582  0.1889 -0.1934 -0.1060
  200loPI   C4A 3194  10.213  11.442   8.226 -0.0425  0.1289  0.1159
  200loPI   C5A 3195  10.579  11.154   8.197 -0.0301  0.0495  0.0147
  200loPI   C6A 3196  10.634  10.977   7.855 -0.3448 -0.1171  0.3577
  200loPI   C1B 3197  10.052  12.452   9.188 -0.1669 -0.1498  0.0879
  200loPI   C2B 3198  10.141  12.373   8.758  0.0526 -0.2802  0.0418
  200loPI   C3B 3199   9.980  12.295   8.391  0.0821  0.0808 -0.0169
  200loPI   C4B 3200  10.058  12.285   7.936 -0.1327 -0.1846 -0.0486
  201loPI    C1 3201   6.090  13.995   9.964  0.1091  0.1098 -0.0868
  201loPI    C2 3202   6.264  13.636   9.944  0.0223  0.0432  0.2863
  201loPI    C3 3203   5.868  13.664  10.000 -0.0084  0.1976  0.0075
  201loPI   PO4 3204   6.136  14.105   9.715 -0.4317 -0.0847 -0.0941
  201loPI   GL1 3205   6.188  14.172   9.236 -0.1820  0.4342  0.0109
  201loPI   GL2 3206   6.298  14.437   9.032  0.2446 -0.0292 -0.0995
  201loPI   C1A 3207   5.801  14.116   9.007  0.3216  0.1586 -0.0657
  201loPI   C2A 3208   5.691  13.967   8.555  0.0057  0.0004 -0.2844
  201loPI   C3A 3209   5.606  13.711   8.221 -0.1842 -0.0350  0.0159
  201loPI   C4A 3210   5.804  13.366   8.181 -0.0668 -0.1685 -0.1307
  201loPI   C5A 3211   5.936  12.941   8.077  0.1136 -0.2659 -0.3273
  201loPI   C6A 3212   6.243  12.711   8.282  0.2860 -0.1863  0.0374
  201loPI   C1B 3213   6.162  14.312   8.656  0.2804 -0.0102 -0.0567
  201loPI   C2B 3214   6.012  14.393   8.283 -0.2186  0.0599 -0.1268
  201loPI   C3B 3215   5.816  14.114   8.028  0.0183  0.1604  0.3092
  201loPI   C4B 3216   5.398  14.066   7.907 -0.1829  0.2526 -0.2029
  202loPI    C1 3217  17.284   7.471   9.902 -0.3139 -0.0321 -0.0054
  202loPI    C2 3218  17.420   7.116   9.779  0.0609  0.1599 -0.1634
  202loPI    C3 3219  17.396   7.196  10.170  0.0128 -0.0235 -0.1276
  202loPI   PO4 3220  17.418   7.729   9.862 -0.2378  0.1365  0.1205
  202loPI   GL1 3221  17.475   7.639   9.431  0.1089 -0.0510 -0.1743
  202loPI   GL2 3222  17.591   7.356   9.376  0.0405  0.0417 -0.3034
  202loPI   C1A 3223  17.243   7.528   9.067 -0.0215  0.0804  0.1050
  202loPI   C2A 3224  17.248   7.515   8.612 -0.0241  0.2916 -0.1989
  202loPI   C3A 3225  16.947   7.258   8.494  0.1593 -0.0466 -0.2564
  202loPI   C4A 3226  16.551   7.075   8.267  0.1720 -0.0347 -0.0098
  202loPI   C5A 3227  16.264   6.864   8.026  0.0321  0.0462  0.2727
  202loPI   C6A 3228  16.056   6.771   7.609  0.0384 -0.0363 -0.0319
  202loPI   C1B 3229  17.513   7.071   8.974  0.1143 -0.1175  0.2064
  202loPI   C2B 3230  17.442   6.730   8.859 -0.3219 -0.1223  0.1056
  202loPI   C3B 3231  17.318   6.636   8.547  0.0967 -0.0165 -0.0665
  202loPI   C4B 3232  17.075   6.760   8.294  0.1527  0.0774  0.2595
  203loPI    C1 3233   7.000  16.991   9.821  0.1810  0.0695  0.0847
  203loPI    C2 3234   7.150  16.956  10.190 -0.0415  0.2012  0.1897
  203loPI    C3 3235   6.957  16.648  10.022 -0.1618  0.2245  0.2841
  203loPI   PO4 3236   7.177  17.268   9.648  0.1155 -0.0594  0.1403
  203loPI   GL1 3237   7.429  17.104   9.398 -0.0075  0.1326  0.0017
  203loPI   GL2 3238   7.294  16.857   9.207  0.3522 -0.0138  0.4152
  203loPI   C1A 3239   7.620  17.210   9.013 -0.0649 -0.0936 -0.2235
  203loPI   C2A 3240   7.708  17.291   8.606  0.0301  0.1146 -0.3418
  203loPI   C3A 3241   8.063  17.289   8.314 -0.0786 -0.0519 -0.0475
  203loPI   C4A 3242   7.970  17.166   7.877  0.1399 -0.2405  0.3431
  203loPI   C5A 3243   8.194  16.851   7.599  0.1474  0.0236  0.1537
  203loPI   C6A 3244   8.244  16.454   7.435  0.0852 -0.1302 -0.0186
  203loPI   C1B 3245   7.308  16.888   8.824 -0.1032 -0.0131 -0.2143
  203loPI   C2B 3246   7.413  16.915   8.435  0.0641 -0.1756  0.2889
  203loPI   C3B 3247   7.472  17.276   7.980  0.0810  0.4930  0.1985
  203loPI   C4B 3248   7.278  17.745   7.909  0.1903  0.0685 -0.1868
  204loPI    C1 3249   4.625  16.590   9.592 -0.5101 -0.2282 -0.0575
  204loPI    C2 3250   4.709  16.428   9.949 -0.1513  0.1487  0.0370
  204loPI    C3 3251   4.486  16.760   9.927 -0.1149  0.1658 -0.0835
  204loPI   PO4 3252   4.940  16.545   9.537  0.1378 -0.1585  0.3467
  204loPI   GL1 3253   5.201  16.548   9.192 -0.1138  0.0466 -0.0260
  204loPI   GL2 3254   4.973  16.677   9.010  0.1291  0.1939 -0.0343
  204loPI   C1A 3255   5.320  16.449   8.769  0.0044  0.2364 -0.0928
  204loPI   C2A 3256   5.176  16.426   8.313 -0.0705  0.1508 -0.1456
  204loPI   C3A 3257   4.963  16.550   7.980 -0.1343  0.0152  0.2775
  204loPI   C4A 3258   5.084  16.759   7.615 -0.2589 -0.2110 -0.3190
  204loPI   C5A 3259   5.204  17.192   7.370  0.2990 -0.0750  0.0643
  204loPI   C6A 3260   5.482  17.522   7.291  0.0981 -0.0154 -0.0297
  204loPI   C1B 3261   5.246  16.931   8.717 -0.3188 -0.0714 -0.2401
  204loPI   C2B 3262   5.224  17.302   8.525  0.0718  0.1394  0.0413
  204loPI   C3B 3263   4.998  17.407   8.219 -0.1100  0.0840 -0.0564
  204loPI   C4B 3264   4.551  17.468   7.971  0.2800  0.1347 -0.2108
  205loPI    C1 3265  14.856   1.306  10.809 -0.1209  0.2160 -0.1873
  205loPI    C2 3266  14.708   1.399  11.169 -0.0250 -0.1655 -0.0438
  205loPI    C3 3267  15.100   1.439  11.098 -0.0814  0.1563 -0.1929
  205loPI   PO4 3268  14.679   1.507  10.581  0.1357 -0.0186  0.0091
  205loPI   GL1 3269  14.637   1.377  10.126  0.0459 -0.0067  0.1363
  205loPI   GL2 3270  14.945   1.344   9.964  0.0964 -0.1077  0.3817
  205loPI   C1A 3271  14.459   1.133   9.818  0.1222  0.2945  0.0363
  205loPI   C2A 3272  14.627   0.873   9.444  0.2078 -0.1481 -0.1029
  205loPI   C3A 3273  14.571   0.654   9.029 -0.0250 -0.0742  0.1544
  205loPI   C4A 3274  14.748   0.337   8.712 -0.0341 -0.2223  0.3384
  205loPI   C5A 3275  15.026   0.065   8.621  0.0016 -0.0455  0.0879
  205loPI   C6A 3276  15.246  -0.107   8.237 -0.1363 -0.3077 -0.1085
  205loPI   C1B 3277  14.883   1.419   9.450  0.3597 -0.0196 -0.0674
  205loPI   C2B 3278  15.088   1.501   9.058 -0.0829  0.1734 -0.2144
  205loPI   C3B 3279  14.963   1.471   8.671  0.1335 -0.2284 -0.2765
  205loPI   C4B 3280  15.269   1.764   8.356  0.0965  0.0909 -0.2512
  206loPI    C1 3281  16.458   8.651  10.183 -0.0414 -0.0889  0.0986
  206loPI    C2 3282  16.818   8.481  10.220 -0.0324 -0.0693  0.1021
  206loPI    C3 3283  16.516   8.364  10.456 -0.0600 -0.1695  0.0182
  206loPI   PO4 3284  16.443   8.645   9.838 -0.0254  0.1134  0.1054
  206loPI   GL1 3285  16.212   8.524   9.539  0.3528 -0.0945  0.1467
  206loPI   GL2 3286  16.049   8.168   9.586 -0.4008  0.0312  0.2400
  206loPI   C1A 3287  16.352   8.512   9.163 -0.1409 -0.0038  0.1288
  206loPI   C2A 3288  16.402   8.536   8.712 -0.0319 -0.0159  0.0845
  206loPI   C3A 3289  16.319   8.862   8.461  0.1971  0.2413  0.1396
  206loPI   C4A 3290  16.214   9.176   8.186  0.1227  0.1023 -0.2659
  206loPI   C5A 3291  16.201   9.646   8.036 -0.0757 -0.1241  0.0891
  206loPI   C6A 3292  15.992   9.900   7.752 -0.0763 -0.2710 -0.2089
  206loPI   C1B 3293  16.112   8.077   9.144 -0.0720 -0.2068 -0.0788
  206loPI   C2B 3294  15.944   8.187   8.758  0.0233 -0.1778 -0.1019
  206loPI   C3B 3295  15.946   8.268   8.416 -0.1972  0.1104 -0.1841
  206loPI   C4B 3296  15.858   8.165   7.966 -0.0160 -0.2594 -0.2001
  207loPI    C1 3297  13.754   5.896  10.147  0.4806 -0.0767 -0.0095
  207loPI    C2 3298  13.529   6.025  10.452  0.2738 -0.1169 -0.1429
  207loPI    C3 3299  13.926   6.000  10.493  0.2486 -0.1157  0.1201
  207loPI   PO4 3300  13.668   6.009   9.879  0.4194 -0.0392  0.0405
  207loPI   GL1 3301  13.351   6.083   9.619 -0.2957  0.3846  0.1486
  207loPI   GL2 3302  13.360   6.453   9.700 -0.1615  0.0661  0.3485
  207loPI   C1A 3303  13.485   6.244   9.223  0.0314  0.0214 -0.0339
  207loPI   C2A 3304  13.550   6.031   8.847  0.2240 -0.1368  0.0107
  207loPI   C3A 3305  13.806   5.962   8.523 -0.1832  0.1023 -0.4381
  207loPI   C4A 3306  13.683   5.994   8.129 -0.1144  0.0365 -0.3076
  207loPI   C5A 3307  13.487   6.107   7.858  0.1167  0.0604 -0.0891
  207loPI   C6A 3308  13.051   6.010   7.714  0.2427  0.0456 -0.3329
  207loPI   C1B 3309  13.436   6.758   9.417 -0.0233  0.3499  0.1427
  207loPI   C2B 3310  13.225   6.956   9.016 -0.3728  0.1717  0.1304
  207loPI   C3B 3311  13.468   6.833   8.623 -0.2583  0.3579  0.0191
  207loPI   C4B 3312  13.594   6.521   8.266  0.1466  0.1838 -0.0908
  208loPI    C1 3313  13.978  11.866  10.236 -0.1389 -0.0327  0.1772
  208loPI    C2 3314  13.665  11.663  10.090 -0.0109 -0.1749  0.0980
  208loPI    C3 3315  13.631  12.054  10.167 -0.1671 -0.1601 -0.0391
  208loPI   PO4 3316  14.244  11.727  10.015 -0.2347  0.3135  0.1097
  208loPI   GL1 3317  14.359  11.690   9.555 -0.2142 -0.1739 -0.1565
  208loPI   GL2 3318  14.172  11.927   9.440  0.1453  0.0891  0.0431
  208loPI   C1A 3319  14.553  11.610   9.111  0.1690 -0.1039  0.2045
  208loPI   C2A 3320  14.586  11.461   8.760  0.2319 -0.0546  0.1555
  208loPI   C3A 3321  14.724  11.565   8.475 -0.3503 -0.3575 -0.0447
  208loPI   C4A 3322  14.915  11.446   8.090 -0.1071  0.1129  0.0655
  208loPI   C5A 3323  14.587  11.481   7.670  0.1687  0.0248 -0.1374
  208loPI   C6A 3324  14.282  11.358   7.360 -0.5100  0.0615  0.1823
  208loPI   C1B 3325  14.129  11.940   8.963  0.0783  0.0130 -0.1312
  208loPI   C2B 3326  14.013  12.076   8.550 -0.1923 -0.0921  0.0911
  208loPI   C3B 3327  14.154  12.052   8.188  0.1219  0.0203 -0.1381
  208loPI   C4B 3328  14.175  12.223   7.755 -0.3500 -0.0450  0.0913
  209loPI    C1 3329  12.604  17.032  11.035 -0.0483 -0.0247 -0.1639
  209loPI    C2 3330  12.973  16.877  11.052 -0.0525 -0.0219 -0.0382
  209loPI    C3 3331  12.795  17.008  11.386 -0.1079  0.1160 -0.1214
  209loPI   PO4 3332  12.461  16.975  10.864 -0.1041 -0.0509 -0.1460
  209loPI   GL1 3333  12.556  16.873  10.369  0.1623  0.3411 -0.0128
  209loPI   GL2 3334  12.766  16.625  10.489  0.1104 -0.1670  0.2638
  209loPI   C1A 3335  12.379  16.950  10.005 -0.0292 -0.0471 -0.0018
  209loPI   C2A 3336  12.364  17.297   9.711  0.1317  0.0609 -0.1539
  209loPI   C3A 3337  12.454  17.257   9.306 -0.0264 -0.0434  0.0114
  209loPI   C4A 3338  12.560  16.971   8.920  0.0507 -0.0402 -0.2392
  209loPI   C5A 3339  12.376  16.739   8.527 -0.2684  0.3757  0.0052
  209loPI   C6A 3340  12.556  16.623   8.102 -0.1201  0.4861  0.0870
  209loPI   C1B 3341  12.845  16.481  10.037 -0.0407 -0.0527  0.1929
  209loPI   C2B 3342  12.551  16.481   9.708 -0.0193 -0.0452 -0.1900
  209loPI   C3B 3343  12.296  16.741   9.410  0.2186  0.0269 -0.4172
  209loPI   C4B 3344  12.100  16.784   8.978  0.0265  0.2687 -0.0708
  210loPI    C1 3345   8.855   5.955  10.470  0.0709 -0.0065  0.1751
  210loPI    C2 3346   8.602   5.860  10.765 -0.0225  0.1711  0.1535
  210loPI    C3 3347   8.727   6.238  10.722  0.1053  0.1185  0.0539
  210loPI   PO4 3348   8.719   5.940  10.088  0.0146 -0.0700  0.3410
  210loPI   GL1 3349   8.410   5.766   9.876  0.1746 -0.0677  0.1394
  210loPI   GL2 3350   8.177   5.994   9.884  0.2102  0.0023 -0.0077
  210loPI   C1A 3351   8.468   5.591   9.463 -0.1658  0.0675  0.2087
  210loPI   C2A 3352   8.558   5.612   9.127 -0.1782  0.0678  0.2381
  210loPI   C3A 3353   8.592   5.614   8.709  0.0202 -0.0246 -0.0164
  210loPI   C4A 3354   8.717   5.399   8.396 -0.0871  0.1202  0.1177
  210loPI   C5A 3355   8.963   5.373   8.019 -0.0338  0.0579  0.0663
  210loPI   C6A 3356   9.273   5.083   7.797 -0.0676  0.0209  0.0937
  210loPI   C1B 3357   8.225   6.143   9.456  0.0317  0.2175  0.0826
  210loPI   C2B 3358   8.352   6.190   9.066  0.0016 -0.0104 -0.2918
  210loPI   C3B 3359   8.400   6.281   8.665 -0.0240 -0.0719 -0.2294
  210loPI   C4B 3360   8.540   6.126   8.201 -0.0543 -0.1423  0.2502
  211loPI    C1 3361  11.875  15.163  10.338 -0.4342  0.0930 -0.0391
  211loPI    C2 3362  11.993  15.448  10.593 -0.0412 -0.0545 -0.0489
  211loPI    C3 3363  11.692  15.203  10.691  0.0659 -0.0707  0.2487
  211loPI   PO4 3364  11.856  15.361  10.089 -0.0842 -0.1180  0.1372
  211loPI   GL1 3365  11.819  15.439   9.656 -0.1334  0.0556  0.3142
  211loPI   GL2 3366  11.469  15.316   9.812  0.1772  0.0857 -0.0648
  211loPI   C1A 3367  11.688  15.504   9.276  0.0584  0.2783  0.2616
  211loPI   C2A 3368  11.658  15.596   8.936  0.2248  0.0002 -0.0705
  211loPI   C3A 3369  11.438  15.736   8.621  0.1628 -0.0105  0.2204
  211loPI   C4A 3370  11.148  15.521   8.378 -0.0388  0.1506 -0.1013
  211loPI   C5A 3371  11.173  15.382   8.011  0.1536  0.1023 -0.0189
  211loPI   C6A 3372  11.376  15.352   7.567 -0.0003 -0.0155  0.3238
  211loPI   C1B 3373  11.724  14.903   9.483  0.1946  0.2611 -0.2436
  211loPI   C2B 3374  11.658  14.859   9.082  0.0148  0.2672 -0.1401
  211loPI   C3B 3375  11.699  14.724   8.656  0.1094  0.0148 -0.1726
  211loPI   C4B 3376  11.538  14.593   8.279 -0.1882  0.1135  0.1610
  212loPI    C1 3377   5.080   1.047   9.731 -0.3600  0.4033  0.1988
  212loPI    C2 3378   5.206   0.907  10.083  0.2066  0.1087 -0.1064
  212loPI    C3 3379   5.384   1.225   9.920 -0.1022  0.2893 -0.0986
  212loPI   PO4 3380   5.101   0.754   9.570 -0.0345 -0.1993 -0.1052
  212loPI   GL1 3381   5.350   0.740   9.210  0.0370  0.0480  0.0349
  212loPI   GL2 3382   5.657   0.792   9.238 -0.1245 -0.1329  0.0008
  212loPI   C1A 3383   5.445   0.424   8.990 -0.3710  0.1873 -0.1382
  212loPI   C2A 3384   5.668   0.253   8.592 -0.1492  0.1753 -0.0644
  212loPI   C3A 3385   5.845   0.390   8.184  0.2750 -0.3473 -0.3069
  212loPI   C4A 3386   6.144   0.406   7.964 -0.4109 -0.3466  0.1819
  212loPI   C5A 3387   6.527   0.609   7.741  0.0169 -0.0170 -0.5392
  212loPI   C6A 3388   7.034   0.552   7.722 -0.0938 -0.1711  0.1142
  212loPI   C1B 3389   5.703   0.811   8.848 -0.0786 -0.1012  0.1146
  212loPI   C2B 3390   5.550   0.702   8.391 -0.0935 -0.0069  0.1065
  212loPI   C3B 3391   5.539   0.618   7.919 -0.2590  0.1843 -0.0539
  212loPI   C4B 3392   5.814   0.754   7.638  0.0123  0.1126 -0.0452
  213loPI    C1 3393  13.235  13.929  10.391  0.2219 -0.0696  0.1837
  213loPI    C2 3394  12.938  13.703  10.535  0.2136 -0.0025  0.2726
  213loPI    C3 3395  13.168  13.914  10.785  0.1290  0.2019  0.1799
  213loPI   PO4 3396  13.304  13.768  10.118  0.3834 -0.1906 -0.1819
  213loPI   GL1 3397  13.288  13.805   9.637 -0.1857 -0.0003 -0.2843
  213loPI   GL2 3398  13.516  14.057   9.569  0.1656  0.0802  0.1822
  213loPI   C1A 3399  13.170  13.760   9.246  0.1527 -0.1950 -0.2980
  213loPI   C2A 3400  13.243  13.799   8.766 -0.0679 -0.1922 -0.0931
  213loPI   C3A 3401  13.379  13.732   8.320  0.2964  0.4187  0.0313
  213loPI   C4A 3402  13.244  13.909   7.933 -0.2467 -0.1099 -0.1011
  213loPI   C5A 3403  13.117  13.923   7.508  0.0671  0.0383 -0.3084
  213loPI   C6A 3404  12.810  13.847   7.101 -0.1254 -0.2535 -0.0495
  213loPI   C1B 3405  13.529  14.493   9.478 -0.2227  0.0520  0.1067
  213loPI   C2B 3406  13.471  14.659   9.058 -0.0154  0.2251  0.1618
  213loPI   C3B 3407  13.577  14.975   8.773 -0.0519  0.4186 -0.1751
  213loPI   C4B 3408  13.379  15.351   8.465 -0.5225  0.1416  0.2381
  214loPI    C1 3409   5.472   4.371  10.009  0.0536  0.0275 -0.0813
  214loPI    C2 3410   5.180   4.395  10.281  0.1755  0.0549  0.0487
  214loPI    C3 3411   5.495   4.639  10.305  0.1131  0.1641 -0.2085
  214loPI   PO4 3412   5.474   4.181   9.947 -0.4741 -0.0572  0.2583
  214loPI   GL1 3413   5.635   3.952   9.557 -0.1332 -0.0906  0.0190
  214loPI   GL2 3414   5.810   3.859   9.734 -0.2173 -0.1239 -0.0604
  214loPI   C1A 3415   5.721   4.004   9.187  0.2010 -0.3078 -0.1552
  214loPI   C2A 3416   5.814   4.007   8.880  0.2028  0.3230 -0.3785
  214loPI   C3A 3417   5.740   4.131   8.537  0.0252  0.3624  0.2904
  214loPI   C4A 3418   5.774   3.818   8.153 -0.0111 -0.4048 -0.0172
  214loPI   C5A 3419   6.083   3.694   7.761 -0.0904  0.2989 -0.2018
  214loPI   C6A 3420   6.124   3.963   7.381 -0.1480  0.2232  0.2251
  214loPI   C1B 3421   5.934   3.551   9.386  0.3047 -0.0786  0.0041
  214loPI   C2B 3422   5.832   3.506   8.920  0.0301  0.0191  0.0364
  214loPI   C3B 3423   5.582   3.617   8.630  0.1200 -0.1605 -0.0735
  214loPI   C4B 3424   5.464   3.159   8.622 -0.0517 -0.0938 -0.2839
  215loPI    C1 3425  17.959  17.924  10.180  0.2237 -0.0100  0.1804
  215loPI    C2 3426  17.620  18.112  10.280  0.2225  0.0027  0.1526
  215loPI    C3 3427  17.935  18.124  10.526  0.2850  0.1985  0.0657
  215loPI   PO4 3428  17.969  18.001   9.943 -0.1327 -0.1481  0.1124
  215loPI   GL1 3429  17.929  18.163   9.589 -0.1290  0.2971  0.2871
  215loPI   GL2 3430  17.983  18.521   9.600 -0.3087  0.0208 -0.0119
  215loPI   C1A 3431  17.709  18.139   9.114 -0.0969  0.0844 -0.0994
  215loPI   C2A 3432  17.356  18.144   8.787 -0.0134  0.0880 -0.4332
  215loPI   C3A 3433  17.325  18.057   8.361  0.0041 -0.6223  0.1528
  215loPI   C4A 3434  17.538  17.912   7.974  0.3947 -0.0506  0.1583
  215loPI   C5A 3435  17.941  17.826   7.899 -0.0687  0.0644 -0.1926
  215loPI   C6A 3436  18.378  18.030   7.726 -0.0850 -0.0251  0.2939
  215loPI   C1B 3437  17.929  18.673   9.115 -0.1096  0.3786  0.1299
  215loPI   C2B 3438  17.885  18.490   8.679  0.1421  0.1304  0.2131
  215loPI   C3B 3439  17.566  18.572   8.289 -0.0507 -0.0931 -0.1313
  215loPI   C4B 3440  17.524  18.767   7.969  0.0067  0.0832  0.0882
  216loPI    C1 3441   8.498  16.576  10.486  0.2829  0.0010  0.2692
  216loPI    C2 3442   8.414  16.908  10.692  0.0050  0.1496 -0.0739
  216loPI    C3 3443   8.248  16.560  10.798 -0.0117  0.1944  0.0482
  216loPI   PO4 3444   8.482  16.615  10.216  0.0943 -0.0100  0.1170
  216loPI   GL1 3445   8.525  16.842   9.867 -0.1270 -0.1319 -0.0760
  216loPI   GL2 3446   8.852  16.825   9.879  0.1441  0.4409  0.0216
  216loPI   C1A 3447   8.666  16.714   9.387 -0.1631  0.3082  0.1636
  216loPI   C2A 3448   8.441  16.852   9.058  0.0130 -0.3732 -0.0621
  216loPI   C3A 3449   8.355  16.871   8.659  0.1664 -0.0047 -0.3454
  216loPI   C4A 3450   8.318  16.664   8.190  0.0074 -0.1002 -0.0130
  216loPI   C5A 3451   8.636  16.704   7.823  0.0464  0.0020  0.0831
  216loPI   C6A 3452   8.987  16.618   7.542  0.5504  0.3129 -0.0026
  216loPI   C1B 3453   9.134  17.111   9.607  0.2097 -0.0898 -0.1653
  216loPI   C2B 3454   9.276  17.330   9.306  0.0367  0.4101 -0.1557
  216loPI   C3B 3455   9.387  17.327   8.891 -0.1688  0.4010 -0.2594
  216loPI   C4B 3456   9.460  16.997   8.465 -0.1057 -0.3955  0.0940
  217loPI    C1 3457   2.918   3.856  10.162 -0.1471  0.2173  0.2233
  217loPI    C2 3458   3.160   3.566  10.295  0.0862  0.3062  0.0011
  217loPI    C3 3459   2.767   3.548  10.367  0.1013 -0.0533  0.0083
  217loPI   PO4 3460   2.964   3.929   9.886 -0.1411 -0.0848  0.0426
  217loPI   GL1 3461   3.009   4.078   9.468  0.0205  0.1067 -0.0077
  217loPI   GL2 3462   3.218   3.887   9.433 -0.2148 -0.1459 -0.1595
  217loPI   C1A 3463   2.983   4.103   9.065  0.1097 -0.1342  0.2495
  217loPI   C2A 3464   2.899   4.168   8.676 -0.1129  0.2941 -0.0300
  217loPI   C3A 3465   2.864   3.834   8.222 -0.2414 -0.0825 -0.0434
  217loPI   C4A 3466   2.653   3.729   7.740  0.1680  0.0023 -0.3124
  217loPI   C5A 3467   2.503   3.684   7.364  0.2010  0.3710 -0.1563
  217loPI   C6A 3468   2.306   3.286   7.273  0.2248 -0.2288  0.1201
  217loPI   C1B 3469   3.273   3.743   8.985  0.0480  0.1003 -0.1232
  217loPI   C2B 3470   3.155   3.726   8.671  0.3323 -0.0262 -0.0011
  217loPI   C3B 3471   3.178   3.258   8.348 -0.2506 -0.3068 -0.0750
  217loPI   C4B 3472   3.052   2.930   8.107 -0.0785  0.2960  0.1371
  218loPI    C1 3473   0.920  13.841  10.123 -0.2218 -0.1687  0.0036
  218loPI    C2 3474   0.618  14.036  10.298 -0.1349 -0.0807  0.0566
  218loPI    C3 3475   0.942  13.938  10.510  0.0615  0.2112 -0.1015
  218loPI   PO4 3476   0.942  14.021   9.843  0.1322 -0.3753  0.1337
  218loPI   GL1 3477   0.729  13.995   9.427 -0.1653 -0.1291 -0.0918
  218loPI   GL2 3478   0.856  14.255   9.449  0.0920 -0.0701 -0.0053
  218loPI   C1A 3479   0.610  14.101   8.999 -0.1056  0.0699 -0.1647
  218loPI   C2A 3480   0.447  14.406   8.676  0.1470  0.1062  0.2105
  218loPI   C3A 3481   0.450  14.428   8.240  0.0466  0.2323  0.0490
  218loPI   C4A 3482   0.659  14.439   7.841 -0.1113 -0.0890 -0.2190
  218loPI   C5A 3483   0.886  14.672   7.450  0.0826 -0.0504  0.1582
  218loPI   C6A 3484   1.273  14.769   7.442 -0.0596  0.0816  0.2508
  218loPI   C1B 3485   1.091  14.353   9.065  0.1467  0.2723 -0.0360
  218loPI   C2B 3486   0.996  14.474   8.596  0.2273 -0.0226  0.1621
  218loPI   C3B 3487   0.962  14.733   8.225  0.0078  0.0507  0.0444
  218loPI   C4B 3488   1.163  14.588   7.902  0.1691 -0.0711  0.0642
  219loPI    C1 3489   9.976  12.717  10.132  0.1128 -0.1414  0.0018
  219loPI    C2 3490  10.123  12.905  10.453  0.1271  0.2268 -0.2141
  219loPI    C3 3491  10.128  12.505  10.435  0.2372  0.2058  0.1877
  219loPI   PO4 3492  10.041  12.851   9.964 -0.3520 -0.1634 -0.1077
  219loPI   GL1 3493  10.070  13.269   9.559 -0.1362 -0.1972  0.2484
  219loPI   GL2 3494  10.301  13.022   9.488 -0.0511  0.0634 -0.0246
  219loPI   C1A 3495   9.909  13.355   9.180 -0.1896  0.0921  0.0849
  219loPI   C2A 3496   9.906  13.249   8.831 -0.1691  0.1908 -0.1689
  219loPI   C3A 3497   9.912  12.976   8.360  0.1215  0.0918 -0.0591
  219loPI   C4A 3498   9.775  13.165   8.005 -0.0375  0.0129 -0.1388
  219loPI   C5A 3499   9.795  13.527   7.686 -0.3101  0.1133  0.1142
  219loPI   C6A 3500   9.996  13.762   7.349 -0.2235 -0.0545  0.2651
  219loPI   C1B 3501  10.273  13.001   9.117  0.1458  0.1797  0.2609
  219loPI   C2B 3502  10.231  12.876   8.693 -0.2049 -0.0327 -0.0544
  219loPI   C3B 3503  10.350  12.628   8.346 -0.1453 -0.1918  0.0756
  219loPI   C4B 3504  10.590  12.514   8.042  0.2319  0.2238  0.0127
  220loPI    C1 3505   8.619  11.706  10.025 -0.0887  0.0056 -0.0644
  220loPI    C2 3506   8.309  11.514  10.190 -0.1202 -0.0337 -0.1685
  220loPI    C3 3507   8.648  11.316  10.112  0.0125  0.0601  0.1528
  220loPI   PO4 3508   8.532  11.822   9.839 -0.2172  0.2799 -0.0808
  220loPI   GL1 3509   8.500  11.648   9.476 -0.0925 -0.1651  0.0679
  220loPI   GL2 3510   8.079  11.621   9.356 -0.1711  0.3526 -0.0889
  220loPI   C1A 3511   8.511  12.016   9.203  0.0792  0.0591  0.0345
  220loPI   C2A 3512   8.642  12.067   8.843 -0.1086 -0.0970  0.1774
  220loPI   C3A 3513   8.818  11.855   8.433 -0.0246 -0.0980  0.2025
  220loPI   C4A 3514   8.695  11.596   8.095 -0.0693 -0.0873  0.0042
  220loPI   C5A 3515   8.587  11.771   7.667 -0.0250 -0.0056  0.1135
  220loPI   C6A 3516   8.112  11.857   7.445  0.1384  0.1101  0.0031
  220loPI   C1B 3517   8.324  11.613   8.970  0.1710 -0.0584  0.3096
  220loPI   C2B 3518   8.341  11.657   8.553  0.3864 -0.1996  0.2952
  220loPI   C3B 3519   8.154  11.752   8.147  0.2965  0.1270  0.2759
  220loPI   C4B 3520   8.118  12.020   7.913 -0.0427 -0.0045  0.1975
  221loPI    C1 3521   1.207   3.269   9.837 -0.0601 -0.1167 -0.3060
  221loPI    C2 3522   1.494   2.990   9.830  0.1153  0.0429  0.1533
  221loPI    C3 3523   1.167   2.936  10.054 -0.2563 -0.1680 -0.4188
  221loPI   PO4 3524   1.143   3.298   9.532 -0.2430 -0.0150  0.0974
  221loPI   GL1 3525   0.885   3.611   9.362  0.1278 -0.0893 -0.3966
  221loPI   GL2 3526   0.975   3.958   9.385 -0.1627 -0.0421  0.1949
  221loPI   C1A 3527   0.441   3.852   9.177 -0.4089  0.1952 -0.0924
  221loPI   C2A 3528   0.077   3.755   8.848  0.2249  0.1967 -0.1193
  221loPI   C3A 3529  -0.152   4.020   8.594 -0.0408  0.0739 -0.0342
  221loPI   C4A 3530  -0.209   4.108   8.252  0.1052  0.0115  0.0746
  221loPI   C5A 3531  -0.322   4.230   7.803 -0.0725  0.0502  0.0680
  221loPI   C6A 3532  -0.359   3.771   7.589 -0.0676  0.2346 -0.1732
  221loPI   C1B 3533   1.066   3.862   8.956  0.2014 -0.1753 -0.1912
  221loPI   C2B 3534   1.249   3.537   8.708 -0.0221 -0.0001 -0.0550
  221loPI   C3B 3535   1.325   3.282   8.283  0.0272 -0.0344  0.0297
  221loPI   C4B 3536   1.217   3.174   7.963 -0.0902  0.1723  0.0828
  222loPI    C1 3537   7.618  17.521   9.934 -0.1904 -0.1810 -0.0558
  222loPI    C2 3538   7.549  17.127   9.948 -0.0432 -0.1981  0.2743
  222loPI    C3 3539   7.901  17.274  10.071 -0.0305  0.0225 -0.0139
  222loPI   PO4 3540   7.573  17.612   9.705 -0.1265 -0.0559 -0.0562
  222loPI   GL1 3541   7.550  17.635   9.242  0.0815  0.4427 -0.2539
  222loPI   GL2 3542   7.316  17.887   9.169  0.0090  0.0315  0.1251
  222loPI   C1A 3543   7.790  17.668   9.010  0.0584 -0.0564 -0.3004
  222loPI   C2A 3544   8.011  17.807   8.693  0.3313  0.0663  0.4123
  222loPI   C3A 3545   8.268  17.776   8.276  0.3376 -0.0804 -0.2916
  222loPI   C4A 3546   8.530  17.688   7.857  0.0117  0.4636 -0.2442
  222loPI   C5A 3547   8.909  17.591   7.583  0.1033  0.1532  0.1820
  222loPI   C6A 3548   9.364  17.541   7.411  0.0241 -0.0049  0.0539
  222loPI   C1B 3549   7.413  17.943   8.737  0.2895  0.0628  0.1099
  222loPI   C2B 3550   7.579  17.738   8.388  0.0020  0.0051  0.0698
  222loPI   C3B 3551   7.755  17.778   8.032  0.0332 -0.1006 -0.2997
  222loPI   C4B 3552   8.055  17.701   7.811 -0.2014 -0.1193  0.0156
  223loPI    C1 3553  13.796  14.146  10.377  0.0003 -0.2742  0.0498
  223loPI    C2 3554  14.120  14.056  10.595  0.0174  0.2038  0.2330
  223loPI    C3 3555  13.759  14.061  10.766 -0.0612 -0.0996  0.0828
  223loPI   PO4 3556  13.946  14.364  10.213 -0.0775  0.1702  0.0940
  223loPI   GL1 3557  13.972  14.455   9.746 -0.0493  0.2506  0.1436
  223loPI   GL2 3558  14.203  14.547   9.772 -0.0745 -0.0444  0.1605
  223loPI   C1A 3559  13.955  14.255   9.280 -0.2641  0.0260  0.1649
  223loPI   C2A 3560  13.622  14.109   9.065  0.1176 -0.0916  0.2241
  223loPI   C3A 3561  13.653  14.110   8.685 -0.1961 -0.2043 -0.3736
  223loPI   C4A 3562  13.849  13.927   8.272  0.2335 -0.0580 -0.1065
  223loPI   C5A 3563  13.740  13.835   7.921  0.0925  0.0292  0.3353
  223loPI   C6A 3564  13.920  13.575   7.576 -0.0699 -0.3057 -0.0543
  223loPI   C1B 3565  14.350  14.528   9.383  0.1559 -0.1273  0.0485
  223loPI   C2B 3566  14.451  14.403   8.878 -0.3256  0.0649 -0.1999
  223loPI   C3B 3567  14.650  14.617   8.513 -0.3516 -0.1607  0.1515
  223loPI   C4B 3568  14.750  14.654   8.169  0.0078  0.2704 -0.0509
  224loPI    C1 3569   4.956  10.497  10.365 -0.0003 -0.0389  0.0643
  224loPI    C2 3570   4.662  10.331  10.579 -0.2174  0.1544 -0.0790
  224loPI    C3 3571   4.759  10.715  10.636  0.0117  0.0913 -0.0307
  224loPI   PO4 3572   4.946  10.432  10.145 -0.2253  0.0636  0.5367
  224loPI   GL1 3573   4.762  10.256   9.753  0.0770 -0.0351 -0.0039
  224loPI   GL2 3574   4.777   9.891   9.731 -0.0913 -0.0287 -0.0511
  224loPI   C1A 3575   4.598  10.236   9.346 -0.1384 -0.1456  0.1334
  224loPI   C2A 3576   4.760  10.215   9.006 -0.4073 -0.0018 -0.1828
  224loPI   C3A 3577   4.925   9.896   8.611  0.3841 -0.1792  0.1102
  224loPI   C4A 3578   5.219   9.650   8.380 -0.0615  0.0829 -0.0461
  224loPI   C5A 3579   5.546   9.478   8.047  0.0850  0.0017 -0.0268
  224loPI   C6A 3580   5.669   8.920   7.955  0.1165 -0.0030  0.0914
  224loPI   C1B 3581   5.076   9.954   9.391  0.2652 -0.1348  0.0987
  224loPI   C2B 3582   5.225   9.936   9.001  0.1979  0.2204 -0.3313
  224loPI   C3B 3583   5.571   9.992   8.792 -0.1845 -0.1821  0.2132
  224loPI   C4B 3584   5.618   9.917   8.339 -0.1027  0.1736  0.2036
  225loPI    C1 3585   4.047  11.139   9.974 -0.0245  0.0449  0.1292
  225loPI    C2 3586   4.340  11.053  10.232  0.0286 -0.0302  0.0447
  225loPI    C3 3587   3.958  10.996  10.337  0.0504 -0.0736  0.1015
  225loPI   PO4 3588   4.119  11.006   9.772  0.0076 -0.0572  0.3129
  225loPI   GL1 3589   4.267  11.107   9.395 -0.1051  0.2541  0.0940
  225loPI   GL2 3590   4.618  11.194   9.295 -0.2207 -0.0111 -0.1277
  225loPI   C1A 3591   4.146  11.301   9.128 -0.0764 -0.0632  0.0889
  225loPI   C2A 3592   4.151  11.200   8.675 -0.0762  0.2578 -0.0241
  225loPI   C3A 3593   4.089  11.229   8.325  0.0378 -0.1009 -0.3111
  225loPI   C4A 3594   3.975  10.963   7.944  0.1395 -0.0824 -0.2240
  225loPI   C5A 3595   3.688  10.744   7.685  0.0612 -0.0215  0.1703
  225loPI   C6A 3596   3.265  10.806   7.443  0.1508 -0.0444  0.0392
  225loPI   C1B 3597   4.668  11.256   8.981  0.1753 -0.1688  0.0089
  225loPI   C2B 3598   4.674  11.221   8.489 -0.1671 -0.4955 -0.2215
  225loPI   C3B 3599   4.769  10.883   8.276 -0.0721  0.1695  0.2191
  225loPI   C4B 3600   4.826  10.760   7.868 -0.0699 -0.0543  0.2971
  226loPI    C1 3601   8.653  14.627  10.070  0.1593  0.0093  0.4225
  226loPI    C2 3602   8.919  14.336  10.003  0.0336  0.0487 -0.3390
  226loPI    C3 3603   8.552  14.244  10.132  0.1520 -0.0782 -0.0850
  226loPI   PO4 3604   8.677  14.867   9.819 -0.0776 -0.1642  0.2268
  226loPI   GL1 3605   8.651  15.270   9.563  0.1073  0.2136  0.4617
  226loPI   GL2 3606   8.407  15.392   9.561 -0.1107  0.2725  0.0545
  226loPI   C1A 3607   8.652  15.183   9.131 -0.2225 -0.2475  0.1417
  226loPI   C2A 3608   8.683  15.207   8.719  0.0907  0.0128 -0.1850
  226loPI   C3A 3609   8.644  15.334   8.246 -0.0804 -0.0786 -0.2663
  226loPI   C4A 3610   8.525  15.415   7.793 -0.0878  0.1450 -0.0943
  226loPI   C5A 3611   8.194  15.422   7.662 -0.1248 -0.2014 -0.2216
  226loPI   C6A 3612   7.844  15.376   7.354  0.0871  0.2858 -0.0381
  226loPI   C1B 3613   8.329  15.653   9.195 -0.1425  0.0569 -0.2833
  226loPI   C2B 3614   8.350  15.845   8.790  0.1127  0.1280  0.3965
  226loPI   C3B 3615   8.219  15.702   8.426 -0.1406  0.1999  0.3537
  226loPI   C4B 3616   8.174  15.812   7.977  0.0398  0.3008 -0.0516
  227loPI    C1 3617   2.592   9.534  10.165  0.1356 -0.1384 -0.0768
  227loPI    C2 3618   2.625   9.562  10.562  0.0799  0.0304 -0.0833
  227loPI    C3 3619   2.617   9.893  10.338  0.0197 -0.0612 -0.2180
  227loPI   PO4 3620   2.385   9.407  10.156 -0.2109 -0.2560  0.4255
  227loPI   GL1 3621   2.319   9.192   9.727  0.0712 -0.0830  0.2671
  227loPI   GL2 3622   2.656   9.239   9.741  0.2611 -0.2743 -0.0296
  227loPI   C1A 3623   2.156   9.085   9.274 -0.3743 -0.0155 -0.0198
  227loPI   C2A 3624   1.997   8.993   8.955 -0.0846 -0.1829  0.0923
  227loPI   C3A 3625   1.956   9.110   8.651 -0.0123  0.0105 -0.0425
  227loPI   C4A 3626   1.709   9.373   8.449  0.0875 -0.2613 -0.2293
  227loPI   C5A 3627   1.557   9.343   8.020 -0.0644 -0.0574 -0.1615
  227loPI   C6A 3628   1.849   9.151   7.658 -0.0129  0.2283  0.0646
  227loPI   C1B 3629   2.659   9.140   9.366 -0.3516 -0.2295  0.1435
  227loPI   C2B 3630   2.535   8.945   8.953 -0.0517 -0.0147  0.1024
  227loPI   C3B 3631   2.421   8.911   8.551 -0.1548 -0.0357  0.0192
  227loPI   C4B 3632   2.514   8.909   8.085  0.2770  0.0391 -0.1599
  228loPI    C1 3633  10.965   0.369  10.398  0.0333  0.0449  0.0431
  228loPI    C2 3634  10.892   0.650  10.122  0.0665 -0.0722 -0.0860
  228loPI    C3 3635  11.104   0.741  10.449 -0.0263  0.0831 -0.0679
  228loPI   PO4 3636  10.963   0.159  10.200  0.0877 -0.1553 -0.0668
  228loPI   GL1 3637  11.024   0.216   9.816  0.2479  0.1786 -0.0840
  228loPI   GL2 3638  11.303   0.232   9.615 -0.2135 -0.2697  0.1664
  228loPI   C1A 3639  10.810   0.292   9.428 -0.0552 -0.0654 -0.0460
  228loPI   C2A 3640  10.927   0.431   8.909 -0.0753  0.2673  0.1704
  228loPI   C3A 3641  11.052   0.450   8.472 -0.0498  0.0203 -0.0173
  228loPI   C4A 3642  11.385   0.578   8.265 -0.0666  0.2100  0.1138
  228loPI   C5A 3643  11.807   0.342   8.010 -0.1247  0.0052  0.1374
  228loPI   C6A 3644  12.055   0.067   8.219 -0.0291 -0.5296  0.0960
  228loPI   C1B 3645  11.313   0.379   9.209 -0.1036  0.2110  0.1223
  228loPI   C2B 3646  11.421   0.588   8.807  0.1353 -0.0321 -0.4723
  228loPI   C3B 3647  11.533   0.938   8.696 -0.1051  0.0191  0.0086
  228loPI   C4B 3648  11.721   1.211   8.378  0.2230  0.4022  0.4068
  229loPI    C1 3649  12.413   4.823  10.217  0.3262  0.3319  0.1528
  229loPI    C2 3650  12.314   4.478  10.395  0.1294  0.3518  0.0841
  229loPI    C3 3651  12.256   4.825  10.585  0.1136  0.3604  0.0638
  229loPI   PO4 3652  12.567   4.862  10.132  0.5962  0.1038 -0.1123
  229loPI   GL1 3653  12.713   4.622   9.829 -0.0946  0.0491  0.2168
  229loPI   GL2 3654  12.470   4.382   9.940  0.2069 -0.0254  0.1220
  229loPI   C1A 3655  12.866   4.956   9.433  0.2723 -0.0376  0.3012
  229loPI   C2A 3656  13.018   5.204   9.013  0.1651  0.3671 -0.1322
  229loPI   C3A 3657  13.026   5.347   8.630  0.3870 -0.0002 -0.0189
  229loPI   C4A 3658  13.206   5.287   8.338 -0.2585 -0.0826 -0.0555
  229loPI   C5A 3659  13.130   5.152   7.959 -0.1388 -0.1743  0.4332
  229loPI   C6A 3660  13.185   4.785   7.807  0.3398  0.2664  0.0683
  229loPI   C1B 3661  12.571   4.227   9.496  0.0982  0.0457  0.0881
  229loPI   C2B 3662  12.552   4.018   9.114  0.0552  0.0599  0.0429
  229loPI   C3B 3663  12.609   4.040   8.699  0.2419  0.0535 -0.3281
  229loPI   C4B 3664  12.265   4.003   8.515 -0.2745 -0.1661 -0.3165
  230loPI    C1 3665   2.859   8.250  10.202 -0.0860 -0.1471  0.0789
  230loPI    C2 3666   2.685   8.259  10.562 -0.1130  0.1585  0.0607
  230loPI    C3 3667   2.919   8.562  10.446 -0.0180  0.0108 -0.1369
  230loPI   PO4 3668   2.712   8.260  10.042  0.0167 -0.1165  0.1956
  230loPI   GL1 3669   2.771   8.056   9.715  0.0356  0.1156  0.0663
  230loPI   GL2 3670   2.701   7.760   9.490 -0.0787  0.1707  0.1327
  230loPI   C1A 3671   2.989   8.208   9.237  0.2371  0.0722 -0.0692
  230loPI   C2A 3672   2.984   8.077   8.849  0.3103 -0.1414  0.1964
  230loPI   C3A 3673   2.934   8.092   8.406 -0.1840 -0.0791 -0.2187
  230loPI   C4A 3674   2.922   8.183   7.947 -0.0544 -0.1120 -0.0055
  230loPI   C5A 3675   3.073   8.294   7.590 -0.0638  0.0020  0.2679
  230loPI   C6A 3676   3.079   8.213   7.184  0.0662  0.0717 -0.1343
  230loPI   C1B 3677   2.819   7.573   8.980  0.0214 -0.0066  0.3178
  230loPI   C2B 3678   3.095   7.505   8.597  0.0405 -0.2042 -0.0246
  230loPI   C3B 3679   3.141   7.667   8.250  0.0740 -0.1716 -0.0904
  230loPI   C4B 3680   3.485   7.684   7.969 -0.3436  0.1730 -0.1387
  231loPI    C1 3681   6.439   9.842   9.729  0.2607  0.2846  0.0149
  231loPI    C2 3682   6.481   9.792  10.123  0.2639  0.0308 -0.0163
  231loPI    C3 3683   6.207  10.047   9.982  0.0790 -0.0749  0.1463
  231loPI   PO4 3684   6.578   9.580   9.681 -0.1244  0.0061  0.2464
  231loPI   GL1 3685   6.748   9.156   9.604  0.0251  0.3460  0.0152
  231loPI   GL2 3686   6.950   8.976   9.701 -0.0805  0.0743  0.2474
  231loPI   C1A 3687   6.729   9.179   9.180  0.3247 -0.0013  0.0646
  231loPI   C2A 3688   6.933   9.118   8.828 -0.2293 -0.3434 -0.4911
  231loPI   C3A 3689   7.200   8.772   8.810 -0.1404  0.0219 -0.0741
  231loPI   C4A 3690   7.408   8.688   8.420 -0.0862 -0.0693 -0.3478
  231loPI   C5A 3691   7.688   8.931   8.062 -0.2141 -0.0506 -0.0604
  231loPI   C6A 3692   8.115   9.057   8.098 -0.2856 -0.1311 -0.1454
  231loPI   C1B 3693   7.205   8.959   9.427 -0.2388  0.1050 -0.1311
  231loPI   C2B 3694   7.448   9.158   9.042 -0.2000 -0.0420  0.0953
  231loPI   C3B 3695   7.584   9.121   8.657 -0.0349  0.1908  0.0862
  231loPI   C4B 3696   7.699   9.342   8.311  0.1763  0.1809 -0.1777
  232loPI    C1 3697  16.854  13.185  10.168 -0.1096  0.1487  0.0841
  232loPI    C2 3698  17.087  13.433  10.378 -0.0447  0.2233 -0.0744
  232loPI    C3 3699  16.719  13.346  10.509  0.0552  0.1381  0.1551
  232loPI   PO4 3700  16.868  13.290   9.895 -0.1830  0.2419 -0.0163
  232loPI   GL1 3701  16.971  13.081   9.478  0.0002 -0.2165 -0.3105
  232loPI   GL2 3702  17.220  13.277   9.438  0.1302  0.0281 -0.0616
  232loPI   C1A 3703  16.876  12.845   9.057 -0.2295  0.0783  0.2238
  232loPI   C2A 3704  16.913  12.591   8.697 -0.3170  0.0799 -0.1580
  232loPI   C3A 3705  16.755  12.609   8.309  0.1441  0.5156  0.3678
  232loPI   C4A 3706  16.778  12.499   7.908 -0.2322 -0.1714  0.2505
  232loPI   C5A 3707  16.926  12.680   7.535 -0.1232 -0.2979  0.0055
  232loPI   C6A 3708  17.163  13.013   7.531  0.1279  0.3379  0.1924
  232loPI   C1B 3709  17.064  13.303   9.033 -0.4405  0.0303  0.0361
  232loPI   C2B 3710  16.824  13.193   8.677 -0.0671  0.2077  0.1604
  232loPI   C3B 3711  16.569  13.322   8.359  0.3379 -0.0541  0.0920
  232loPI   C4B 3712  16.408  13.798   8.076 -0.2827  0.1799 -0.1039
  233loPI    C1 3713   5.506   5.908  10.048 -0.2961 -0.0995  0.0264
  233loPI    C2 3714   5.237   5.726  10.282  0.0365 -0.1371  0.3907
  233loPI    C3 3715   5.524   5.952  10.445  0.1693 -0.0162  0.0019
  233loPI   PO4 3716   5.569   5.660   9.864 -0.0123 -0.1950  0.0358
  233loPI   GL1 3717   5.732   5.299   9.605  0.1904 -0.1467 -0.1262
  233loPI   GL2 3718   5.938   5.422   9.469 -0.3773 -0.0058 -0.1797
  233loPI   C1A 3719   5.412   5.140   9.349 -0.4751  0.1870  0.1196
  233loPI   C2A 3720   5.339   5.101   8.865  0.2083  0.0089  0.1831
  233loPI   C3A 3721   5.305   5.232   8.484 -0.0812  0.4686  0.0687
  233loPI   C4A 3722   5.070   5.429   8.153  0.3415  0.4132  0.0410
  233loPI   C5A 3723   5.082   5.756   7.897  0.1102 -0.0680  0.2175
  233loPI   C6A 3724   5.236   5.897   7.560 -0.2036 -0.1036  0.1862
  233loPI   C1B 3725   6.148   5.367   9.183 -0.0407  0.1119  0.0326
  233loPI   C2B 3726   6.207   5.428   8.755  0.0728 -0.1328 -0.3093
  233loPI   C3B 3727   6.119   5.350   8.344 -0.0388  0.1034 -0.2084
  233loPI   C4B 3728   5.925   5.197   7.930 -0.1602  0.1104 -0.1073
  234loPI    C1 3729   2.441  12.793  10.091 -0.0713 -0.1138 -0.0454
  234loPI    C2 3730   2.693  12.981  10.339 -0.1309 -0.0439 -0.0375
  234loPI    C3 3731   2.450  12.695  10.479  0.0018 -0.1695 -0.0609
  234loPI   PO4 3732   2.570  12.698   9.854 -0.4766 -0.3763  0.2386
  234loPI   GL1 3733   2.451  12.488   9.479 -0.1563 -0.1398 -0.2924
  234loPI   GL2 3734   2.543  12.235   9.382  0.1003 -0.1648  0.0420
  234loPI   C1A 3735   2.335  12.652   9.103  0.0346 -0.2522 -0.3560
  234loPI   C2A 3736   2.164  12.639   8.672 -0.1262 -0.0082 -0.0906
  234loPI   C3A 3737   2.189  12.685   8.285  0.2892  0.0114 -0.0873
  234loPI   C4A 3738   2.071  12.837   7.847 -0.1954  0.1551 -0.1340
  234loPI   C5A 3739   1.767  12.879   7.452  0.1250 -0.0859 -0.1387
  234loPI   C6A 3740   1.757  12.880   7.007 -0.1693  0.2722  0.2854
  234loPI   C1B 3741   2.503  12.228   8.874  0.3848  0.1872 -0.0303
  234loPI   C2B 3742   2.376  12.190   8.470  0.0268 -0.0670 -0.0780
  234loPI   C3B 3743   2.385  12.096   8.062 -0.1713 -0.4191  0.1094
  234loPI   C4B 3744   2.195  12.021   7.713 -0.0686 -0.0096 -0.0992
  235loPI    C1 3745   6.796   7.694  10.340  0.0897 -0.0786 -0.1094
  235loPI    C2 3746   7.086   7.670  10.615  0.1225 -0.0981 -0.1455
  235loPI    C3 3747   6.771   7.910  10.675  0.1434 -0.0811 -0.1038
  235loPI   PO4 3748   6.821   7.466  10.249 -0.4214 -0.2024  0.1015
  235loPI   GL1 3749   6.929   7.375   9.862 -0.0832 -0.0609  0.1342
  235loPI   GL2 3750   6.931   7.134   9.628  0.2399 -0.3396  0.2911
  235loPI   C1A 3751   6.694   7.604   9.475  0.0127  0.0486 -0.1288
  235loPI   C2A 3752   6.644   7.531   9.024 -0.0688 -0.1231  0.2086
  235loPI   C3A 3753   6.615   7.497   8.580 -0.2308 -0.0719 -0.0991
  235loPI   C4A 3754   6.632   7.349   8.172 -0.0352 -0.0760  0.0454
  235loPI   C5A 3755   6.794   7.267   7.754  0.0834  0.0480  0.0757
  235loPI   C6A 3756   6.953   7.148   7.323 -0.0704 -0.2044 -0.2093
  235loPI   C1B 3757   6.987   7.172   9.233 -0.0509  0.2122  0.0797
  235loPI   C2B 3758   6.982   7.201   8.874  0.2522 -0.0646  0.0591
  235loPI   C3B 3759   6.939   6.965   8.551  0.1589 -0.3309  0.2421
  235loPI   C4B 3760   6.982   6.970   8.174 -0.2238  0.1399  0.1513
  236loPI    C1 3761   3.208  14.829   9.966  0.1370  0.1005 -0.1010
  236loPI    C2 3762   3.314  15.063  10.273  0.1552 -0.2967  0.2023
  236loPI    C3 3763   3.595  14.897  10.042  0.1443 -0.0900  0.0376
  236loPI   PO4 3764   3.030  15.013   9.845  0.1116 -0.0931  0.2785
  236loPI   GL1 3765   2.896  14.757   9.431 -0.2296  0.0267  0.0075
  236loPI   GL2 3766   2.621  14.726   9.355  0.2429  0.0390 -0.3242
  236loPI   C1A 3767   2.915  14.615   9.026 -0.0010 -0.2216  0.0999
  236loPI   C2A 3768   3.058  14.486   8.580  0.2512 -0.1277 -0.2051
  236loPI   C3A 3769   3.053  14.224   8.367 -0.3493  0.1379  0.2847
  236loPI   C4A 3770   2.884  13.976   8.030 -0.1650 -0.0190 -0.1079
  236loPI   C5A 3771   3.048  13.599   7.890 -0.1561 -0.3562 -0.0796
  236loPI   C6A 3772   2.897  13.323   7.589  0.2045 -0.2896 -0.0187
  236loPI   C1B 3773   2.291  14.683   9.125 -0.3267  0.0726 -0.1327
  236loPI   C2B 3774   2.209  14.710   8.755 -0.3487  0.1494  0.4031
  236loPI   C3B 3775   2.000  14.607   8.319  0.3720 -0.1284 -0.0203
  236loPI   C4B 3776   2.072  14.433   7.880 -0.2969  0.0828 -0.1833
  237loPI    C1 3777  15.588  11.920  10.415 -0.0069  0.1331  0.0047
  237loPI    C2 3778  15.978  12.005  10.427  0.0096  0.0661 -0.0572
  237loPI    C3 3779  15.749  12.071  10.748  0.1805 -0.4147  0.1735
  237loPI   PO4 3780  15.506  11.915  10.164  0.0244 -0.3080 -0.1243
  237loPI   GL1 3781  15.534  12.115   9.717 -0.0374 -0.0392  0.0817
  237loPI   GL2 3782  15.192  12.081   9.523 -0.3822 -0.2332 -0.0442
  237loPI   C1A 3783  15.557  12.089   9.241 -0.2172 -0.1318 -0.2427
  237loPI   C2A 3784  15.477  12.262   8.882  0.0825 -0.1136 -0.2317
  237loPI   C3A 3785  15.410  12.266   8.463  0.2850  0.1613  0.0291
  237loPI   C4A 3786  15.623  12.089   8.060 -0.0236  0.3582 -0.2168
  237loPI   C5A 3787  15.579  11.965   7.712  0.1807 -0.1785 -0.2288
  237loPI   C6A 3788  15.265  12.157   7.500 -0.1376 -0.0011 -0.0203
  237loPI   C1B 3789  15.021  12.343   9.209  0.0153 -0.3342  0.2077
  237loPI   C2B 3790  15.019  12.467   8.810  0.2863  0.2271 -0.2868
  237loPI   C3B 3791  14.942  12.430   8.310 -0.1791 -0.3216 -0.2432
  237loPI   C4B 3792  15.136  12.241   7.976 -0.1213 -0.0432 -0.0925
  238loPI    C1 3793   5.355  11.482   9.954 -0.0689  0.0110  0.0547
  238loPI    C2 3794   5.520  11.239  10.225  0.1096 -0.0624 -0.1168
  238loPI    C3 3795   5.243  11.505  10.337 -0.1328 -0.3829  0.0644
  238loPI   PO4 3796   5.350  11.286   9.752  0.0465  0.0815  0.3868
  238loPI   GL1 3797   5.588  11.042   9.442  0.1261 -0.1263  0.5427
  238loPI   GL2 3798   5.486  10.879   9.244  0.1608  0.4303  0.0862
  238loPI   C1A 3799   5.681  11.325   9.061 -0.0288  0.0337  0.0695
  238loPI   C2A 3800   5.580  11.394   8.622  0.1409 -0.0904  0.1981
  238loPI   C3A 3801   5.547  11.266   8.178  0.0540  0.0291 -0.0725
  238loPI   C4A 3802   5.593  11.111   7.700  0.0802  0.0655  0.0726
  238loPI   C5A 3803   5.916  11.003   7.459 -0.2256 -0.0391 -0.1433
  238loPI   C6A 3804   6.202  10.914   7.203 -0.2139 -0.0902 -0.3189
  238loPI   C1B 3805   5.568  10.856   8.822  0.1005  0.0331  0.0643
  238loPI   C2B 3806   5.811  10.911   8.398  0.1906 -0.2506 -0.0409
  238loPI   C3B 3807   5.920  10.790   7.920  0.2447  0.6609 -0.2880
  238loPI   C4B 3808   6.286  10.765   7.695  0.0283 -0.3266  0.4547
  239loPI    C1 3809  10.369  15.826  10.410 -0.3646  0.2146  0.0473
  239loPI    C2 3810  10.562  16.083  10.647  0.0474 -0.0494  0.0093
  239loPI    C3 3811  10.240  15.889  10.783 -0.0224  0.1787  0.1759
  239loPI   PO4 3812  10.372  16.000  10.198 -0.1961  0.1572 -0.1553
  239loPI   GL1 3813  10.172  16.122   9.784  0.3093  0.1500  0.0981
  239loPI   GL2 3814  10.121  16.309   9.545  0.0786 -0.0126 -0.0579
  239loPI   C1A 3815  10.192  15.729   9.483 -0.1699  0.0321  0.1259
  239loPI   C2A 3816  10.364  15.475   9.222  0.0205  0.4024 -0.0186
  239loPI   C3A 3817  10.389  15.448   8.838 -0.1880  0.1275 -0.0407
  239loPI   C4A 3818  10.479  15.524   8.438 -0.1672 -0.3264 -0.1737
  239loPI   C5A 3819  10.720  15.536   8.130  0.0774 -0.0536  0.0361
  239loPI   C6A 3820  11.052  15.823   7.958  0.1177  0.2327  0.0019
  239loPI   C1B 3821  10.195  16.332   9.040 -0.1191 -0.0078 -0.0685
  239loPI   C2B 3822  10.155  16.446   8.684  0.4152  0.0192  0.0778
  239loPI   C3B 3823  10.183  16.508   8.291  0.1557  0.3458 -0.0092
  239loPI   C4B 3824  10.190  16.727   7.964  0.2917 -0.0265  0.2442
  240loPI    C1 3825  17.925   8.504  10.050 -0.0133 -0.1192  0.1464
  240loPI    C2 3826  18.316   8.440  10.103  0.0247  0.0193  0.0397
  240loPI    C3 3827  18.095   8.586  10.403  0.1096  0.1964  0.0172
  240loPI   PO4 3828  17.945   8.540   9.716 -0.0153 -0.4569  0.0629
  240loPI   GL1 3829  18.143   8.523   9.369 -0.0757  0.2588  0.1732
  240loPI   GL2 3830  18.235   8.687   9.117  0.1946 -0.1698  0.3691
  240loPI   C1A 3831  17.833   8.483   8.997 -0.1416 -0.1496  0.1377
  240loPI   C2A 3832  17.589   8.425   8.574  0.2248  0.0145  0.1793
  240loPI   C3A 3833  17.469   8.472   8.112 -0.2948 -0.1676  0.0511
  240loPI   C4A 3834  17.308   8.088   7.855 -0.2656  0.1368  0.2422
  240loPI   C5A 3835  17.077   7.820   7.718 -0.2028  0.0507  0.0985
  240loPI   C6A 3836  16.654   7.623   7.705 -0.2385  0.1166 -0.0602
  240loPI   C1B 3837  18.519   8.523   8.805  0.1552 -0.1066 -0.2452
  240loPI   C2B 3838  18.280   8.259   8.377  0.1894  0.1287  0.0310
  240loPI   C3B 3839  18.442   8.004   7.999 -0.1827 -0.0941 -0.2916
  240loPI   C4B 3840  18.112   7.897   7.693 -0.1315  0.1120  0.0348
  241loPI    C1 3841   0.679  18.623  10.053  0.1956  0.1934  0.1462
  241loPI    C2 3842   0.439  18.502  10.349  0.0101 -0.1505 -0.1360
  241loPI    C3 3843   0.822  18.389  10.344 -0.0955 -0.5190 -0.2539
  241loPI   PO4 3844   0.511  18.635   9.806 -0.2786 -0.2450 -0.1409
  241loPI   GL1 3845   0.553  18.767   9.457  0.1161 -0.1596  0.0874
  241loPI   GL2 3846   0.691  19.056   9.593  0.2641  0.1221 -0.1999
  241loPI   C1A 3847   0.354  18.756   9.069  0.3063 -0.2386  0.0719
  241loPI   C2A 3848   0.237  18.797   8.738 -0.0897 -0.0698  0.4435
  241loPI   C3A 3849   0.026  18.586   8.379  0.0361  0.1298 -0.2218
  241loPI   C4A 3850  -0.086  18.400   7.998 -0.0411  0.2350  0.2017
  241loPI   C5A 3851  -0.466  18.510   7.818 -0.0762  0.2905  0.0185
  241loPI   C6A 3852  -0.773  18.811   7.668 -0.1234 -0.1783 -0.2752
  241loPI   C1B 3853   0.772  19.078   9.137  0.1342 -0.1212 -0.0416
  241loPI   C2B 3854   0.704  18.945   8.707 -0.3069  0.3619 -0.4257
  241loPI   C3B 3855   0.575  18.716   8.275 -0.1102  0.1275  0.1056
  241loPI   C4B 3856   0.314  18.747   7.794  0.0047  0.0587 -0.1950
  242loPI    C1 3857   5.487  18.615  10.032 -0.1831  0.0087  0.0404
  242loPI    C2 3858   5.247  18.340  10.196 -0.1043 -0.0544  0.0506
  242loPI    C3 3859   5.339  18.672  10.400 -0.0152 -0.1277  0.1307
  242loPI   PO4 3860   5.389  18.752   9.788  0.1276  0.1719  0.0698
  242loPI   GL1 3861   5.423  18.703   9.350 -0.0686 -0.2249  0.2258
  242loPI   GL2 3862   5.752  18.804   9.324  0.0140  0.0946  0.1438
  242loPI   C1A 3863   5.363  18.755   8.953 -0.1385  0.0329 -0.1406
  242loPI   C2A 3864   5.194  18.837   8.559  0.0798 -0.5435 -0.1859
  242loPI   C3A 3865   5.393  18.860   8.200 -0.1753  0.0953  0.4712
  242loPI   C4A 3866   5.392  18.582   7.841  0.0680 -0.2735 -0.0228
  242loPI   C5A 3867   5.438  18.240   7.516 -0.0333 -0.1377 -0.2669
  242loPI   C6A 3868   5.499  18.061   7.137  0.1597 -0.0271  0.1709
  242loPI   C1B 3869   5.864  18.626   8.913 -0.1013 -0.1117  0.0585
  242loPI   C2B 3870   6.146  18.788   8.544  0.2486  0.0425 -0.0868
  242loPI   C3B 3871   6.085  18.750   8.112  0.1781  0.0813 -0.2975
  242loPI   C4B 3872   5.836  18.768   7.808 -0.3209  0.0800 -0.1106
  243loPI    C1 3873   1.516   5.991  10.104 -0.0614  0.1091  0.0615
  243loPI    C2 3874   1.332   6.111  10.439 -0.1277 -0.0498  0.0831
  243loPI    C3 3875   1.636   5.852  10.460 -0.1377 -0.0668  0.0197
  243loPI   PO4 3876   1.378   5.952   9.918  0.0929 -0.1121  0.1007
  243loPI   GL1 3877   1.163   5.834   9.674  0.0953  0.3330 -0.4499
  243loPI   GL2 3878   1.265   5.539   9.664  0.1884  0.2090 -0.0252
  243loPI   C1A 3879   0.868   5.703   9.307 -0.1960 -0.3418 -0.1779
  243loPI   C2A 3880   0.800   5.685   8.894 -0.0087 -0.2790  0.1632
  243loPI   C3A 3881   0.603   5.548   8.540 -0.1432 -0.1427 -0.0529
  243loPI   C4A 3882   0.529   5.340   8.083 -0.0559 -0.0990 -0.1223
  243loPI   C5A 3883   0.393   5.115   7.718 -0.1381  0.0002  0.0322
  243loPI   C6A 3884   0.273   5.418   7.572  0.0834  0.2280 -0.0446
  243loPI   C1B 3885   1.492   5.471   9.420  0.1520  0.1741  0.2929
  243loPI   C2B 3886   1.417   5.478   8.907 -0.3149 -0.1156 -0.1175
  243loPI   C3B 3887   1.266   5.231   8.582 -0.2175  0.0717 -0.0336
  243loPI   C4B 3888   1.062   5.435   8.239 -0.3378 -0.0536  0.0891
  244loPI    C1 3889   7.718  10.771  10.035 -0.0356 -0.1276 -0.0057
  244loPI    C2 3890   7.374  10.970  10.079 -0.0770 -0.1688 -0.1370
  244loPI    C3 3891   7.422  10.612  10.252 -0.0819 -0.1414 -0.0787
  244loPI   PO4 3892   7.781  10.826   9.800 -0.1976 -0.0864 -0.0478
  244loPI   GL1 3893   7.723  10.534   9.436 -0.1401  0.2881 -0.0563
  244loPI   GL2 3894   8.007  10.460   9.536  0.1168  0.0768  0.0003
  244loPI   C1A 3895   8.044  10.553   9.017  0.1958  0.0516  0.0970
  244loPI   C2A 3896   8.220  10.709   8.710 -0.1584  0.0327  0.2058
  244loPI   C3A 3897   8.523  10.859   8.349  0.4316  0.0655  0.0639
  244loPI   C4A 3898   8.354  10.887   7.892 -0.1269 -0.2836 -0.2255
  244loPI   C5A 3899   7.998  10.876   7.689  0.3420  0.1157  0.1612
  244loPI   C6A 3900   7.599  11.009   7.684 -0.2005  0.0104  0.4384
  244loPI   C1B 3901   8.455  10.418   9.348  0.2633 -0.0137  0.2645
  244loPI   C2B 3902   8.509  10.388   8.939 -0.1550  0.0409 -0.0722
  244loPI   C3B 3903   8.564  10.371   8.485 -0.1577  0.2162  0.1390
  244loPI   C4B 3904   8.514  10.080   8.254 -0.1653 -0.1760 -0.2824
  245loPI    C1 3905   8.274   7.710   9.980  0.0351 -0.0351  0.0899
  245loPI    C2 3906   8.252   7.775  10.374  0.1190 -0.0342  0.0945
  245loPI    C3 3907   7.984   7.942  10.129 -0.0339 -0.1693  0.1673
  245loPI   PO4 3908   8.491   7.673   9.867 -0.1363 -0.2587 -0.0074
  245loPI   GL1 3909   8.539   7.562   9.548  0.1103 -0.2089  0.0017
  245loPI   GL2 3910   8.074   7.743   9.516  0.2479  0.2207  0.2922
  245loPI   C1A 3911   8.434   7.207   9.261  0.2253  0.0017  0.1369
  245loPI   C2A 3912   8.464   7.234   8.822 -0.0794 -0.0724  0.0131
  245loPI   C3A 3913   8.345   7.379   8.332  0.2811 -0.1133 -0.1965
  245loPI   C4A 3914   8.285   7.656   7.911 -0.0838 -0.0038 -0.2086
  245loPI   C5A 3915   8.257   8.087   7.743  0.2185  0.4349 -0.1196
  245loPI   C6A 3916   8.141   8.373   7.415 -0.1899 -0.1128 -0.2178
  245loPI   C1B 3917   8.116   7.606   9.129 -0.1405 -0.0645 -0.0465
  245loPI   C2B 3918   8.092   7.578   8.768  0.2787  0.0236  0.3443
  245loPI   C3B 3919   8.077   7.782   8.444 -0.1660  0.1242  0.2742
  245loPI   C4B 3920   7.812   7.818   8.030  0.2122 -0.0013 -0.2942
  246loPI    C1 3921   9.595   9.721  10.102  0.0223  0.3155  0.0049
  246loPI    C2 3922   9.484  10.049  10.302  0.0455  0.2467  0.1316
  246loPI    C3 3923   9.713   9.774  10.480  0.2142  0.2690 -0.0474
  246loPI   PO4 3924   9.306   9.769   9.903  0.1793  0.2941  0.1489
  246loPI   GL1 3925   9.171   9.888   9.480  0.1124 -0.2981 -0.0289
  246loPI   GL2 3926   9.497   9.902   9.445  0.2621 -0.2054 -0.0171
  246loPI   C1A 3927   9.235   9.675   9.085 -0.1990  0.0904  0.0156
  246loPI   C2A 3928   9.184   9.657   8.764 -0.1086 -0.2032  0.1604
  246loPI   C3A 3929   9.327   9.624   8.379  0.1333 -0.0032 -0.1370
  246loPI   C4A 3930   9.386   9.244   8.225 -0.1429 -0.0827 -0.1590
  246loPI   C5A 3931   9.429   9.024   7.821 -0.0636 -0.1492 -0.1496
  246loPI   C6A 3932   9.367   8.966   7.401  0.2611 -0.2042 -0.0783
  246loPI   C1B 3933   9.498  10.112   9.085 -0.3320  0.3281  0.0368
  246loPI   C2B 3934   9.828  10.248   8.819  0.3539  0.3812 -0.0931
  246loPI   C3B 3935   9.950  10.409   8.450 -0.2536  0.0869  0.2186
  246loPI   C4B 3936  10.328  10.581   8.327 -0.0586  0.0488 -0.0556
  247loPI    C1 3937   2.670  15.324  10.108  0.1424  0.0001 -0.0409
  247loPI    C2 3938   2.597  15.459  10.477  0.0576  0.0640 -0.0805
  247loPI    C3 3939   2.974  15.430  10.345  0.0787  0.2263 -0.0581
  247loPI   PO4 3940   2.454  15.550   9.927 -0.2148  0.2776  0.0741
  247loPI   GL1 3941   2.201  15.867   9.660  0.0600  0.0602 -0.1419
  247loPI   GL2 3942   1.925  15.763   9.501  0.2543 -0.0513 -0.0191
  247loPI   C1A 3943   2.220  16.113   9.245 -0.1457  0.0842  0.2907
  247loPI   C2A 3944   2.164  16.060   8.799 -0.1400 -0.0892 -0.0923
  247loPI   C3A 3945   2.038  15.874   8.318  0.1831  0.2149  0.0492
  247loPI   C4A 3946   1.937  15.963   7.992  0.1534 -0.0175 -0.1337
  247loPI   C5A 3947   1.682  16.156   7.804  0.2186 -0.5139  0.3509
  247loPI   C6A 3948   1.573  16.300   7.341 -0.1748 -0.0241  0.2045
  247loPI   C1B 3949   2.003  15.721   9.060  0.2655  0.1595 -0.0561
  247loPI   C2B 3950   1.743  15.576   8.682 -0.1367 -0.0879 -0.0580
  247loPI   C3B 3951   1.658  15.550   8.262 -0.3020 -0.0519  0.4854
  247loPI   C4B 3952   1.669  15.591   7.799 -0.3216  0.1378  0.0702
  248loPI    C1 3953   4.148  18.387   9.817 -0.0251 -0.0741  0.0437
  248loPI    C2 3954   4.512  18.339   9.659  0.0925  0.1500  0.2399
  248loPI    C3 3955   4.463  18.324  10.056 -0.1395 -0.0356  0.2062
  248loPI   PO4 3956   3.990  18.574   9.519  0.0330 -0.0379  0.2853
  248loPI   GL1 3957   4.069  18.883   9.076 -0.1082 -0.1356 -0.0143
  248loPI   GL2 3958   4.068  18.555   9.073 -0.0230 -0.4365 -0.2555
  248loPI   C1A 3959   3.972  18.898   8.671 -0.1436  0.1132 -0.1312
  248loPI   C2A 3960   3.998  18.961   8.244  0.0858 -0.1053 -0.2412
  248loPI   C3A 3961   4.125  18.997   7.890 -0.0981 -0.4049  0.3285
  248loPI   C4A 3962   4.145  19.100   7.463  0.0152  0.1488 -0.1274
  248loPI   C5A 3963   4.271  19.278   7.089  0.0134  0.1115 -0.4758
  248loPI   C6A 3964   4.365  19.180   6.679  0.2257  0.2449 -0.3551
  248loPI   C1B 3965   4.199  18.443   8.569  0.0731 -0.3667  0.3282
  248loPI   C2B 3966   4.307  18.569   8.148 -0.0322 -0.2407  0.0235
  248loPI   C3B 3967   4.510  18.660   7.636 -0.1146 -0.2241 -0.2053
  248loPI   C4B 3968   4.558  18.847   7.155 -0.0665 -0.2546  0.1492
  249loPI    C1 3969   4.750   5.789   9.966 -0.0074 -0.2612  0.0210
  249loPI    C2 3970   5.087   5.948   9.819 -0.0576  0.0269  0.2099
  249loPI    C3 3971   5.052   5.551   9.856  0.1879 -0.0148  0.0152
  249loPI   PO4 3972   4.599   5.990   9.784 -0.1892  0.3521  0.1858
  249loPI   GL1 3973   4.665   6.096   9.500  0.1077  0.1065  0.0315
  249loPI   GL2 3974   4.830   5.844   9.301  0.1262  0.0203 -0.3661
  249loPI   C1A 3975   4.539   6.168   9.008  0.0478 -0.4082  0.0913
  249loPI   C2A 3976   4.563   6.191   8.656  0.2372  0.2774 -0.3938
  249loPI   C3A 3977   4.605   6.512   8.394 -0.0208  0.0040 -0.1031
  249loPI   C4A 3978   4.863   6.885   8.254 -0.0583  0.0540  0.2332
  249loPI   C5A 3979   5.020   6.977   7.909 -0.3408 -0.4010 -0.1495
  249loPI   C6A 3980   4.997   7.444   7.755  0.2457  0.2074  0.0527
  249loPI   C1B 3981   5.065   5.825   8.865 -0.2886  0.2397  0.0370
  249loPI   C2B 3982   5.267   5.905   8.433 -0.1012  0.2023  0.0318
  249loPI   C3B 3983   5.470   6.037   8.129 -0.0068 -0.0214 -0.1036
  249loPI   C4B 3984   5.584   6.463   8.240 -0.0164 -0.1111 -0.1896
  250loPI    C1 3985   9.285   4.993  10.396 -0.0267  0.0823  0.0152
  250loPI    C2 3986   9.599   4.746  10.383  0.0684  0.2070 -0.0693
  250loPI    C3 3987   9.348   4.733  10.694 -0.1441 -0.2588 -0.2509
  250loPI   PO4 3988   9.166   5.079  10.186 -0.0197 -0.0471  0.2568
  250loPI   GL1 3989   9.174   5.182   9.689 -0.2312  0.2611  0.1280
  250loPI   GL2 3990   9.328   4.893   9.663 -0.1449 -0.2991  0.1621
  250loPI   C1A 3991   8.905   5.063   9.297 -0.0675  0.0756 -0.0950
  250loPI   C2A 3992   8.907   5.240   8.877 -0.1958  0.2785  0.0563
  250loPI   C3A 3993   9.071   5.039   8.363 -0.0507  0.0688  0.2372
  250loPI   C4A 3994   8.906   4.882   8.067 -0.0080  0.0346 -0.3117
  250loPI   C5A 3995   8.627   4.768   7.740  0.1301  0.2868  0.2150
  250loPI   C6A 3996   8.182   4.591   7.781 -0.1132  0.1742 -0.0523
  250loPI   C1B 3997   9.389   4.973   9.236 -0.2315  0.4316 -0.0399
  250loPI   C2B 3998   9.398   5.070   8.742  0.2431 -0.0430 -0.0438
  250loPI   C3B 3999   9.585   5.167   8.288 -0.0349  0.0460 -0.2473
  250loPI   C4B 4000   9.915   5.350   7.870  0.2877 -0.0805  0.1546
  251loPI    C1 4001   1.348   1.484   9.662  0.0967  0.0545 -0.1047
  251loPI    C2 4002   1.342   1.633  10.033  0.1019 -0.0930 -0.0447
  251loPI    C3 4003   1.522   1.283   9.961  0.2027 -0.0086 -0.2080
  251loPI   PO4 4004   1.109   1.493   9.583 -0.0207  0.0179  0.2071
  251loPI   GL1 4005   1.023   1.637   9.215  0.1316 -0.1076  0.3696
  251loPI   GL2 4006   1.339   1.663   9.182  0.1781 -0.2056  0.3200
  251loPI   C1A 4007   0.639   1.669   8.945 -0.0306  0.1510 -0.1459
  251loPI   C2A 4008   0.283   1.597   8.605 -0.0548  0.0352  0.0830
  251loPI   C3A 4009   0.313   1.473   8.209  0.0731 -0.1526  0.2805
  251loPI   C4A 4010   0.350   1.245   7.884  0.0430 -0.1377  0.3389
  251loPI   C5A 4011  -0.100   1.134   7.649 -0.1020 -0.2771 -0.2511
  251loPI   C6A 4012  -0.194   0.717   7.515  0.0114 -0.0986 -0.0970
  251loPI   C1B 4013   1.323   1.611   8.729  0.1453  0.0624  0.2109
  251loPI   C2B 4014   1.172   1.593   8.341  0.2662  0.0208 -0.0672
  251loPI   C3B 4015   0.820   1.479   8.000  0.0557  0.2195  0.0180
  251loPI   C4B 4016   0.852   1.208   7.660 -0.1504  0.0113  0.1579
  252loPI    C1 4017  11.293  16.576  10.911  0.1207  0.0212 -0.0404
  252loPI    C2 4018  11.576  16.642  11.186 -0.0462 -0.2222  0.1953
  252loPI    C3 4019  11.207  16.537  11.300 -0.2820  0.2482 -0.1007
  252loPI   PO4 4020  11.283  16.790  10.622 -0.1543  0.1487  0.2210
  252loPI   GL1 4021  11.530  16.672  10.209 -0.3505 -0.0179  0.1480
  252loPI   GL2 4022  11.515  16.358   9.996 -0.0106 -0.0559 -0.0439
  252loPI   C1A 4023  11.752  16.967   9.871  0.0694  0.2148 -0.3674
  252loPI   C2A 4024  11.931  17.054   9.406  0.0250  0.0150  0.0043
  252loPI   C3A 4025  11.966  17.295   9.007  0.2828  0.3448  0.0351
  252loPI   C4A 4026  12.150  17.148   8.672 -0.1323 -0.0531  0.2025
  252loPI   C5A 4027  12.092  16.999   8.255  0.1686  0.2182 -0.2955
  252loPI   C6A 4028  12.035  16.562   7.984 -0.0139 -0.3870 -0.0079
  252loPI   C1B 4029  11.455  16.221   9.623 -0.0052 -0.0883 -0.2215
  252loPI   C2B 4030  11.540  16.068   9.185 -0.0309  0.2541  0.0073
  252loPI   C3B 4031  11.726  16.066   8.796  0.0122  0.0949 -0.1057
  252loPI   C4B 4032  11.782  16.164   8.381  0.0618  0.2038  0.0831
  253loPI    C1 4033   8.743   9.157  10.377 -0.2963  0.1743  0.0509
  253loPI    C2 4034   8.736   9.002  10.746  0.0729 -0.0226 -0.0200
  253loPI    C3 4035   8.735   9.399  10.696 -0.0068  0.0050  0.1909
  253loPI   PO4 4036   8.968   8.933  10.295 -0.1295 -0.0834 -0.0629
  253loPI   GL1 4037   9.080   8.988   9.853 -0.0737  0.2250  0.1446
  253loPI   GL2 4038   9.278   8.810   9.928 -0.3378 -0.1972  0.0531
  253loPI   C1A 4039   8.985   9.229   9.474 -0.2641 -0.1382  0.0198
  253loPI   C2A 4040   8.970   9.243   8.929  0.0251 -0.0058 -0.1324
  253loPI   C3A 4041   8.986   9.241   8.449  0.0494  0.0844  0.2033
  253loPI   C4A 4042   8.999   9.320   7.898 -0.4162 -0.0407  0.1084
  253loPI   C5A 4043   8.972   9.362   7.383 -0.0799  0.2181 -0.1651
  253loPI   C6A 4044   8.872   9.004   7.103 -0.3376  0.2411 -0.3659
  253loPI   C1B 4045   9.352   8.853   9.508  0.0494 -0.2091 -0.2769
  253loPI   C2B 4046   9.176   8.813   9.052 -0.3466  0.0004 -0.0879
  253loPI   C3B 4047   9.068   8.726   8.616 -0.1154 -0.0133  0.3836
  253loPI   C4B 4048   9.155   8.797   8.209 -0.0617 -0.1019  0.3179
  254loPI    C1 4049   6.803  10.262   9.982  0.0343 -0.0016 -0.2224
  254loPI    C2 4050   6.473  10.409  10.154  0.0148 -0.0415 -0.2254
  254loPI    C3 4051   6.783  10.297  10.380 -0.0449 -0.1774 -0.2099
  254loPI   PO4 4052   6.654  10.295   9.646  0.2347  0.0831 -0.1216
  254loPI   GL1 4053   6.725  10.019   9.286 -0.0759  0.0811  0.2362
  254loPI   GL2 4054   6.655   9.627   9.176  0.2680 -0.1483 -0.1990
  254loPI   C1A 4055   6.671  10.113   8.744  0.1634 -0.2120 -0.0386
  254loPI   C2A 4056   6.627  10.176   8.352 -0.1113 -0.1814 -0.4361
  254loPI   C3A 4057   6.618  10.333   7.915  0.2163 -0.3232 -0.3252
  254loPI   C4A 4058   6.872  10.765   7.570  0.0293 -0.1269 -0.0287
  254loPI   C5A 4059   6.706  11.034   7.264 -0.1150 -0.2238 -0.1849
  254loPI   C6A 4060   6.646  11.627   7.248  0.0306 -0.5749 -0.3044
  254loPI   C1B 4061   6.670   9.599   8.795  0.1090  0.1256  0.0472
  254loPI   C2B 4062   6.749   9.615   8.320  0.1180  0.1735 -0.0012
  254loPI   C3B 4063   6.448   9.755   8.067 -0.1584 -0.0774 -0.0974
  254loPI   C4B 4064   6.439   9.972   7.643  0.0577 -0.4135 -0.0173
  255loPI    C1 4065  14.004  16.447  10.356 -0.0671 -0.0706  0.1803
  255loPI    C2 4066  13.885  16.791  10.522  0.1451  0.0087  0.1721
  255loPI    C3 4067  14.272  16.692  10.524  0.0975 -0.1842  0.0859
  255loPI   PO4 4068  13.811  16.304  10.415 -0.0811 -0.3633 -0.0300
  255loPI   GL1 4069  13.536  16.314  10.082 -0.1607  0.0139  0.1423
  255loPI   GL2 4070  13.205  16.128   9.914  0.1278  0.0878 -0.2754
  255loPI   C1A 4071  13.375  16.601   9.868 -0.1205 -0.0412  0.4157
  255loPI   C2A 4072  13.085  16.576   9.491  0.0489  0.1676 -0.0727
  255loPI   C3A 4073  12.850  16.627   9.102 -0.1785  0.0015  0.1654
  255loPI   C4A 4074  12.900  16.703   8.651  0.2005 -0.2856 -0.3267
  255loPI   C5A 4075  12.816  16.935   8.428  0.0141 -0.0006  0.3149
  255loPI   C6A 4076  12.603  17.313   8.578  0.3885  0.2211  0.0327
  255loPI   C1B 4077  13.403  16.216   9.550 -0.1438  0.0769 -0.2991
  255loPI   C2B 4078  13.581  16.465   9.217  0.1680 -0.0914  0.0828
  255loPI   C3B 4079  13.694  16.555   8.799  0.0080  0.2339 -0.0656
  255loPI   C4B 4080  13.760  16.431   8.361  0.0361 -0.2214  0.0531
  256loPI    C1 4081   4.521   3.944   9.799 -0.0208 -0.0781 -0.2656
  256loPI    C2 4082   4.146   3.866   9.916  0.0990 -0.0479  0.1553
  256loPI    C3 4083   4.252   4.239   9.818 -0.0171 -0.0835 -0.1129
  256loPI   PO4 4084   4.602   3.918   9.641  0.0215 -0.1534 -0.0822
  256loPI   GL1 4085   4.870   3.999   9.321  0.3551  0.0231  0.2887
  256loPI   GL2 4086   5.192   4.031   9.347 -0.0565  0.0722 -0.1074
  256loPI   C1A 4087   4.935   4.352   9.041 -0.2412  0.1368  0.3666
  256loPI   C2A 4088   4.911   4.354   8.672 -0.1681 -0.0936 -0.1419
  256loPI   C3A 4089   4.939   4.279   8.228 -0.2981  0.2382 -0.0227
  256loPI   C4A 4090   4.831   4.300   7.895  0.0303 -0.2923  0.1335
  256loPI   C5A 4091   4.560   4.186   7.565  0.0149  0.0407 -0.3799
  256loPI   C6A 4092   4.428   4.266   7.217 -0.1844  0.2032  0.2746
  256loPI   C1B 4093   5.269   4.014   8.875 -0.0176 -0.0483  0.0477
  256loPI   C2B 4094   5.280   3.914   8.406  0.1507 -0.1369  0.0270
  256loPI   C3B 4095   5.340   4.044   8.032  0.0669 -0.1292 -0.1025
  256loPI   C4B 4096   5.345   4.579   7.876  0.0672 -0.1330  0.1497
  257loPI    C1 4097  15.573  10.246  10.206  0.0101  0.2053 -0.0755
  257loPI    C2 4098  15.758   9.895  10.256  0.1254  0.2873  0.0821
  257loPI    C3 4099  15.483  10.016  10.520 -0.0909  0.2067 -0.1031
  257loPI   PO4 4100  15.638  10.307   9.908 -0.3784 -0.3659 -0.1519
  257loPI   GL1 4101  15.711  10.251   9.445  0.1737  0.5456  0.1794
  257loPI   GL2 4102  15.485   9.950   9.395  0.0637  0.1669  0.1219
  257loPI   C1A 4103  16.008  10.303   9.082 -0.1086  0.2458  0.0767
  257loPI   C2A 4104  16.015  10.334   8.610  0.1942  0.2594  0.0140
  257loPI   C3A 4105  16.117  10.191   8.215 -0.1592 -0.2358  0.0729
  257loPI   C4A 4106  16.207  10.357   7.738 -0.1675 -0.3125 -0.0843
  257loPI   C5A 4107  16.303  10.737   7.608  0.0671 -0.0702 -0.0641
  257loPI   C6A 4108  16.667  10.952   7.447  0.2641 -0.0976  0.2316
  257loPI   C1B 4109  15.327   9.965   9.016  0.3717 -0.1832  0.4255
  257loPI   C2B 4110  15.257   9.861   8.551  0.0524  0.0983  0.1033
  257loPI   C3B 4111  15.282   9.425   8.250  0.0099 -0.1068  0.0992
  257loPI   C4B 4112  14.932   9.131   7.966  0.0957 -0.1669  0.0517
  258loPI    C1 4113   2.255   4.895   9.899  0.0582 -0.0357 -0.0125
  258loPI    C2 4114   2.148   5.191  10.147 -0.3356 -0.0513 -0.1564
  258loPI    C3 4115   2.489   4.990  10.209 -0.0992  0.3813 -0.0150
  258loPI   PO4 4116   2.200   5.021   9.548  0.0808 -0.3484 -0.0452
  258loPI   GL1 4117   2.311   5.272   9.216  0.1444 -0.2167 -0.1361
  258loPI   GL2 4118   2.117   5.497   9.357 -0.1174 -0.1784 -0.0870
  258loPI   C1A 4119   2.355   5.074   8.765  0.0328 -0.0149 -0.2030
  258loPI   C2A 4120   2.179   5.089   8.467  0.0628 -0.2981  0.2765
  258loPI   C3A 4121   2.230   4.994   7.968 -0.2054 -0.1099  0.3172
  258loPI   C4A 4122   2.075   5.215   7.676  0.1319 -0.2616  0.2483
  258loPI   C5A 4123   1.729   5.397   7.743 -0.0793 -0.0428  0.1002
  258loPI   C6A 4124   1.312   5.530   7.810 -0.4189  0.0762 -0.1643
  258loPI   C1B 4125   1.905   5.461   8.942  0.0167 -0.1587  0.1825
  258loPI   C2B 4126   1.642   5.484   8.478 -0.0816  0.0620  0.0635
  258loPI   C3B 4127   1.527   5.732   8.210  0.2696  0.3613  0.1059
  258loPI   C4B 4128   1.514   6.021   7.829 -0.0804  0.0746  0.2442
  259loPI    C1 4129   7.128   3.491  10.349  0.0030  0.0664  0.0745
  259loPI    C2 4130   6.963   3.586  10.701  0.1920  0.1737  0.1354
  259loPI    C3 4131   7.072   3.208  10.627 -0.1988  0.0748  0.0437
  259loPI   PO4 4132   7.295   3.635  10.307 -0.0293  0.1944  0.1292
  259loPI   GL1 4133   7.476   3.735   9.897 -0.3254  0.1867 -0.1688
  259loPI   GL2 4134   7.173   3.761   9.786 -0.1492 -0.1592 -0.0738
  259loPI   C1A 4135   7.546   3.513   9.512  0.2564 -0.2001 -0.1071
  259loPI   C2A 4136   7.490   3.252   9.202 -0.0448  0.3111  0.0530
  259loPI   C3A 4137   7.640   3.130   8.742 -0.1914 -0.1011  0.0724
  259loPI   C4A 4138   7.657   3.124   8.311  0.1986 -0.2563 -0.0646
  259loPI   C5A 4139   7.946   3.160   7.946  0.0577  0.2912 -0.1641
  259loPI   C6A 4140   7.841   3.093   7.508  0.0691 -0.1918 -0.0061
  259loPI   C1B 4141   7.247   3.833   9.390 -0.2181 -0.2161  0.1077
  259loPI   C2B 4142   7.222   3.685   8.956  0.0671 -0.3110 -0.2367
  259loPI   C3B 4143   7.239   3.547   8.494  0.0463 -0.2279 -0.2728
  259loPI   C4B 4144   7.051   3.779   8.149 -0.3298  0.2644  0.1055
  260loPI    C1 4145   1.805  17.123  10.174 -0.0903  0.0005  0.0540
  260loPI    C2 4146   1.819  17.487  10.340  0.0379  0.0851 -0.1392
  260loPI    C3 4147   1.558  17.216  10.474  0.0866  0.1774  0.1474
  260loPI   PO4 4148   1.809  17.166   9.950  0.0897  0.1922 -0.3003
  260loPI   GL1 4149   1.430  17.078   9.584  0.0098  0.0165  0.3216
  260loPI   GL2 4150   1.506  16.787   9.568 -0.0998 -0.1243  0.1087
  260loPI   C1A 4151   1.488  17.221   9.212  0.2424  0.1135 -0.2303
  260loPI   C2A 4152   1.628  16.972   9.020  0.1471 -0.1162 -0.1887
  260loPI   C3A 4153   1.677  16.941   8.555 -0.1315  0.1035 -0.1684
  260loPI   C4A 4154   1.699  17.056   8.181  0.0485  0.3403  0.3763
  260loPI   C5A 4155   1.730  17.197   7.853  0.1418  0.0021  0.2889
  260loPI   C6A 4156   1.901  17.253   7.369 -0.1724 -0.1180  0.0059
  260loPI   C1B 4157   1.380  16.553   9.221  0.2824  0.3627 -0.2217
  260loPI   C2B 4158   1.361  16.531   8.869  0.0686 -0.3069  0.3043
  260loPI   C3B 4159   1.305  16.529   8.439 -0.1008 -0.0404 -0.0153
  260loPI   C4B 4160   1.299  16.450   8.029  0.1765 -0.2178 -0.0213
  261loPI    C1 4161  11.436   5.809  10.297 -0.0958  0.0320 -0.0015
  261loPI    C2 4162  11.630   5.990  10.597 -0.1604 -0.0102  0.0659
  261loPI    C3 4163  11.397   5.673  10.671 -0.2652  0.0475 -0.0128
  261loPI   PO4 4164  11.483   6.090  10.009 -0.0763  0.0026 -0.0576
  261loPI   GL1 4165  11.371   6.048   9.565  0.1865  0.0706 -0.2742
  261loPI   GL2 4166  11.223   5.784   9.708  0.1593 -0.4148  0.0479
  261loPI   C1A 4167  11.386   6.106   9.165  0.1575  0.1841  0.1879
  261loPI   C2A 4168  11.593   6.207   8.793 -0.0892 -0.0625  0.1832
  261loPI   C3A 4169  11.754   5.914   8.689  0.2449  0.1359  0.1196
  261loPI   C4A 4170  11.739   5.717   8.426 -0.1004 -0.0615 -0.0281
  261loPI   C5A 4171  11.833   5.221   8.393  0.4842 -0.2135 -0.0785
  261loPI   C6A 4172  11.789   4.890   8.184 -0.4006  0.1900  0.0151
  261loPI   C1B 4173  10.894   5.972   9.507  0.0437  0.2847  0.0554
  261loPI   C2B 4174  10.513   5.852   9.331 -0.2816  0.0631  0.2356
  261loPI   C3B 4175  10.397   5.910   8.893  0.3217 -0.1691 -0.3014
  261loPI   C4B 4176  10.341   5.993   8.480 -0.0792  0.2624  0.1154
  262loPI    C1 4177  15.037   7.013   9.980  0.0330  0.0158 -0.0975
  262loPI    C2 4178  15.032   6.926  10.371 -0.1260 -0.0902 -0.1223
  262loPI    C3 4179  15.217   7.256  10.241  0.0774 -0.1452  0.0238
  262loPI   PO4 4180  14.790   6.989   9.919  0.2290  0.0725  0.0002
  262loPI   GL1 4181  14.578   7.253   9.566  0.1531 -0.3450  0.0769
  262loPI   GL2 4182  14.357   7.018   9.646  0.4036 -0.0036 -0.0953
  262loPI   C1A 4183  14.667   7.034   9.191  0.0362  0.1394  0.0520
  262loPI   C2A 4184  14.659   6.802   8.733 -0.0523 -0.1921 -0.0980
  262loPI   C3A 4185  14.588   6.609   8.345  0.0287 -0.0294 -0.0332
  262loPI   C4A 4186  14.732   6.667   7.965 -0.1394 -0.0360  0.1472
  262loPI   C5A 4187  14.916   6.385   7.754 -0.0555 -0.4219  0.1859
  262loPI   C6A 4188  15.117   5.914   7.726 -0.2752 -0.3662  0.4112
  262loPI   C1B 4189  14.180   7.107   9.225  0.2978  0.0389  0.0710
  262loPI   C2B 4190  14.362   7.183   8.807 -0.0685 -0.2053  0.1508
  262loPI   C3B 4191  14.333   7.011   8.352 -0.1371 -0.0119  0.0045
  262loPI   C4B 4192  14.202   6.838   7.953 -0.0419 -0.2061  0.0871
  263loPI    C1 4193  10.231  13.716  10.118 -0.1794 -0.0426 -0.0855
  263loPI    C2 4194  10.524  13.459  10.210  0.2131  0.3468 -0.2114
  263loPI    C3 4195  10.193  13.328  10.026  0.3247 -0.0928 -0.1112
  263loPI   PO4 4196  10.400  13.942   9.999  0.0984  0.4226  0.0534
  263loPI   GL1 4197  10.352  14.305   9.566 -0.0904 -0.0375 -0.1876
  263loPI   GL2 4198  10.128  13.967   9.563 -0.1921  0.1932 -0.0710
  263loPI   C1A 4199  10.202  14.422   9.140  0.3254  0.0748  0.1958
  263loPI   C2A 4200  10.249  14.452   8.697  0.1240  0.1799  0.0652
  263loPI   C3A 4201  10.142  14.566   8.248  0.2979  0.0393 -0.0522
  263loPI   C4A 4202  10.006  14.462   7.885 -0.2599 -0.1749  0.0017
  263loPI   C5A 4203   9.677  14.342   7.789 -0.1962 -0.1528  0.4455
  263loPI   C6A 4204   9.564  13.960   7.608  0.0134 -0.0180 -0.0281
  263loPI   C1B 4205  10.157  13.810   9.192  0.2377  0.3189  0.0844
  263loPI   C2B 4206  10.200  13.903   8.789 -0.0755  0.1082 -0.1322
  263loPI   C3B 4207  10.322  13.937   8.333 -0.3465 -0.1342 -0.0944
  263loPI   C4B 4208  10.470  14.220   8.080  0.1632 -0.0852 -0.2176
  264loPI    C1 4209   4.670   1.472   9.978 -0.0834 -0.0777  0.0911
  264loPI    C2 4210   4.684   1.086  10.081  0.0502 -0.0859  0.0441
  264loPI    C3 4211   4.527   1.355  10.333  0.1235 -0.1444  0.1533
  264loPI   PO4 4212   4.932   1.497   9.767 -0.0300 -0.2944  0.0804
  264loPI   GL1 4213   5.045   1.359   9.315 -0.1377 -0.2882  0.0823
  264loPI   GL2 4214   5.296   1.265   9.338 -0.2231 -0.2740 -0.1426
  264loPI   C1A 4215   5.126   1.500   8.819  0.0701  0.2066  0.0748
  264loPI   C2A 4216   5.141   1.592   8.369  0.1177 -0.0604  0.0262
  264loPI   C3A 4217   5.210   1.734   8.000 -0.0196 -0.2139 -0.3625
  264loPI   C4A 4218   5.438   1.731   7.655 -0.3209  0.0403 -0.0056
  264loPI   C5A 4219   5.629   1.527   7.368 -0.1094 -0.2499 -0.3474
  264loPI   C6A 4220   6.032   1.256   7.340  0.1530  0.3229 -0.0557
  264loPI   C1B 4221   5.580   1.326   8.933  0.1169  0.2672 -0.3893
  264loPI   C2B 4222   5.560   1.277   8.516 -0.0637 -0.1146  0.0278
  264loPI   C3B 4223   5.658   1.510   8.174 -0.0346 -0.2425  0.0525
  264loPI   C4B 4224   5.955   1.819   7.830 -0.1732 -0.0324 -0.1270
  265loPI    C1 4225   8.946   7.197  10.323 -0.0714  0.3388  0.2152
  265loPI    C2 4226   9.249   7.215  10.063 -0.1504 -0.0432  0.0904
  265loPI    C3 4227   9.270   7.416  10.408  0.0583  0.2751 -0.1025
  265loPI   PO4 4228   8.733   7.275  10.165 -0.0126  0.3303 -0.0941
  265loPI   GL1 4229   8.566   7.109   9.783  0.1152 -0.1243  0.0094
  265loPI   GL2 4230   8.289   7.153   9.748  0.3353  0.0153 -0.0490
  265loPI   C1A 4231   8.866   7.104   9.485  0.0067 -0.1496 -0.0249
  265loPI   C2A 4232   8.908   7.097   9.083 -0.1565  0.0102  0.1643
  265loPI   C3A 4233   8.928   7.136   8.616  0.0644 -0.1991  0.1647
  265loPI   C4A 4234   8.765   6.930   8.182  0.1719  0.0484  0.0418
  265loPI   C5A 4235   8.357   6.843   8.035 -0.0301 -0.3050 -0.2329
  265loPI   C6A 4236   7.962   7.067   7.790  0.0174  0.1141  0.2042
  265loPI   C1B 4237   7.941   7.205   9.458 -0.1365 -0.0625  0.0754
  265loPI   C2B 4238   7.955   7.129   9.017  0.1802 -0.2439  0.0435
  265loPI   C3B 4239   7.968   7.075   8.630  0.3829 -0.0361 -0.0022
  265loPI   C4B 4240   7.865   6.872   8.211  0.2562 -0.4390 -0.0423
  266loPI    C1 4241   1.845   0.676   9.851 -0.1704 -0.1098 -0.0343
  266loPI    C2 4242   2.052   1.015   9.902 -0.1951 -0.1195  0.1390
  266loPI    C3 4243   2.243   0.664   9.894 -0.2090 -0.1331  0.3543
  266loPI   PO4 4244   1.661   0.714   9.679  0.1685  0.1467  0.0206
  266loPI   GL1 4245   1.501   0.829   9.323  0.0885 -0.0809 -0.0769
  266loPI   GL2 4246   1.433   1.123   9.170 -0.4336  0.0127 -0.0467
  266loPI   C1A 4247   1.564   0.604   8.946  0.1933 -0.0800  0.0721
  266loPI   C2A 4248   1.658   0.526   8.575  0.0015  0.2609 -0.0945
  266loPI   C3A 4249   1.704   0.331   8.152 -0.2832 -0.2513 -0.1032
  266loPI   C4A 4250   1.642   0.263   7.607  0.2684 -0.4734 -0.0373
  266loPI   C5A 4251   1.759  -0.183   7.430  0.0535 -0.0182 -0.0118
  266loPI   C6A 4252   2.158  -0.295   7.290 -0.1236 -0.0794 -0.2132
  266loPI   C1B 4253   1.334   1.130   8.814 -0.3851  0.0824  0.0870
  266loPI   C2B 4254   1.279   1.105   8.417 -0.4467 -0.0716 -0.0860
  266loPI   C3B 4255   1.321   1.175   8.014 -0.2515 -0.0252 -0.1301
  266loPI   C4B 4256   1.387   1.109   7.534  0.0263 -0.0851  0.0035
  267loPI    C1 4257   1.851   5.681  10.016 -0.0681 -0.2038 -0.1892
  267loPI    C2 4258   1.832   5.381   9.751 -0.4278 -0.3745  0.0223
  267loPI    C3 4259   1.629   5.358  10.095 -0.0611 -0.1039  0.2656
  267loPI   PO4 4260   1.888   5.869   9.766  0.2436  0.0131 -0.0966
  267loPI   GL1 4261   2.057   6.081   9.461  0.0814  0.2641  0.2241
  267loPI   GL2 4262   1.906   6.354   9.312 -0.0097 -0.2261 -0.2156
  267loPI   C1A 4263   2.006   5.911   9.100 -0.1021 -0.4207  0.0872
  267loPI   C2A 4264   1.686   5.888   8.876 -0.1193  0.4565  0.0559
  267loPI   C3A 4265   1.582   6.115   8.582  0.0338  0.0657 -0.1770
  267loPI   C4A 4266   1.370   6.276   8.222  0.2201  0.0544  0.0031
  267loPI   C5A 4267   1.504   6.554   7.915 -0.0558 -0.2284  0.0016
  267loPI   C6A 4268   1.829   6.622   7.590  0.0688  0.1703  0.1879
  267loPI   C1B 4269   1.761   6.398   8.899 -0.2929  0.2162 -0.1291
  267loPI   C2B 4270   1.712   6.564   8.471 -0.0208  0.2654 -0.1971
  267loPI   C3B 4271   2.034   6.556   8.132  0.1591  0.3832 -0.3036
  267loPI   C4B 4272   2.222   6.294   7.796  0.2001  0.1861  0.0804
  268loPI    C1 4273   9.376   6.261  10.263 -0.2228  0.2137 -0.0092
  268loPI    C2 4274   9.232   6.297  10.634  0.0429  0.0717  0.1110
  268loPI    C3 4275   9.624   6.245  10.576 -0.0154 -0.0629 -0.1822
  268loPI   PO4 4276   9.199   6.062  10.138  0.2105  0.5116  0.0632
  268loPI   GL1 4277   9.162   6.062   9.772 -0.2008  0.0420  0.1861
  268loPI   GL2 4278   8.884   5.718   9.669 -0.2384 -0.0314 -0.2736
  268loPI   C1A 4279   9.333   6.153   9.420 -0.0041  0.1098 -0.1687
  268loPI   C2A 4280   9.293   6.166   9.068 -0.2868 -0.5343 -0.0836
  268loPI   C3A 4281   9.450   5.974   8.638 -0.1639  0.0900  0.1056
  268loPI   C4A 4282   9.406   6.132   8.229 -0.2232  0.1000  0.3418
  268loPI   C5A 4283   9.114   6.151   7.883  0.0849 -0.1433  0.4994
  268loPI   C6A 4284   8.877   6.082   7.696  0.1835  0.0047 -0.1382
  268loPI   C1B 4285   9.134   5.739   9.312 -0.2162 -0.1886  0.4226
  268loPI   C2B 4286   9.206   5.681   8.929  0.2609 -0.0779 -0.2477
  268loPI   C3B 4287   9.271   5.478   8.501  0.1724 -0.0064  0.0371
  268loPI   C4B 4288   9.478   5.657   8.152  0.3885 -0.0486 -0.0970
  269loPI    C1 4289   6.010  16.595   9.766 -0.1149  0.1685  0.1363
  269loPI    C2 4290   5.624  16.492   9.783 -0.0420 -0.1498 -0.0497
  269loPI    C3 4291   5.879  16.354  10.058 -0.0520  0.0309  0.0520
  269loPI   PO4 4292   6.112  16.558   9.546  0.2004  0.1036 -0.2172
  269loPI   GL1 4293   6.448  16.621   9.282 -0.2086 -0.0966 -0.0377
  269loPI   GL2 4294   6.662  16.381   9.158  0.1343 -0.0994 -0.0376
  269loPI   C1A 4295   6.236  16.811   8.869  0.0525 -0.1689 -0.2023
  269loPI   C2A 4296   6.158  16.951   8.420  0.2469 -0.0763 -0.1177
  269loPI   C3A 4297   5.931  16.906   8.042  0.0483  0.1806 -0.2797
  269loPI   C4A 4298   5.872  16.879   7.582 -0.2868 -0.2400 -0.3224
  269loPI   C5A 4299   5.518  16.683   7.334 -0.1723  0.0012  0.1599
  269loPI   C6A 4300   5.137  16.763   7.061 -0.1410 -0.2038 -0.0352
  269loPI   C1B 4301   6.580  16.381   8.633  0.0847  0.0381  0.2603
  269loPI   C2B 4302   6.603  16.527   8.261 -0.0167 -0.2727 -0.0156
  269loPI   C3B 4303   6.396  16.816   7.983 -0.0790  0.3100  0.2313
  269loPI   C4B 4304   6.476  17.112   7.730 -0.1238  0.0569  0.0815
  270loPI    C1 4305   6.964   6.440  10.215  0.1334  0.3220 -0.0920
  270loPI    C2 4306   6.591   6.312  10.285  0.1629  0.1971 -0.1597
  270loPI    C3 4307   6.828   6.416  10.590  0.2000 -0.0853 -0.0892
  270loPI   PO4 4308   6.923   6.486   9.975  0.0832 -0.0194  0.4029
  270loPI   GL1 4309   7.130   6.677   9.690  0.2223 -0.0385  0.1438
  270loPI   GL2 4310   7.331   6.452   9.601  0.0314  0.1179  0.0793
  270loPI   C1A 4311   6.798   6.657   9.332  0.2013  0.1974  0.1767
  270loPI   C2A 4312   6.931   6.708   8.958 -0.0403  0.1109 -0.0556
  270loPI   C3A 4313   7.126   6.511   8.579  0.1230  0.0967  0.2540
  270loPI   C4A 4314   7.154   6.529   8.158  0.1595 -0.0088  0.1041
  270loPI   C5A 4315   7.609   6.498   7.954  0.0613  0.0141  0.0960
  270loPI   C6A 4316   7.894   6.265   7.632  0.0497  0.1939 -0.1057
  270loPI   C1B 4317   7.311   6.356   9.141  0.2783 -0.3861 -0.3135
  270loPI   C2B 4318   7.355   6.156   8.783 -0.1778 -0.2134 -0.0499
  270loPI   C3B 4319   7.374   6.105   8.321  0.1235 -0.1631 -0.2714
  270loPI   C4B 4320   7.617   5.934   8.001 -0.0014  0.0299 -0.1285
  271loPI    C1 4321   5.655  10.107  10.162 -0.0503  0.0711 -0.0722
  271loPI    C2 4322   5.505   9.767  10.311  0.1422  0.0797  0.1468
  271loPI    C3 4323   5.297  10.107  10.340  0.0275  0.0150  0.0862
  271loPI   PO4 4324   5.729  10.019   9.890  0.1553  0.0645 -0.0042
  271loPI   GL1 4325   5.785  10.046   9.532  0.0025 -0.1392 -0.1324
  271loPI   GL2 4326   6.129  10.245   9.559 -0.0725  0.3359 -0.1762
  271loPI   C1A 4327   6.030   9.915   9.160 -0.3140  0.2977 -0.2841
  271loPI   C2A 4328   6.165  10.119   8.809 -0.3302  0.2171  0.2088
  271loPI   C3A 4329   6.184  10.206   8.426  0.0007  0.2226  0.1284
  271loPI   C4A 4330   6.153  10.238   7.993 -0.3630 -0.1084  0.0433
  271loPI   C5A 4331   5.889   9.854   7.856 -0.0750  0.1040 -0.2179
  271loPI   C6A 4332   5.614   9.740   7.588  0.4153  0.1202 -0.0467
  271loPI   C1B 4333   5.917  10.463   9.199  0.2563 -0.2059 -0.1476
  271loPI   C2B 4334   5.825  10.488   8.699 -0.0737  0.0665  0.0505
  271loPI   C3B 4335   5.724  10.429   8.240  0.2855 -0.1403  0.0411
  271loPI   C4B 4336   5.528  10.164   7.853 -0.0441  0.1326  0.0140
  272loPI    C1 4337  15.790  15.462  10.822 -0.1106 -0.1178  0.0386
  272loPI    C2 4338  16.171  15.571  10.878 -0.1404  0.0417 -0.0638
  272loPI    C3 4339  16.026  15.248  11.065  0.0171  0.0368  0.0521
  272loPI   PO4 4340  15.820  15.546  10.541 -0.2102  0.1760  0.2261
  272loPI   GL1 4341  15.730  15.617  10.055 -0.2692 -0.2739  0.2520
  272loPI   GL2 4342  15.988  15.552   9.861 -0.1063 -0.3755  0.3510
  272loPI   C1A 4343  15.743  15.992   9.802  0.0601  0.3464 -0.0876
  272loPI   C2A 4344  15.590  16.401   9.747  0.0253 -0.2630 -0.5542
  272loPI   C3A 4345  15.500  16.794   9.817  0.1875  0.2762  0.3506
  272loPI   C4A 4346  15.420  17.169   9.655 -0.0507 -0.3822  0.1824
  272loPI   C5A 4347  15.544  17.525   9.280 -0.1951  0.1398 -0.0839
  272loPI   C6A 4348  15.307  17.691   8.948 -0.0368  0.0917 -0.2180
  272loPI   C1B 4349  16.196  15.822   9.515 -0.2898 -0.2071 -0.3388
  272loPI   C2B 4350  15.886  16.064   9.224 -0.1405  0.2055 -0.0010
  272loPI   C3B 4351  15.935  16.365   8.856  0.1233 -0.1637 -0.1359
  272loPI   C4B 4352  16.163  16.613   8.498 -0.0009  0.0418  0.1667
  273loPI    C1 4353  13.012   6.835  10.288 -0.0642  0.0327  0.2397
  273loPI    C2 4354  12.753   6.633  10.517  0.1098 -0.3925  0.0697
  273loPI    C3 4355  13.101   6.756  10.670 -0.1195  0.0454  0.2555
  273loPI   PO4 4356  13.066   6.749  10.124 -0.1840  0.3078  0.1434
  273loPI   GL1 4357  12.875   6.706   9.726 -0.0079 -0.3871 -0.0439
  273loPI   GL2 4358  12.485   6.600   9.606  0.0796 -0.1832 -0.2696
  273loPI   C1A 4359  13.079   6.502   9.257 -0.1504  0.2897  0.0810
  273loPI   C2A 4360  13.132   6.370   8.801  0.0679 -0.2879  0.1338
  273loPI   C3A 4361  13.223   6.173   8.400 -0.3003  0.0836 -0.2895
  273loPI   C4A 4362  13.242   5.844   8.211  0.1018 -0.3648 -0.2415
  273loPI   C5A 4363  13.370   5.671   7.861 -0.2373  0.1940  0.0200
  273loPI   C6A 4364  13.605   5.763   7.467 -0.1281 -0.0297 -0.0368
  273loPI   C1B 4365  12.470   6.668   9.237  0.0435  0.0317 -0.3354
  273loPI   C2B 4366  12.453   6.552   8.859  0.0567  0.1151  0.1747
  273loPI   C3B 4367  12.416   6.590   8.317  0.1467  0.0348  0.0360
  273loPI   C4B 4368  12.459   6.768   7.942 -0.0340 -0.3044 -0.0023
  274loPI    C1 4369  16.818  12.746   9.909  0.3541  0.0925 -0.1427
  274loPI    C2 4370  16.835  12.351   9.969  0.3604  0.1177  0.0241
  274loPI    C3 4371  16.992  12.601  10.239 -0.1079  0.2535  0.1814
  274loPI   PO4 4372  16.669  12.807   9.786 -0.0099  0.3205 -0.0337
  274loPI   GL1 4373  16.485  12.721   9.346 -0.1397  0.0216  0.2369
  274loPI   GL2 4374  16.514  12.346   9.597 -0.0348 -0.2608 -0.0908
  274loPI   C1A 4375  16.400  12.878   8.983 -0.2370 -0.4782 -0.3778
  274loPI   C2A 4376  16.322  12.904   8.595  0.1051 -0.2609  0.0054
  274loPI   C3A 4377  16.265  12.846   8.175  0.0029  0.1053 -0.0418
  274loPI   C4A 4378  16.319  12.519   7.846  0.2651  0.2539  0.1398
  274loPI   C5A 4379  16.470  12.122   7.572 -0.0172  0.1540  0.4361
  274loPI   C6A 4380  16.305  11.904   7.121 -0.1816  0.0612 -0.0359
  274loPI   C1B 4381  16.704  12.355   9.163  0.0025 -0.2603 -0.0464
  274loPI   C2B 4382  16.425  12.228   8.818 -0.2568 -0.1853 -0.0295
  274loPI   C3B 4383  16.375  12.270   8.433  0.1498 -0.0886 -0.1236
  274loPI   C4B 4384  16.481  12.123   8.058  0.0984 -0.1755 -0.1074
  275loPI    C1 4385   3.751   0.384  10.012  0.3675  0.0092 -0.2688
  275loPI    C2 4386   3.503   0.074  10.060  0.2534  0.1392 -0.0003
  275loPI    C3 4387   3.887   0.011   9.968  0.2485 -0.0855  0.1261
  275loPI   PO4 4388   3.695   0.548   9.807 -0.0327  0.0398  0.0642
  275loPI   GL1 4389   3.620   0.414   9.403 -0.1980  0.2206  0.1547
  275loPI   GL2 4390   3.631   0.178   9.376  0.3568 -0.0110  0.0456
  275loPI   C1A 4391   3.653   0.499   8.991  0.0102  0.0844 -0.0373
  275loPI   C2A 4392   3.787   0.668   8.536  0.1638  0.1845  0.0502
  275loPI   C3A 4393   3.498   0.592   8.124 -0.2181 -0.0515  0.0584
  275loPI   C4A 4394   3.446   0.771   7.651 -0.0872  0.0616  0.1459
  275loPI   C5A 4395   3.391   1.203   7.493 -0.3547  0.0118 -0.1674
  275loPI   C6A 4396   3.450   1.579   7.419  0.1828  0.0442 -0.1382
  275loPI   C1B 4397   3.549  -0.007   8.979 -0.0947 -0.0553 -0.1873
  275loPI   C2B 4398   3.684  -0.245   8.606 -0.1126  0.0883 -0.0812
  275loPI   C3B 4399   3.724  -0.244   8.228 -0.0436 -0.0778 -0.0658
  275loPI   C4B 4400   3.476  -0.445   8.005  0.1144 -0.1272 -0.2036
  276loPI    C1 4401   8.529   6.718  10.486  0.0768 -0.0515  0.0996
  276loPI    C2 4402   8.241   6.952  10.636 -0.0743 -0.2851  0.1800
  276loPI    C3 4403   8.624   7.067  10.657 -0.1826  0.1910 -0.2351
  276loPI   PO4 4404   8.392   6.703  10.200 -0.2500 -0.0718  0.2150
  276loPI   GL1 4405   8.401   6.452   9.816  0.0982 -0.0597  0.0051
  276loPI   GL2 4406   8.664   6.209   9.660  0.1670 -0.0811 -0.0289
  276loPI   C1A 4407   8.482   6.754   9.445 -0.2409  0.0488  0.0518
  276loPI   C2A 4408   8.429   6.673   9.005  0.1515  0.1656  0.0054
  276loPI   C3A 4409   8.388   6.759   8.548  0.3213 -0.1492 -0.1337
  276loPI   C4A 4410   8.088   6.418   8.149 -0.1328 -0.1088 -0.1526
  276loPI   C5A 4411   8.323   6.219   7.789  0.0038 -0.0579  0.1797
  276loPI   C6A 4412   8.278   5.992   7.470 -0.0009 -0.0564 -0.2184
  276loPI   C1B 4413   8.772   6.084   9.353 -0.4960 -0.0200 -0.1532
  276loPI   C2B 4414   8.832   6.059   8.941  0.1950  0.3652 -0.0715
  276loPI   C3B 4415   8.937   5.959   8.586 -0.2036 -0.1047  0.0257
  276loPI   C4B 4416   8.937   5.805   8.196  0.0195 -0.1650  0.1820
  277loPI    C1 4417   6.864  14.332   9.544 -0.0828 -0.0151 -0.0642
  277loPI    C2 4418   6.623  14.126   9.788  0.0342  0.1140  0.1641
  277loPI    C3 4419   6.782  14.471   9.910  0.1923  0.1194 -0.0518
  277loPI   PO4 4420   6.733  14.335   9.309  0.0252 -0.0237 -0.2303
  277loPI   GL1 4421   6.778  14.635   9.121  0.1753 -0.0291 -0.1680
  277loPI   GL2 4422   7.164  14.710   9.123 -0.0953  0.0510  0.1666
  277loPI   C1A 4423   6.607  14.583   8.702  0.3791  0.1763  0.2407
  277loPI   C2A 4424   6.610  14.574   8.277 -0.1350  0.1094 -0.1167
  277loPI   C3A 4425   6.351  14.509   7.946 -0.3580  0.0228 -0.0050
  277loPI   C4A 4426   6.283  14.273   7.715 -0.3717  0.0658  0.0349
  277loPI   C5A 4427   6.380  14.067   7.279 -0.3574 -0.1340  0.4247
  277loPI   C6A 4428   6.629  13.847   6.858 -0.2412  0.1435 -0.3199
  277loPI   C1B 4429   7.156  14.710   8.703  0.0924  0.2627 -0.2272
  277loPI   C2B 4430   7.088  14.732   8.264  0.1279 -0.0906  0.0226
  277loPI   C3B 4431   7.153  14.925   7.802  0.0557  0.0328 -0.0241
  277loPI   C4B 4432   7.337  15.184   7.541  0.0575  0.2399 -0.0632
  278loPI    C1 4433  12.542  17.655  10.963 -0.0057  0.4014  0.1256
  278loPI    C2 4434  12.250  17.430  11.118  0.1017 -0.0017 -0.2380
  278loPI    C3 4435  12.588  17.488  11.324 -0.1081  0.2140  0.0534
  278loPI   PO4 4436  12.589  17.607  10.741 -0.1184 -0.2996 -0.4086
  278loPI   GL1 4437  12.716  17.881  10.313  0.0879  0.1570 -0.0057
  278loPI   GL2 4438  12.581  18.103  10.212 -0.0532  0.0830  0.0923
  278loPI   C1A 4439  12.755  17.600   9.900  0.0660  0.2390 -0.0987
  278loPI   C2A 4440  12.629  17.769   9.526 -0.1919  0.5851  0.3592
  278loPI   C3A 4441  12.778  18.060   9.257 -0.1392 -0.1753  0.2184
  278loPI   C4A 4442  12.765  18.194   8.888 -0.0773  0.0797 -0.1397
  278loPI   C5A 4443  12.810  18.273   8.458  0.2626  0.2151  0.0040
  278loPI   C6A 4444  12.827  18.106   7.970 -0.0143  0.1246  0.2299
  278loPI   C1B 4445  12.714  18.155   9.834 -0.0424  0.0221  0.0238
  278loPI   C2B 4446  12.797  18.513   9.500  0.0139 -0.0106  0.3552
  278loPI   C3B 4447  12.914  18.773   9.183  0.3250  0.0632  0.2245
  278loPI   C4B 4448  12.650  19.023   8.942  0.1902 -0.0839 -0.2744
  279loPI    C1 4449   4.904  11.048  10.267 -0.2494  0.0574 -0.0755
  279loPI    C2 4450   4.737  11.404  10.194  0.1125  0.2888  0.1850
  279loPI    C3 4451   4.744  11.260  10.567 -0.0306  0.0047  0.0811
  279loPI   PO4 4452   5.075  10.994  10.065 -0.0377 -0.2882  0.0030
  279loPI   GL1 4453   4.995  10.697   9.727  0.0018 -0.0948  0.1009
  279loPI   GL2 4454   5.074  10.969   9.512  0.2736  0.0228  0.3070
  279loPI   C1A 4455   5.207  10.419   9.380  0.0133 -0.3713  0.1134
  279loPI   C2A 4456   5.376  10.403   8.950  0.0937  0.0933  0.2753
  279loPI   C3A 4457   5.311  10.308   8.542  0.1779  0.0290 -0.2588
  279loPI   C4A 4458   5.167  10.201   8.159 -0.1167  0.0373  0.1069
  279loPI   C5A 4459   5.160   9.843   7.931  0.2354  0.1332  0.2290
  279loPI   C6A 4460   5.120   9.587   7.511 -0.0193  0.0112 -0.1386
  279loPI   C1B 4461   4.911  10.723   9.109  0.0029 -0.1324  0.0105
  279loPI   C2B 4462   4.970  10.613   8.685 -0.1346  0.1157  0.1248
  279loPI   C3B 4463   4.828  10.369   8.503  0.0444  0.0640 -0.0822
  279loPI   C4B 4464   4.680  10.038   8.131  0.0062 -0.0122 -0.2403
  280loPI    C1 4465   1.058  17.580  10.241  0.0513 -0.0274  0.0163
  280loPI    C2 4466   0.737  17.415  10.412 -0.0175  0.0596 -0.0281
  280loPI    C3 4467   1.056  17.190  10.326 -0.0039  0.0041  0.1624
  280loPI   PO4 4468   1.012  17.759  10.061  0.4115  0.2338  0.1061
  280loPI   GL1 4469   1.034  17.745   9.640  0.1738  0.1780  0.2038
  280loPI   GL2 4470   1.131  17.465   9.472  0.2331 -0.1694  0.1358
  280loPI   C1A 4471   0.690  17.747   9.299 -0.1130  0.1223 -0.2297
  280loPI   C2A 4472   0.635  17.728   8.861 -0.0133 -0.0394 -0.2373
  280loPI   C3A 4473   0.559  17.688   8.451  0.0823  0.1962 -0.1509
  280loPI   C4A 4474   0.564  17.815   8.096 -0.0046 -0.0110  0.2174
  280loPI   C5A 4475   0.763  17.870   7.748 -0.0262  0.0350  0.1349
  280loPI   C6A 4476   0.923  17.670   7.442 -0.0521  0.0858  0.3187
  280loPI   C1B 4477   1.093  17.558   9.052 -0.2659  0.1045  0.1388
  280loPI   C2B 4478   1.084  17.578   8.527 -0.2832 -0.2637 -0.0417
  280loPI   C3B 4479   1.033  17.601   8.174 -0.2443 -0.3281  0.3762
  280loPI   C4B 4480   1.255  17.408   7.767  0.0628  0.1408 -0.0943
  281loPI    C1 4481  17.049  15.367  10.280  0.0847 -0.3242 -0.0545
  281loPI    C2 4482  17.199  15.736  10.249  0.0210 -0.3003 -0.0812
  281loPI    C3 4483  17.072  15.602  10.603 -0.3388 -0.1458 -0.1479
  281loPI   PO4 4484  16.909  15.425   9.950 -0.0646 -0.2043 -0.0189
  281loPI   GL1 4485  17.067  15.180   9.542  0.3553  0.0183 -0.1896
  281loPI   GL2 4486  17.231  15.508   9.442 -0.1583 -0.1342 -0.0622
  281loPI   C1A 4487  16.893  15.131   9.279 -0.1317 -0.0537  0.2242
  281loPI   C2A 4488  16.894  15.160   8.892  0.1409  0.0734  0.2037
  281loPI   C3A 4489  16.885  15.069   8.452  0.1092  0.0054 -0.0970
  281loPI   C4A 4490  16.918  14.852   7.958  0.1393  0.3849  0.0960
  281loPI   C5A 4491  17.081  14.550   7.696 -0.1138  0.0575  0.1640
  281loPI   C6A 4492  17.206  14.147   7.779 -0.2495 -0.1923 -0.1100
  281loPI   C1B 4493  17.328  15.348   9.010  0.0395  0.0816  0.1274
  281loPI   C2B 4494  17.171  15.455   8.598  0.1194 -0.0911 -0.0186
  281loPI   C3B 4495  17.282  15.230   8.236  0.4687  0.0242 -0.0465
  281loPI   C4B 4496  17.509  14.936   8.209 -0.2027  0.1498 -0.0517
  282loPI    C1 4497  15.938  13.352   9.982 -0.1160  0.2575 -0.0733
  282loPI    C2 4498  15.767  13.312  10.341 -0.0873  0.0871 -0.0778
  282loPI    C3 4499  15.552  13.252  10.010 -0.0320 -0.0806 -0.0842
  282loPI   PO4 4500  16.182  13.167   9.953 -0.0352  0.2219 -0.1874
  282loPI   GL1 4501  16.352  13.142   9.589 -0.2005 -0.0666  0.0324
  282loPI   GL2 4502  16.230  13.511   9.546  0.1958  0.1335 -0.0262
  282loPI   C1A 4503  15.998  13.052   9.246 -0.1235 -0.1208  0.1085
  282loPI   C2A 4504  15.770  12.958   8.961 -0.0639  0.0390  0.0899
  282loPI   C3A 4505  15.766  13.029   8.412 -0.2393 -0.2004  0.2712
  282loPI   C4A 4506  16.025  13.312   8.143  0.1648  0.1444  0.2593
  282loPI   C5A 4507  16.285  13.330   7.819 -0.0035  0.1629 -0.1179
  282loPI   C6A 4508  16.188  13.307   7.420  0.0082  0.2657  0.1029
  282loPI   C1B 4509  16.106  13.671   9.158 -0.0088  0.2269 -0.1825
  282loPI   C2B 4510  16.194  13.912   8.824  0.1738 -0.1238 -0.0302
  282loPI   C3B 4511  16.021  13.902   8.360  0.0373 -0.0953 -0.0119
  282loPI   C4B 4512  15.837  14.213   8.013 -0.2218  0.2747 -0.1381
  283loPI    C1 4513  12.740   3.089  10.562  0.2096 -0.0064 -0.1881
  283loPI    C2 4514  12.861   2.795  10.805 -0.1084  0.2205  0.2573
  283loPI    C3 4515  12.936   3.177  10.900 -0.1309  0.3079 -0.0657
  283loPI   PO4 4516  12.858   3.059  10.305 -0.1684  0.1092 -0.0560
  283loPI   GL1 4517  12.721   2.930   9.966 -0.0092 -0.2557  0.0515
  283loPI   GL2 4518  12.448   2.690   9.904  0.1435 -0.1168  0.0795
  283loPI   C1A 4519  12.802   3.128   9.442 -0.2452 -0.0749 -0.0953
  283loPI   C2A 4520  12.518   3.052   9.100 -0.0524  0.0852  0.1471
  283loPI   C3A 4521  12.552   2.975   8.612 -0.2490  0.0363  0.1868
  283loPI   C4A 4522  12.417   2.903   8.238  0.0939 -0.1952  0.0669
  283loPI   C5A 4523  12.430   2.777   7.787  0.2848 -0.1254  0.0646
  283loPI   C6A 4524  12.047   2.592   7.694  0.2176 -0.2642 -0.0866
  283loPI   C1B 4525  12.555   2.450   9.601  0.0148  0.0922  0.3465
  283loPI   C2B 4526  12.766   2.509   9.208 -0.1576  0.0033 -0.0398
  283loPI   C3B 4527  12.748   2.398   8.747  0.1804  0.0135 -0.0537
  283loPI   C4B 4528  12.585   2.038   8.535  0.0573 -0.0018 -0.3268
  284loPI    C1 4529  18.389  16.267   9.661  0.1451  0.1850 -0.1286
  284loPI    C2 4530  18.464  16.281  10.054 -0.1316  0.0804 -0.0693
  284loPI    C3 4531  18.390  16.619   9.852 -0.0293  0.1301 -0.0243
  284loPI   PO4 4532  18.491  16.082   9.613  0.0507  0.4077 -0.2153
  284loPI   GL1 4533  18.536  15.761   9.392 -0.0305 -0.0813  0.0746
  284loPI   GL2 4534  18.846  15.509   9.196  0.2891  0.3185 -0.0112
  284loPI   C1A 4535  18.166  15.616   9.049  0.1514 -0.1330  0.0517
  284loPI   C2A 4536  18.207  15.503   8.567 -0.2653  0.2845 -0.1161
  284loPI   C3A 4537  17.895  15.359   8.210  0.0617  0.3594  0.0962
  284loPI   C4A 4538  17.844  15.020   7.874  0.1084 -0.2530 -0.0380
  284loPI   C5A 4539  17.811  14.738   7.543 -0.0104  0.0260  0.1079
  284loPI   C6A 4540  17.908  14.265   7.524 -0.0249 -0.4610  0.1828
  284loPI   C1B 4541  18.653  15.732   8.893  0.0162 -0.1116  0.2688
  284loPI   C2B 4542  18.336  16.005   8.788  0.0173  0.0844 -0.2632
  284loPI   C3B 4543  18.136  15.992   8.392  0.0080 -0.0115  0.3796
  284loPI   C4B 4544  18.363  15.843   8.065 -0.0668  0.0941 -0.5384
  285loPI    C1 4545   7.105   4.073  10.127  0.1193 -0.1341 -0.0065
  285loPI    C2 4546   7.080   4.040  10.525 -0.0048 -0.4185 -0.0349
  285loPI    C3 4547   6.788   3.895  10.294 -0.1525  0.1419 -0.2171
  285loPI   PO4 4548   7.322   4.165  10.061 -0.0374 -0.3854  0.1040
  285loPI   GL1 4549   7.613   4.239   9.838  0.1361  0.1661  0.0306
  285loPI   GL2 4550   7.980   4.072   9.965 -0.0653  0.0814 -0.0054
  285loPI   C1A 4551   7.550   4.209   9.341 -0.0110  0.1804 -0.0580
  285loPI   C2A 4552   7.566   4.225   8.901  0.1797 -0.0897  0.1989
  285loPI   C3A 4553   7.378   4.051   8.676  0.2704  0.4032 -0.1576
  285loPI   C4A 4554   7.425   4.105   8.237  0.0270  0.0570  0.0640
  285loPI   C5A 4555   7.448   4.055   7.811 -0.0223 -0.3290  0.1766
  285loPI   C6A 4556   7.543   4.380   7.562  0.0659 -0.1541  0.1149
  285loPI   C1B 4557   7.862   3.867   9.612  0.4633  0.0383 -0.3072
  285loPI   C2B 4558   7.751   3.776   9.146  0.3294  0.2210 -0.0304
  285loPI   C3B 4559   7.699   3.663   8.748  0.0848  0.1897 -0.1132
  285loPI   C4B 4560   7.739   3.683   8.261  0.0916  0.4921 -0.4973
  286loPI    C1 4561  18.709  11.149   9.712 -0.0298  0.1417  0.0620
  286loPI    C2 4562  19.019  11.400   9.745  0.1917 -0.0917 -0.1918
  286loPI    C3 4563  18.895  11.193  10.064  0.1339  0.1872 -0.0294
  286loPI   PO4 4564  18.503  11.305   9.541 -0.1314  0.2345  0.0518
  286loPI   GL1 4565  18.621  11.358   9.089 -0.0078 -0.2879 -0.1786
  286loPI   GL2 4566  18.316  11.179   9.082 -0.2778  0.2770 -0.5048
  286loPI   C1A 4567  18.811  11.048   8.868  0.0694 -0.1143  0.2077
  286loPI   C2A 4568  18.682  10.736   8.575  0.2104 -0.0408 -0.1970
  286loPI   C3A 4569  18.493  10.464   8.310  0.3021  0.4073 -0.0136
  286loPI   C4A 4570  18.617  10.370   7.933 -0.0258  0.0237  0.1208
  286loPI   C5A 4571  18.574  10.071   7.580 -0.3232 -0.2471  0.1880
  286loPI   C6A 4572  18.382  10.190   7.225 -0.1394 -0.1005 -0.2623
  286loPI   C1B 4573  18.288  11.120   8.626  0.1338 -0.1007  0.1270
  286loPI   C2B 4574  18.131  11.038   8.241  0.0448 -0.0894  0.0263
  286loPI   C3B 4575  18.319  10.762   7.894  0.3572 -0.2570  0.2038
  286loPI   C4B 4576  18.225  10.524   7.616  0.0344 -0.0675  0.0467
  287loPI    C1 4577   9.658   9.238  10.414  0.0873 -0.0020  0.1368
  287loPI    C2 4578  10.007   9.310  10.596  0.3249 -0.4570 -0.1212
  287loPI    C3 4579   9.797   8.983  10.689  0.1376 -0.3655 -0.2170
  287loPI   PO4 4580   9.683   9.235  10.234 -0.0624  0.0433 -0.0207
  287loPI   GL1 4581   9.693   9.093   9.869  0.0851  0.2031  0.1820
  287loPI   GL2 4582   9.516   9.325   9.731  0.0822  0.1962 -0.0854
  287loPI   C1A 4583   9.831   8.962   9.445 -0.1244 -0.0351  0.0499
  287loPI   C2A 4584   9.729   8.894   9.089  0.2040  0.0604 -0.1507
  287loPI   C3A 4585   9.537   8.630   8.809  0.2470 -0.1180 -0.1342
  287loPI   C4A 4586   9.646   8.574   8.419 -0.0708  0.2704  0.0590
  287loPI   C5A 4587   9.914   8.528   8.043 -0.0731  0.3061  0.0058
  287loPI   C6A 4588  10.368   8.393   8.085 -0.0809 -0.0711 -0.0679
  287loPI   C1B 4589   9.504   9.300   9.233 -0.1817  0.1138 -0.3421
  287loPI   C2B 4590   9.438   9.192   8.845  0.1692  0.3138  0.0434
  287loPI   C3B 4591   9.636   9.027   8.566  0.0654 -0.0092  0.2554
  287loPI   C4B 4592   9.826   9.032   8.154 -0.2571 -0.1392  0.2231
  288loPI    C1 4593  18.056   0.489  10.379  0.1268 -0.0035  0.0734
  288loPI    C2 4594  17.671   0.596  10.368  0.2398  0.4687  0.4201
  288loPI    C3 4595  17.778   0.255  10.547 -0.0497  0.1326 -0.0254
  288loPI   PO4 4596  18.132   0.476  10.131  0.1570  0.0759 -0.0983
  288loPI   GL1 4597  18.233   0.267   9.657  0.2789  0.2467  0.0244
  288loPI   GL2 4598  18.022   0.291   9.337  0.3531  0.4371  0.0861
  288loPI   C1A 4599  18.375  -0.079   9.397 -0.0513  0.3628 -0.2054
  288loPI   C2A 4600  18.424  -0.046   8.955  0.0967  0.2408 -0.2129
  288loPI   C3A 4601  18.409   0.204   8.603 -0.1857  0.1263  0.0686
  288loPI   C4A 4602  18.445   0.194   8.196  0.0234  0.0833 -0.0634
  288loPI   C5A 4603  18.697   0.272   7.737 -0.0077  0.1152 -0.0323
  288loPI   C6A 4604  19.045   0.380   7.398 -0.0423  0.4736  0.0362
  288loPI   C1B 4605  18.064   0.388   8.975 -0.0035  0.0397  0.0352
  288loPI   C2B 4606  18.030   0.639   8.553  0.0227 -0.3295 -0.0953
  288loPI   C3B 4607  18.003   0.822   8.245 -0.2308 -0.3278 -0.2326
  288loPI   C4B 4608  17.696   0.887   7.954 -0.0639 -0.1712 -0.3079
  289loPI    C1 4609   1.965   0.200   9.938  0.1421 -0.1020  0.0110
  289loPI    C2 4610   1.565   0.195   9.948  0.1375  0.0235 -0.0850
  289loPI    C3 4611   1.775  -0.021  10.212  0.0058 -0.2157 -0.1733
  289loPI   PO4 4612   2.012   0.232   9.716 -0.1282 -0.2578  0.2287
  289loPI   GL1 4613   1.966   0.465   9.360 -0.0267 -0.0934  0.0748
  289loPI   GL2 4614   2.069   0.744   9.435 -0.0892 -0.0545  0.2816
  289loPI   C1A 4615   2.220   0.468   9.097  0.1675  0.1554  0.1709
  289loPI   C2A 4616   2.174   0.641   8.753 -0.0001 -0.0621  0.1966
  289loPI   C3A 4617   2.146   0.678   8.386  0.1650  0.0971 -0.3698
  289loPI   C4A 4618   2.046   0.644   8.048 -0.1167 -0.0039 -0.2643
  289loPI   C5A 4619   2.108   0.326   7.878 -0.0498  0.1651  0.0448
  289loPI   C6A 4620   2.092   0.197   7.390  0.1872  0.0610 -0.0756
  289loPI   C1B 4621   1.912   0.909   9.045  0.0507 -0.0325  0.1856
  289loPI   C2B 4622   1.787   0.979   8.644  0.2148  0.2559  0.2495
  289loPI   C3B 4623   1.743   0.986   8.166 -0.0303  0.0779 -0.2515
  289loPI   C4B 4624   1.605   0.744   7.838 -0.2529 -0.1209 -0.2932
  290loPI    C1 4625  17.467   8.726   9.832 -0.0039 -0.2543 -0.1268
  290loPI    C2 4626  17.354   8.514  10.151  0.4471 -0.1293  0.1254
  290loPI    C3 4627  17.478   8.327   9.820 -0.3006 -0.2658 -0.0974
  290loPI   PO4 4628  17.249   8.840   9.757 -0.0739 -0.1163 -0.0131
  290loPI   GL1 4629  16.970   8.822   9.415  0.2905 -0.2260  0.1973
  290loPI   GL2 4630  17.206   9.049   9.352  0.1371  0.1532  0.1627
  290loPI   C1A 4631  16.859   8.478   9.255  0.1863 -0.2503  0.0755
  290loPI   C2A 4632  16.831   8.258   8.923  0.0908 -0.2785 -0.2186
  290loPI   C3A 4633  17.072   8.464   8.603 -0.1174  0.0814 -0.2222
  290loPI   C4A 4634  16.956   8.419   8.243 -0.0006 -0.0763  0.0996
  290loPI   C5A 4635  16.824   8.350   7.823 -0.2690  0.0244 -0.0551
  290loPI   C6A 4636  16.678   8.194   7.418 -0.0358  0.0438 -0.1152
  290loPI   C1B 4637  17.292   8.849   8.903 -0.1167 -0.3814 -0.2819
  290loPI   C2B 4638  17.329   8.860   8.419 -0.0998 -0.2437 -0.1586
  290loPI   C3B 4639  17.147   9.073   8.099 -0.3268 -0.1284  0.2567
  290loPI   C4B 4640  16.904   9.122   7.697  0.2701  0.0043 -0.0071
  291loPI    C1 4641   2.105   7.747  10.219 -0.1357 -0.0416  0.2934
  291loPI    C2 4642   2.184   8.138  10.196 -0.1573 -0.0474  0.1103
  291loPI    C3 4643   2.477   7.880  10.279 -0.1190 -0.0038  0.1113
  291loPI   PO4 4644   1.821   7.727  10.035 -0.2187 -0.0441  0.0033
  291loPI   GL1 4645   1.741   7.576   9.643  0.0271  0.0809 -0.0221
  291loPI   GL2 4646   1.964   7.508   9.383  0.1449 -0.1466 -0.3439
  291loPI   C1A 4647   1.492   7.571   9.233 -0.2321 -0.1709 -0.2076
  291loPI   C2A 4648   1.590   7.514   8.717 -0.0594  0.3549 -0.0374
  291loPI   C3A 4649   1.572   7.346   8.233 -0.0086 -0.1964 -0.1728
  291loPI   C4A 4650   1.551   7.373   7.903 -0.1029  0.3204  0.2296
  291loPI   C5A 4651   1.396   7.295   7.570 -0.0847  0.1634 -0.0069
  291loPI   C6A 4652   1.542   7.336   7.150  0.0012 -0.0767 -0.2504
  291loPI   C1B 4653   2.021   7.519   9.010  0.0083 -0.1838  0.0385
  291loPI   C2B 4654   2.040   7.586   8.502 -0.2773 -0.1070  0.0206
  291loPI   C3B 4655   2.219   7.485   8.047  0.2941  0.0188  0.2216
  291loPI   C4B 4656   2.662   7.459   7.843 -0.0727  0.0646 -0.0698
  292loPI    C1 4657   1.625  11.352   9.734  0.0367 -0.0385  0.2317
  292loPI    C2 4658   1.864  11.087   9.916 -0.1953 -0.3430  0.1022
  292loPI    C3 4659   1.508  11.179  10.075 -0.1314 -0.1344  0.1273
  292loPI   PO4 4660   1.839  11.639   9.677 -0.2218  0.0667 -0.0318
  292loPI   GL1 4661   1.935  11.837   9.362 -0.0527  0.2485 -0.0791
  292loPI   GL2 4662   2.175  11.955   9.118  0.0152  0.0643  0.0206
  292loPI   C1A 4663   1.735  11.701   9.003 -0.2005 -0.0857 -0.1736
  292loPI   C2A 4664   1.676  11.686   8.577 -0.1336  0.1375  0.2216
  292loPI   C3A 4665   1.635  11.737   8.264  0.3208 -0.2396 -0.1069
  292loPI   C4A 4666   1.553  11.909   7.877  0.1284  0.0952  0.1358
  292loPI   C5A 4667   1.414  12.235   7.634 -0.1249 -0.1559  0.0340
  292loPI   C6A 4668   1.328  12.374   7.223  0.1886 -0.1459  0.2624
  292loPI   C1B 4669   2.116  11.836   8.652  0.0828 -0.0617  0.0348
  292loPI   C2B 4670   2.113  11.725   8.216 -0.1434 -0.0751 -0.2382
  292loPI   C3B 4671   1.949  11.603   7.809  0.0823 -0.1378 -0.2211
  292loPI   C4B 4672   2.140  11.461   7.404 -0.3034 -0.0139 -0.1845
  293loPI    C1 4673  14.373  18.629  10.618  0.0433 -0.1231  0.2805
  293loPI    C2 4674  14.080  18.895  10.679  0.0826 -0.0372  0.1014
  293loPI    C3 4675  14.206  18.664  10.981 -0.1080 -0.0131  0.2016
  293loPI   PO4 4676  14.315  18.516  10.393 -0.1902  0.0021  0.0506
  293loPI   GL1 4677  14.170  18.844  10.081 -0.1425 -0.0674 -0.4730
  293loPI   GL2 4678  14.427  18.982   9.937  0.0603  0.0889 -0.0437
  293loPI   C1A 4679  14.186  18.682   9.600  0.0847  0.0516  0.0326
  293loPI   C2A 4680  14.143  18.598   9.194 -0.1754 -0.2379  0.2149
  293loPI   C3A 4681  14.067  18.668   8.714 -0.3115 -0.2218 -0.0815
  293loPI   C4A 4682  14.296  18.783   8.371  0.3643 -0.0445  0.1249
  293loPI   C5A 4683  14.689  18.807   8.266 -0.3678  0.0733 -0.4978
  293loPI   C6A 4684  14.967  19.181   8.266 -0.2069  0.0300  0.1697
  293loPI   C1B 4685  14.635  18.785   9.666 -0.3919  0.1766 -0.1719
  293loPI   C2B 4686  14.710  18.472   9.443 -0.2163  0.2137 -0.0338
  293loPI   C3B 4687  14.525  18.166   9.042 -0.2446 -0.3532 -0.1674
  293loPI   C4B 4688  14.447  17.876   8.725 -0.0530  0.2464 -0.2302
  294loPI    C1 4689   4.164   1.425   9.957 -0.1973 -0.1395 -0.0053
  294loPI    C2 4690   4.108   1.112  10.200  0.1322 -0.1170  0.1046
  294loPI    C3 4691   3.876   1.436  10.235 -0.0032 -0.2232  0.2028
  294loPI   PO4 4692   4.235   1.317   9.683 -0.0197  0.1131 -0.1125
  294loPI   GL1 4693   4.555   1.448   9.352 -0.1212  0.3011  0.0743
  294loPI   GL2 4694   4.424   1.656   9.312  0.2487 -0.1886  0.1846
  294loPI   C1A 4695   4.680   1.314   8.979  0.1041  0.0528 -0.1302
  294loPI   C2A 4696   4.709   1.319   8.486 -0.1590 -0.0235 -0.0692
  294loPI   C3A 4697   4.817   1.381   8.038  0.1325  0.0141 -0.1909
  294loPI   C4A 4698   4.761   1.293   7.609 -0.3240  0.0373  0.1344
  294loPI   C5A 4699   4.722   1.041   7.246  0.2443 -0.3060 -0.3016
  294loPI   C6A 4700   4.715   0.566   7.111  0.1088  0.0926 -0.0169
  294loPI   C1B 4701   4.297   1.627   8.873  0.3484 -0.0028 -0.3158
  294loPI   C2B 4702   4.341   1.627   8.424 -0.1696 -0.1507  0.1850
  294loPI   C3B 4703   4.310   1.741   8.001 -0.4473  0.1174 -0.0224
  294loPI   C4B 4704   4.433   1.850   7.536 -0.0229 -0.0993  0.0305
  295loPI    C1 4705   0.633   2.575  10.320 -0.1981  0.0619  0.0046
  295loPI    C2 4706   0.517   2.818  10.615 -0.2774  0.1145 -0.0694
  295loPI    C3 4707   0.857   2.892  10.416 -0.2526  0.1107 -0.0286
  295loPI   PO4 4708   0.444   2.501  10.139  0.1746  0.1097 -0.1638
  295loPI   GL1 4709   0.247   2.619   9.702 -0.0814 -0.1280 -0.0258
  295loPI   GL2 4710   0.434   2.332   9.661  0.0957 -0.1795  0.1014
  295loPI   C1A 4711   0.499   2.684   9.286 -0.1406 -0.0675  0.2405
  295loPI   C2A 4712   0.415   2.840   9.001  0.3049  0.0677  0.3069
  295loPI   C3A 4713   0.280   2.669   8.721  0.0582 -0.0951  0.0074
  295loPI   C4A 4714   0.108   2.812   8.276  0.1317 -0.2696 -0.0217
  295loPI   C5A 4715   0.051   2.953   7.891 -0.1009 -0.2208  0.3918
  295loPI   C6A 4716   0.317   3.038   7.447  0.0792 -0.0000 -0.0643
  295loPI   C1B 4717   0.478   2.088   9.209  0.2432 -0.0927 -0.3410
  295loPI   C2B 4718   0.374   2.182   8.828  0.2576  0.0476 -0.3097
  295loPI   C3B 4719   0.213   2.284   8.408 -0.3915  0.1320  0.1306
  295loPI   C4B 4720   0.247   2.411   7.931  0.1494  0.0806 -0.0143
  296loPI    C1 4721  11.817   3.293  10.357 -0.0248 -0.0717  0.1002
  296loPI    C2 4722  11.756   3.645  10.537  0.1511  0.1075 -0.1834
  296loPI    C3 4723  12.127   3.500  10.502  0.0800 -0.1053 -0.0725
  296loPI   PO4 4724  11.805   3.321  10.094 -0.0123  0.2254  0.0932
  296loPI   GL1 4725  11.951   3.507   9.694  0.1332 -0.1862 -0.0620
  296loPI   GL2 4726  11.671   3.619   9.566 -0.1947 -0.3134  0.0395
  296loPI   C1A 4727  11.943   3.256   9.290 -0.1412 -0.0020  0.1460
  296loPI   C2A 4728  11.964   3.062   8.837  0.1099  0.2687 -0.1763
  296loPI   C3A 4729  11.986   2.999   8.508  0.3428  0.2105  0.0499
  296loPI   C4A 4730  12.273   3.348   8.304  0.0456 -0.0344 -0.1168
  296loPI   C5A 4731  12.573   3.692   8.217  0.0257 -0.1075  0.0849
  296loPI   C6A 4732  12.558   4.172   8.066  0.3368  0.0352 -0.0183
  296loPI   C1B 4733  11.460   3.397   9.293 -0.4491 -0.0416 -0.1713
  296loPI   C2B 4734  11.544   3.292   8.904 -0.0169  0.1910  0.0756
  296loPI   C3B 4735  11.502   3.078   8.447 -0.1717  0.1985  0.2541
  296loPI   C4B 4736  11.222   3.071   8.072  0.4726  0.1281  0.0426
  297loPI    C1 4737  12.212   6.994  10.047  0.1035 -0.0314 -0.0231
  297loPI    C2 4738  12.500   6.717  10.071  0.0202 -0.1193 -0.0340
  297loPI    C3 4739  12.354   6.884  10.404  0.0216 -0.1392 -0.0235
  297loPI   PO4 4740  12.048   6.895   9.783  0.2213  0.0055 -0.1939
  297loPI   GL1 4741  12.016   6.562   9.495 -0.0685 -0.3505  0.1673
  297loPI   GL2 4742  11.852   6.197   9.444 -0.1206  0.1305 -0.4344
  297loPI   C1A 4743  11.819   6.542   9.111  0.1495  0.0354  0.0319
  297loPI   C2A 4744  11.863   6.585   8.780  0.0322  0.2134  0.0617
  297loPI   C3A 4745  11.865   6.438   8.314 -0.1541  0.0773  0.2032
  297loPI   C4A 4746  11.738   6.224   7.943  0.1149  0.1087  0.1590
  297loPI   C5A 4747  11.665   5.928   7.707  0.0898  0.0568  0.1668
  297loPI   C6A 4748  11.269   5.794   7.784  0.2094  0.0673  0.0248
  297loPI   C1B 4749  12.208   6.113   9.164  0.1269  0.2869  0.0283
  297loPI   C2B 4750  12.244   6.115   8.727  0.0869  0.5463 -0.0259
  297loPI   C3B 4751  12.294   6.103   8.384 -0.2041  0.1399 -0.0750
  297loPI   C4B 4752  12.240   6.291   7.930 -0.0737 -0.2120  0.1836
  298loPI    C1 4753   2.098  12.136   9.872 -0.0382  0.0498  0.0702
  298loPI    C2 4754   2.298  12.340  10.151 -0.0325 -0.0445  0.1354
  298loPI    C3 4755   2.345  11.944  10.120  0.0740 -0.0157 -0.0902
  298loPI   PO4 4756   2.017  12.382   9.696 -0.0313 -0.1900 -0.1899
  298loPI   GL1 4757   1.916  12.580   9.249  0.1799 -0.2217  0.0677
  298loPI   GL2 4758   1.532  12.352   9.211 -0.1331  0.0242  0.0181
  298loPI   C1A 4759   1.826  12.938   9.075 -0.1058  0.0355 -0.0255
  298loPI   C2A 4760   1.588  13.146   8.636 -0.2404  0.3115  0.2724
  298loPI   C3A 4761   1.917  13.263   8.185  0.2097  0.2412 -0.0192
  298loPI   C4A 4762   2.076  13.342   7.753  0.3486  0.0007  0.1579
  298loPI   C5A 4763   2.348  13.461   7.535  0.1243  0.0800  0.0609
  298loPI   C6A 4764   2.477  13.648   7.171  0.1521  0.1249  0.1830
  298loPI   C1B 4765   1.822  12.177   8.826  0.1627 -0.0783  0.2166
  298loPI   C2B 4766   1.924  12.240   8.383  0.1465 -0.2000  0.0930
  298loPI   C3B 4767   1.873  12.291   7.962  0.1338 -0.0131  0.0731
  298loPI   C4B 4768   1.901  12.436   7.617 -0.0430  0.1829  0.1269
  299loPI    C1 4769  13.273   5.676  10.214  0.0965  0.1286  0.1063
  299loPI    C2 4770  13.030   5.374  10.314  0.2876 -0.0395  0.0699
  299loPI    C3 4771  12.927   5.751  10.402 -0.0959 -0.0861 -0.1535
  299loPI   PO4 4772  13.402   5.547   9.983  0.0629  0.3064 -0.0505
  299loPI   GL1 4773  13.302   5.493   9.577 -0.0187  0.2205 -0.0947
  299loPI   GL2 4774  13.391   5.141   9.423  0.1026 -0.0342 -0.4727
  299loPI   C1A 4775  13.486   5.640   9.176 -0.0295 -0.0019  0.1758
  299loPI   C2A 4776  13.507   5.507   8.735  0.0565  0.0585 -0.0801
  299loPI   C3A 4777  13.650   5.518   8.250  0.0983 -0.0132  0.1849
  299loPI   C4A 4778  13.912   5.530   7.933 -0.0896 -0.0218 -0.2712
  299loPI   C5A 4779  14.328   5.623   7.683  0.0153 -0.5272  0.0629
  299loPI   C6A 4780  14.507   5.924   7.559  0.4433 -0.2591  0.0902
  299loPI   C1B 4781  13.419   4.983   8.972  0.0914  0.3600 -0.0616
  299loPI   C2B 4782  13.252   4.864   8.631 -0.1352 -0.0353 -0.0021
  299loPI   C3B 4783  13.371   4.577   8.367  0.2667 -0.1799 -0.0967
  299loPI   C4B 4784  13.607   4.146   8.451  0.3361 -0.1396 -0.1280
  300loPI    C1 4785   9.376  13.622  10.397  0.0118  0.0481 -0.0254
  300loPI    C2 4786   9.751  13.750  10.342 -0.1038  0.4151  0.0152
  300loPI    C3 4787   9.651  13.565  10.682  0.1648 -0.1752 -0.2143
  300loPI   PO4 4788   9.255  13.495  10.132  0.0021  0.0532  0.0584
  300loPI   GL1 4789   9.232  13.595   9.710 -0.0042  0.0584  0.0420
  300loPI   GL2 4790   9.167  13.276   9.625 -0.2215  0.0747  0.0871
  300loPI   C1A 4791   9.228  13.786   9.237 -0.3094  0.2698  0.2462
  300loPI   C2A 4792   9.297  14.004   8.854  0.1261 -0.1977 -0.1424
  300loPI   C3A 4793   9.310  14.086   8.399 -0.2797  0.1090  0.2591
  300loPI   C4A 4794   9.220  14.232   7.990 -0.0713  0.1349  0.3119
  300loPI   C5A 4795   8.932  14.291   7.762 -0.0395 -0.3759 -0.0065
  300loPI   C6A 4796   8.796  14.632   7.523 -0.1169 -0.5664  0.0194
  300loPI   C1B 4797   9.435  13.313   9.359  0.1824  0.0553  0.1348
  300loPI   C2B 4798   9.441  13.204   8.976  0.1475 -0.2092 -0.1935
  300loPI   C3B 4799   9.431  13.191   8.507  0.1142  0.4507 -0.0441
  300loPI   C4B 4800   9.350  13.087   8.187 -0.0354  0.1727 -0.1595
  301loPI    C1 4801  16.998   0.613  10.415 -0.3861  0.0934 -0.1307
  301loPI    C2 4802  16.935   0.741  10.789 -0.1407 -0.1665  0.0035
  301loPI    C3 4803  17.294   0.788  10.619 -0.2567 -0.0319 -0.2092
  301loPI   PO4 4804  16.823   0.731  10.270  0.0329  0.0593 -0.2585
  301loPI   GL1 4805  16.578   0.855   9.949  0.0707  0.0644  0.1689
  301loPI   GL2 4806  16.774   0.921   9.763  0.0858 -0.0548  0.0243
  301loPI   C1A 4807  16.309   0.695   9.601  0.2498 -0.6534 -0.0163
  301loPI   C2A 4808  16.320   0.675   9.211  0.1366  0.0256 -0.1736
  301loPI   C3A 4809  16.130   0.862   8.797 -0.0185 -0.0013  0.1273
  301loPI   C4A 4810  15.835   1.036   8.533 -0.3795 -0.3248  0.0299
  301loPI   C5A 4811  15.653   0.735   8.139 -0.0956 -0.1430  0.1582
  301loPI   C6A 4812  15.453   0.438   7.853  0.1115  0.2793  0.3321
  301loPI   C1B 4813  16.841   0.874   9.306  0.0703  0.0603 -0.0447
  301loPI   C2B 4814  16.646   0.571   8.925 -0.1063 -0.1260 -0.1446
  301loPI   C3B 4815  16.391   0.556   8.525 -0.0809 -0.0807  0.1012
  301loPI   C4B 4816  16.407   0.405   8.060 -0.2080  0.0382 -0.2131
  302loPI    C1 4817  16.740  16.867  10.289 -0.2210 -0.0915  0.0619
  302loPI    C2 4818  16.505  17.183  10.216  0.0566  0.1576  0.2235
  302loPI    C3 4819  16.645  17.119  10.585 -0.0179 -0.1722  0.1980
  302loPI   PO4 4820  16.674  16.690  10.169 -0.1190 -0.2311 -0.1924
  302loPI   GL1 4821  16.434  16.368   9.996 -0.0528 -0.0885 -0.0265
  302loPI   GL2 4822  16.558  16.395   9.747 -0.1857 -0.2236 -0.4060
  302loPI   C1A 4823  16.068  16.410   9.607 -0.2302  0.1541 -0.6864
  302loPI   C2A 4824  15.788  16.561   9.303  0.0268  0.0740 -0.0307
  302loPI   C3A 4825  15.387  16.386   8.954  0.0713  0.0450  0.0328
  302loPI   C4A 4826  15.175  16.676   8.862  0.0696  0.2590 -0.0432
  302loPI   C5A 4827  14.920  16.984   8.676  0.0876  0.0193  0.1605
  302loPI   C6A 4828  14.560  17.044   8.672  0.0403 -0.0477  0.0086
  302loPI   C1B 4829  16.463  16.651   9.444 -0.0868  0.0031 -0.1763
  302loPI   C2B 4830  16.244  16.682   9.072 -0.2845  0.0561  0.2853
  302loPI   C3B 4831  16.119  17.023   8.771 -0.0864  0.0174 -0.1710
  302loPI   C4B 4832  15.661  17.240   8.536 -0.0803 -0.3056  0.2005
  303loPI    C1 4833   0.446   8.856   9.934  0.0043  0.2485  0.0156
  303loPI    C2 4834   0.322   8.741   9.571 -0.0007 -0.0852  0.1192
  303loPI    C3 4835   0.086   8.687   9.890  0.1361 -0.0962  0.2194
  303loPI   PO4 4836   0.696   8.911   9.878  0.0584  0.2330  0.1166
  303loPI   GL1 4837   0.809   8.965   9.491 -0.2663  0.1038  0.1891
  303loPI   GL2 4838   1.035   8.835   9.468  0.1677  0.1112  0.0529
  303loPI   C1A 4839   0.491   8.955   9.171  0.1030 -0.1121  0.3148
  303loPI   C2A 4840   0.374   8.888   8.780  0.0764  0.0432  0.3134
  303loPI   C3A 4841  -0.049   8.990   8.590  0.3974  0.0497  0.1346
  303loPI   C4A 4842  -0.268   8.737   8.338 -0.2290  0.0455 -0.1616
  303loPI   C5A 4843  -0.350   8.536   7.961  0.1183 -0.2607  0.1786
  303loPI   C6A 4844  -0.276   8.210   7.551 -0.0072  0.0493 -0.0408
  303loPI   C1B 4845   0.951   8.915   8.999 -0.2712 -0.1964  0.1323
  303loPI   C2B 4846   1.035   8.813   8.622 -0.1718 -0.2078  0.0780
  303loPI   C3B 4847   1.235   8.749   8.144  0.2559  0.2119  0.0995
  303loPI   C4B 4848   1.531   8.773   7.782 -0.1152  0.0662  0.0436
  304loPI    C1 4849   7.718  11.472   9.925  0.1356  0.0459 -0.0858
  304loPI    C2 4850   7.958  11.755   9.775  0.0569  0.0995 -0.1114
  304loPI    C3 4851   7.648  11.858  10.007  0.0827  0.0278 -0.0447
  304loPI   PO4 4852   7.683  11.307   9.719 -0.1563 -0.0310  0.2130
  304loPI   GL1 4853   7.914  11.174   9.422 -0.0521 -0.3013 -0.1258
  304loPI   GL2 4854   8.077  10.953   9.441 -0.0670  0.1129 -0.1113
  304loPI   C1A 4855   7.975  11.225   8.976  0.1341 -0.1735 -0.0186
  304loPI   C2A 4856   8.212  11.190   8.677 -0.1808  0.0910  0.0130
  304loPI   C3A 4857   8.280  11.280   8.245  0.4836 -0.1532  0.1553
  304loPI   C4A 4858   8.301  11.376   7.872 -0.0040  0.1105  0.0835
  304loPI   C5A 4859   8.159  11.304   7.515  0.0964 -0.0504  0.0551
  304loPI   C6A 4860   8.105  11.130   7.163 -0.0311  0.0058  0.2269
  304loPI   C1B 4861   7.701  10.868   9.045 -0.1930  0.1027  0.5155
  304loPI   C2B 4862   7.781  10.837   8.632 -0.1390 -0.0844  0.0953
  304loPI   C3B 4863   7.984  10.815   8.300 -0.1713 -0.1352  0.3931
  304loPI   C4B 4864   8.207  10.490   8.079 -0.0953  0.0173  0.1835
  305loPI    C1 4865  14.829  18.348  10.731  0.1009  0.0166  0.0961
  305loPI    C2 4866  14.991  18.714  10.716 -0.1237  0.1150  0.0182
  305loPI    C3 4867  15.155  18.432  10.948  0.2095  0.1841 -0.1266
  305loPI   PO4 4868  14.759  18.305  10.482  0.0047  0.1665 -0.1671
  305loPI   GL1 4869  14.553  18.289  10.032  0.0502  0.1641 -0.0936
  305loPI   GL2 4870  14.902  18.380   9.967 -0.2071 -0.1439  0.2392
  305loPI   C1A 4871  14.690  18.010   9.727  0.0337  0.1034  0.2280
  305loPI   C2A 4872  14.535  17.701   9.367  0.0400  0.0637 -0.1587
  305loPI   C3A 4873  14.391  17.357   9.074 -0.1333  0.0125  0.2396
  305loPI   C4A 4874  14.266  17.424   8.677  0.1136 -0.2987  0.0117
  305loPI   C5A 4875  13.891  17.291   8.539 -0.1943  0.1751  0.1782
  305loPI   C6A 4876  13.526  17.076   8.547 -0.0905 -0.0188 -0.0777
  305loPI   C1B 4877  15.120  18.242   9.596  0.2344 -0.0799  0.1807
  305loPI   C2B 4878  15.040  18.001   9.200  0.2009  0.1891 -0.0641
  305loPI   C3B 4879  14.940  18.018   8.798  0.1136  0.0512 -0.0159
  305loPI   C4B 4880  14.896  17.837   8.404  0.4789  0.1560 -0.2558
  306loPI    C1 4881  14.058   4.141  10.554 -0.3116 -0.0007 -0.0713
  306loPI    C2 4882  13.939   4.055  10.926  0.0485 -0.0270  0.0420
  306loPI    C3 4883  14.101   3.770  10.698  0.0306  0.0412 -0.0566
  306loPI   PO4 4884  13.780   4.225  10.477  0.0933  0.1034 -0.3502
  306loPI   GL1 4885  13.570   4.033  10.096 -0.0028 -0.1451 -0.0215
  306loPI   GL2 4886  13.439   3.708   9.994  0.1843 -0.1474 -0.1276
  306loPI   C1A 4887  13.622   4.236   9.716 -0.1986  0.0764  0.0873
  306loPI   C2A 4888  13.511   4.110   9.253 -0.1260  0.0215 -0.2173
  306loPI   C3A 4889  13.636   3.870   8.922 -0.2087 -0.1989 -0.1520
  306loPI   C4A 4890  13.840   3.745   8.519  0.4542 -0.1837 -0.0174
  306loPI   C5A 4891  13.657   3.561   8.116 -0.1462  0.0220  0.2418
  306loPI   C6A 4892  13.852   3.522   7.709 -0.2459 -0.2289 -0.1829
  306loPI   C1B 4893  13.796   3.734   9.728  0.3113  0.0125 -0.1150
  306loPI   C2B 4894  13.932   3.986   9.458 -0.3451 -0.0385  0.0502
  306loPI   C3B 4895  13.978   4.431   9.379 -0.0338 -0.3429  0.0193
  306loPI   C4B 4896  13.767   4.726   9.350  0.0284  0.0791  0.1517
  307loPI    C1 4897  16.703  11.390   9.962 -0.1079  0.1848 -0.1403
  307loPI    C2 4898  17.014  11.424  10.212 -0.0086 -0.1725 -0.2088
  307loPI    C3 4899  16.659  11.301  10.350 -0.0260 -0.1086 -0.1959
  307loPI   PO4 4900  16.830  11.509   9.743  0.0112 -0.1555  0.0845
  307loPI   GL1 4901  16.589  11.337   9.387  0.0795 -0.2158 -0.0957
  307loPI   GL2 4902  16.256  11.479   9.504 -0.0671  0.0728  0.1572
  307loPI   C1A 4903  16.661  11.102   9.036 -0.0022 -0.0218  0.0612
  307loPI   C2A 4904  16.464  11.233   8.625  0.0504  0.1884  0.0199
  307loPI   C3A 4905  16.603  11.147   8.306  0.1897  0.0230  0.2248
  307loPI   C4A 4906  16.647  10.640   8.052  0.0669 -0.1291  0.1886
  307loPI   C5A 4907  16.708  10.451   7.633 -0.1632 -0.0160 -0.1537
  307loPI   C6A 4908  16.563  10.400   7.244 -0.0549  0.0109  0.2362
  307loPI   C1B 4909  16.174  11.543   9.107  0.3962  0.3076  0.0050
  307loPI   C2B 4910  16.062  11.557   8.701 -0.2957  0.0103 -0.1247
  307loPI   C3B 4911  16.098  11.411   8.299 -0.0793 -0.0691 -0.0152
  307loPI   C4B 4912  16.348  11.149   7.910 -0.2975 -0.0130  0.4028
  308loPI    C1 4913   2.313  16.928  10.211  0.0122 -0.0045 -0.0442
  308loPI    C2 4914   2.159  17.129  10.521  0.0175  0.0048 -0.0476
  308loPI    C3 4915   2.307  16.761  10.574 -0.2791 -0.1255 -0.1021
  308loPI   PO4 4916   2.207  16.885  10.024  0.3572  0.0670 -0.2879
  308loPI   GL1 4917   2.222  17.060   9.615  0.0171 -0.0736  0.1734
  308loPI   GL2 4918   2.380  16.750   9.600 -0.1087  0.1678  0.1855
  308loPI   C1A 4919   2.227  16.947   9.174  0.4505 -0.2068  0.0956
  308loPI   C2A 4920   2.183  16.914   8.747  0.0419 -0.1041  0.2796
  308loPI   C3A 4921   2.141  16.861   8.276 -0.2029 -0.0817  0.0782
  308loPI   C4A 4922   2.171  16.866   7.773 -0.1921  0.0899 -0.0230
  308loPI   C5A 4923   2.327  16.730   7.387  0.1962  0.3280 -0.1244
  308loPI   C6A 4924   2.624  16.422   7.194 -0.3830 -0.1798  0.0429
  308loPI   C1B 4925   2.567  16.507   9.268 -0.0770 -0.2002 -0.1372
  308loPI   C2B 4926   2.453  16.529   8.938 -0.0950 -0.0195  0.3249
  308loPI   C3B 4927   2.380  16.455   8.501  0.0743 -0.1071 -0.0613
  308loPI   C4B 4928   2.302  16.283   8.152  0.0963 -0.3958 -0.2049
  309loPI    C1 4929   6.376  13.536   9.489 -0.0060  0.0562  0.1747
  309loPI    C2 4930   5.999  13.670   9.507 -0.1173 -0.2102 -0.0925
  309loPI    C3 4931   6.079  13.321   9.327  0.2831 -0.0616 -0.2137
  309loPI   PO4 4932   6.479  13.835   9.436  0.0217  0.2276 -0.3302
  309loPI   GL1 4933   6.656  13.995   8.925 -0.0938 -0.1554  0.1124
  309loPI   GL2 4934   6.770  13.700   8.879  0.0672 -0.0599 -0.1445
  309loPI   C1A 4935   6.534  14.052   8.469 -0.1894  0.0281  0.0962
  309loPI   C2A 4936   6.614  14.088   8.037 -0.3461  0.1082 -0.0491
  309loPI   C3A 4937   6.750  14.330   7.606  0.0538  0.1497  0.1205
  309loPI   C4A 4938   6.986  14.519   7.494 -0.3708  0.0107  0.0603
  309loPI   C5A 4939   7.020  14.771   7.161  0.0972 -0.1418  0.3734
  309loPI   C6A 4940   6.921  15.107   6.991  0.0880  0.0065  0.0309
  309loPI   C1B 4941   6.853  13.655   8.445  0.2024 -0.2503  0.4794
  309loPI   C2B 4942   6.938  13.680   8.044 -0.1033  0.1018  0.0167
  309loPI   C3B 4943   7.045  13.827   7.601 -0.2181 -0.0567  0.0984
  309loPI   C4B 4944   7.048  13.907   7.130  0.1728  0.3715 -0.1565
  310loPI    C1 4945  16.273   4.479  10.255 -0.2123  0.0519  0.1339
  310loPI    C2 4946  16.277   4.316  10.620  0.1219  0.0646  0.1387
  310loPI    C3 4947  16.159   4.695  10.571  0.0384  0.0503  0.2273
  310loPI   PO4 4948  16.445   4.414  10.111  0.3630 -0.1407 -0.0089
  310loPI   GL1 4949  16.335   4.509   9.713 -0.0507  0.0338 -0.1816
  310loPI   GL2 4950  16.672   4.467   9.618  0.0277 -0.2378 -0.0087
  310loPI   C1A 4951  16.145   4.517   9.393 -0.1082  0.1713 -0.0322
  310loPI   C2A 4952  16.003   4.615   8.881 -0.1601 -0.0011 -0.0325
  310loPI   C3A 4953  15.815   4.765   8.508  0.0853  0.1971  0.2105
  310loPI   C4A 4954  15.437   4.957   8.250 -0.1156 -0.0138  0.1156
  310loPI   C5A 4955  15.129   4.735   8.064 -0.0017  0.3647  0.1420
  310loPI   C6A 4956  15.042   4.884   7.731 -0.0296 -0.1304  0.2555
  310loPI   C1B 4957  16.590   4.548   9.161 -0.0344  0.0113 -0.0005
  310loPI   C2B 4958  16.479   4.594   8.702 -0.1556  0.2202  0.0294
  310loPI   C3B 4959  16.501   4.600   8.247 -0.1443 -0.3139 -0.2539
  310loPI   C4B 4960  16.103   4.468   7.993  0.3799 -0.0379  0.1507
  311loPI    C1 4961  10.983   4.003  10.454  0.0976 -0.1241 -0.1538
  311loPI    C2 4962  10.924   3.942  10.845 -0.1757 -0.0328 -0.1792
  311loPI    C3 4963  11.253   3.800  10.669 -0.0186 -0.0180  0.0967
  311loPI   PO4 4964  10.782   3.907  10.331 -0.2669  0.1572 -0.0902
  311loPI   GL1 4965  10.517   3.887   9.889 -0.0062  0.0830 -0.2044
  311loPI   GL2 4966  10.260   3.636   9.846 -0.2286  0.2483  0.1645
  311loPI   C1A 4967  10.453   3.941   9.450  0.2579  0.2139  0.2534
  311loPI   C2A 4968  10.169   3.819   9.170 -0.1734 -0.1361  0.0789
  311loPI   C3A 4969   9.927   3.683   8.785  0.0394 -0.2988 -0.0703
  311loPI   C4A 4970   9.957   3.918   8.416 -0.0472  0.0190 -0.1148
  311loPI   C5A 4971   9.706   3.724   8.106  0.1140 -0.3584  0.1050
  311loPI   C6A 4972   9.660   3.315   7.980 -0.0307  0.2258 -0.1952
  311loPI   C1B 4973  10.145   3.410   9.467 -0.1166  0.2110 -0.0211
  311loPI   C2B 4974  10.216   3.288   9.072 -0.1247  0.0071  0.1020
  311loPI   C3B 4975  10.203   3.225   8.609  0.0772  0.1017  0.2972
  311loPI   C4B 4976  10.139   3.455   8.212  0.1702  0.1989  0.1553
  312loPI    C1 4977   0.926   7.793  10.218  0.0346 -0.0198  0.0528
  312loPI    C2 4978   0.572   7.902  10.368 -0.0459 -0.3714  0.1269
  312loPI    C3 4979   0.836   7.710  10.599  0.1410 -0.2286  0.0341
  312loPI   PO4 4980   0.755   7.722   9.924 -0.2810  0.2557 -0.1262
  312loPI   GL1 4981   0.963   7.969   9.586 -0.1004 -0.3398  0.0896
  312loPI   GL2 4982   0.945   7.650   9.448 -0.0459 -0.0190 -0.0930
  312loPI   C1A 4983   1.188   8.028   9.239  0.3595 -0.0243  0.0032
  312loPI   C2A 4984   1.340   7.931   8.867  0.0352  0.0237  0.1338
  312loPI   C3A 4985   1.522   7.903   8.382 -0.0034 -0.0759 -0.1553
  312loPI   C4A 4986   1.664   7.836   8.031  0.1115 -0.0425  0.1206
  312loPI   C5A 4987   2.086   7.853   7.780 -0.1351 -0.1275  0.0651
  312loPI   C6A 4988   2.573   7.963   7.629  0.3655 -0.1637 -0.1211
  312loPI   C1B 4989   0.851   7.799   8.955 -0.0651 -0.0322  0.2657
  312loPI   C2B 4990   0.863   7.813   8.582 -0.3271  0.0869  0.0812
  312loPI   C3B 4991   1.002   8.131   8.215 -0.1586 -0.2735 -0.1937
  312loPI   C4B 4992   1.301   8.203   7.899 -0.4404 -0.3785 -0.1589
  313loPI    C1 4993  18.088  14.597  10.039 -0.0832  0.0389  0.1571
  313loPI    C2 4994  18.308  14.820   9.790 -0.3597 -0.0131 -0.1404
  313loPI    C3 4995  18.181  14.974  10.136  0.5014 -0.1190  0.2483
  313loPI   PO4 4996  18.091  14.374   9.891  0.0482  0.1016 -0.0966
  313loPI   GL1 4997  17.860  14.184   9.604  0.0005 -0.3209  0.0908
  313loPI   GL2 4998  17.824  14.606   9.465  0.1250 -0.4150 -0.0219
  313loPI   C1A 4999  17.950  14.304   9.129 -0.0145 -0.0465  0.1853
  313loPI   C2A 5000  18.297  14.493   8.807  0.0064  0.0299 -0.1697
  313loPI   C3A 5001  18.382  14.464   8.449  0.1460 -0.1029 -0.0603
  313loPI   C4A 5002  18.538  14.443   8.071 -0.0754 -0.5439  0.3086
  313loPI   C5A 5003  18.851  14.728   8.027  0.2491  0.0062 -0.1991
  313loPI   C6A 5004  18.902  14.605   7.674  0.1553  0.0325  0.0384
  313loPI   C1B 5005  18.164  14.716   9.344  0.0063  0.0157 -0.0129
  313loPI   C2B 5006  18.599  14.532   9.207 -0.2793  0.0769 -0.1401
  313loPI   C3B 5007  18.748  14.354   8.810  0.1618  0.1208  0.2250
  313loPI   C4B 5008  18.801  14.135   8.338  0.0079  0.1073  0.0322
  314loPI    C1 5009   8.097  14.015  10.053 -0.1882  0.2067  0.1184
  314loPI    C2 5010   8.342  13.779  10.263 -0.0687  0.0571 -0.1819
  314loPI    C3 5011   7.960  13.674  10.211 -0.1867  0.2594  0.2340
  314loPI   PO4 5012   8.183  14.094   9.823 -0.0500 -0.0569  0.0431
  314loPI   GL1 5013   8.349  14.457   9.657  0.0082  0.0738  0.1726
  314loPI   GL2 5014   8.612  14.247   9.609  0.3823 -0.4516 -0.0624
  314loPI   C1A 5015   8.491  14.671   9.192  0.3412 -0.0527 -0.2000
  314loPI   C2A 5016   8.543  14.725   8.690 -0.2136  0.0753 -0.0508
  314loPI   C3A 5017   8.525  14.819   8.272 -0.1653 -0.2320 -0.1001
  314loPI   C4A 5018   8.656  14.877   7.905  0.1698  0.0392 -0.0012
  314loPI   C5A 5019   8.336  14.877   7.527 -0.0196 -0.1890 -0.1019
  314loPI   C6A 5020   7.924  14.778   7.217  0.0784  0.2435 -0.4396
  314loPI   C1B 5021   8.828  14.263   9.217  0.2168  0.3991  0.0492
  314loPI   C2B 5022   8.807  14.314   8.787 -0.4053  0.1363  0.0860
  314loPI   C3B 5023   8.783  14.371   8.287 -0.2054  0.1004 -0.2723
  314loPI   C4B 5024   8.436  14.335   7.919  0.2296 -0.2726 -0.0243
  315loPI    C1 5025   1.270  11.666   9.892 -0.1279  0.1983  0.0296
  315loPI    C2 5026   1.579  11.850  10.068 -0.1504  0.1243  0.1475
  315loPI    C3 5027   1.263  11.737  10.286 -0.3445  0.3668 -0.0028
  315loPI   PO4 5028   1.194  11.813   9.677 -0.2393  0.0696 -0.1163
  315loPI   GL1 5029   1.296  11.858   9.290  0.0966  0.0577 -0.1758
  315loPI   GL2 5030   1.394  11.565   9.346  0.1189 -0.0583  0.0515
  315loPI   C1A 5031   1.330  11.949   8.879  0.1129 -0.0486  0.2217
  315loPI   C2A 5032   1.374  12.220   8.473 -0.3822 -0.3887 -0.2205
  315loPI   C3A 5033   1.316  12.318   8.085  0.1219 -0.0238  0.1529
  315loPI   C4A 5034   1.098  12.530   7.896 -0.0700 -0.0870  0.0315
  315loPI   C5A 5035   0.846  12.909   7.814  0.1056 -0.0292  0.2893
  315loPI   C6A 5036   0.555  13.076   7.535  0.2075 -0.2295  0.0731
  315loPI   C1B 5037   1.269  11.502   8.883 -0.2421  0.0978 -0.0330
  315loPI   C2B 5038   1.186  11.685   8.404 -0.0199  0.2976 -0.3280
  315loPI   C3B 5039   1.152  11.488   8.008 -0.0739  0.2830  0.1871
  315loPI   C4B 5040   0.948  11.332   7.636 -0.3761  0.0598 -0.1171
  316loPI    C1 5041   2.264   2.358   9.719 -0.2705 -0.0173  0.1101
  316loPI    C2 5042   2.093   2.466  10.064  0.3339  0.2374  0.3451
  316loPI    C3 5043   2.447   2.280  10.067  0.2146 -0.0135 -0.1358
  316loPI   PO4 5044   2.112   2.315   9.564 -0.3127  0.0706 -0.2052
  316loPI   GL1 5045   2.102   2.554   9.210  0.1920 -0.1938 -0.1360
  316loPI   GL2 5046   2.361   2.723   9.266 -0.1221 -0.1667 -0.0028
  316loPI   C1A 5047   1.952   2.484   8.886 -0.0439  0.1322  0.3585
  316loPI   C2A 5048   1.859   2.342   8.489 -0.0683  0.0745  0.1245
  316loPI   C3A 5049   1.699   2.259   8.076  0.1146  0.0516  0.0800
  316loPI   C4A 5050   1.470   2.110   7.719 -0.0359 -0.1541 -0.3330
  316loPI   C5A 5051   1.331   1.967   7.469 -0.3005  0.1125 -0.1739
  316loPI   C6A 5052   1.600   1.579   7.335 -0.0947  0.2031 -0.2559
  316loPI   C1B 5053   2.342   2.838   8.823  0.1908  0.0578  0.2229
  316loPI   C2B 5054   2.052   2.816   8.497  0.2347 -0.0957  0.2359
  316loPI   C3B 5055   2.118   2.996   8.073 -0.2515 -0.1993 -0.0232
  316loPI   C4B 5056   2.131   2.923   7.600 -0.0215 -0.1885 -0.2443
  317loPI    C1 5057  14.477   9.487  10.194  0.1037 -0.0011 -0.2787
  317loPI    C2 5058  14.377   9.139  10.025  0.0039 -0.0896 -0.0423
  317loPI    C3 5059  14.093   9.402  10.124  0.0437 -0.1252  0.1704
  317loPI   PO4 5060  14.666   9.551   9.988 -0.0256 -0.0231  0.2018
  317loPI   GL1 5061  14.570   9.580   9.531 -0.1226 -0.0878  0.0116
  317loPI   GL2 5062  14.451   9.327   9.441  0.2367 -0.1576 -0.1050
  317loPI   C1A 5063  14.940   9.726   9.302 -0.2829 -0.0345  0.2585
  317loPI   C2A 5064  15.166   9.493   8.937 -0.0088 -0.3454  0.0222
  317loPI   C3A 5065  15.523   9.468   8.703  0.1504 -0.1763 -0.1340
  317loPI   C4A 5066  15.748   9.274   8.429 -0.1611 -0.4362 -0.0033
  317loPI   C5A 5067  15.725   9.422   7.956  0.0528 -0.1554  0.0325
  317loPI   C6A 5068  15.884   9.201   7.698 -0.0093 -0.2277  0.0212
  317loPI   C1B 5069  14.487   9.666   9.062 -0.0026 -0.1025  0.0710
  317loPI   C2B 5070  14.700   9.645   8.728 -0.0823  0.0611  0.0469
  317loPI   C3B 5071  14.738   9.459   8.444  0.1916 -0.0299 -0.3487
  317loPI   C4B 5072  14.659   9.560   8.025  0.1233 -0.0453 -0.0055
  318loPI    C1 5073   6.456  12.393   9.839 -0.0351  0.0193  0.0436
  318loPI    C2 5074   6.675  12.059   9.828  0.2194  0.1880 -0.1032
  318loPI    C3 5075   6.682  12.292  10.153 -0.0552 -0.0104  0.0485
  318loPI   PO4 5076   6.357  12.357   9.562  0.2931  0.0063 -0.2538
  318loPI   GL1 5077   6.304  12.446   9.147  0.0083 -0.3226  0.1868
  318loPI   GL2 5078   5.922  12.462   9.272 -0.1792 -0.0940 -0.0934
  318loPI   C1A 5079   6.396  12.357   8.646  0.2285  0.2862 -0.1559
  318loPI   C2A 5080   6.733  12.202   8.346 -0.1939  0.0285  0.0734
  318loPI   C3A 5081   6.658  12.108   8.007  0.0011  0.3342  0.0180
  318loPI   C4A 5082   6.810  12.279   7.610 -0.1197  0.2251  0.2058
  318loPI   C5A 5083   7.167  12.307   7.535  0.2162 -0.1945 -0.3093
  318loPI   C6A 5084   7.514  12.500   7.513  0.0447 -0.0355 -0.0559
  318loPI   C1B 5085   5.655  12.499   8.925  0.0327  0.0338  0.0251
  318loPI   C2B 5086   5.315  12.441   8.590  0.1433 -0.1128 -0.0321
  318loPI   C3B 5087   5.197  12.384   8.076  0.4975 -0.3168  0.0331
  318loPI   C4B 5088   5.297  12.211   7.701  0.0051  0.0092  0.1607
  319loPI    C1 5089  11.747  16.136  10.417  0.0468  0.0314  0.0796
  319loPI    C2 5090  11.409  16.310  10.542  0.0361 -0.0739  0.1998
  319loPI    C3 5091  11.734  16.313  10.775  0.0814 -0.0812  0.1370
  319loPI   PO4 5092  11.717  15.853  10.362  0.1387  0.1547  0.0441
  319loPI   GL1 5093  11.642  15.768   9.939 -0.1246 -0.2388  0.0330
  319loPI   GL2 5094  11.366  15.839   9.984 -0.2730 -0.3515 -0.1076
  319loPI   C1A 5095  11.870  15.987   9.503 -0.0772  0.1371 -0.3164
  319loPI   C2A 5096  12.086  15.830   9.137 -0.2858  0.0150 -0.2059
  319loPI   C3A 5097  12.166  15.794   8.589 -0.0123  0.0050 -0.2963
  319loPI   C4A 5098  12.546  15.742   8.314 -0.0655 -0.0153  0.1271
  319loPI   C5A 5099  12.938  15.890   8.164 -0.6697 -0.1153  0.0176
  319loPI   C6A 5100  13.379  15.656   8.078  0.0393  0.0501 -0.0758
  319loPI   C1B 5101  11.223  15.664   9.542 -0.2443 -0.0001  0.2840
  319loPI   C2B 5102  11.073  15.640   9.164 -0.0126 -0.1718 -0.3149
  319loPI   C3B 5103  10.876  15.629   8.762  0.0416 -0.0391  0.0414
  319loPI   C4B 5104  10.828  15.996   8.465 -0.4425  0.1781 -0.0156
  320loPI    C1 5105  12.890   7.427  10.226 -0.0657 -0.2502  0.0704
  320loPI    C2 5106  13.258   7.309  10.330 -0.0090 -0.0134  0.1446
  320loPI    C3 5107  13.090   7.623  10.512 -0.1398  0.0476 -0.0781
  320loPI   PO4 5108  12.726   7.209  10.169 -0.1883  0.0083  0.1679
  320loPI   GL1 5109  12.669   7.133   9.841  0.2400  0.1628 -0.1866
  320loPI   GL2 5110  12.567   7.084   9.550 -0.2614  0.0342  0.1525
  320loPI   C1A 5111  13.084   7.120   9.538  0.2082 -0.3303 -0.3135
  320loPI   C2A 5112  13.455   7.321   9.398  0.2278  0.0171 -0.4505
  320loPI   C3A 5113  13.697   7.290   9.055  0.1920 -0.0149 -0.1164
  320loPI   C4A 5114  13.494   7.381   8.709  0.3236  0.0524 -0.0707
  320loPI   C5A 5115  13.606   7.307   8.326  0.0284 -0.4473 -0.1632
  320loPI   C6A 5116  13.779   6.937   8.252  0.0970  0.1883  0.0537
  320loPI   C1B 5117  12.756   7.473   9.278  0.0689 -0.1984 -0.0181
  320loPI   C2B 5118  12.586   7.575   8.789 -0.3516 -0.0709  0.2797
  320loPI   C3B 5119  12.199   7.516   8.603  0.0730  0.5061  0.1433
  320loPI   C4B 5120  12.034   7.478   8.175 -0.5086 -0.1689  0.1305
  321loPI    C1 5121   7.899   3.431  10.160  0.0417 -0.0441 -0.0738
  321loPI    C2 5122   8.150   3.238  10.405 -0.0268  0.2779  0.2589
  321loPI    C3 5123   8.245   3.601  10.267 -0.0932  0.1950 -0.0109
  321loPI   PO4 5124   7.666   3.279  10.161 -0.0002 -0.2262  0.0789
  321loPI   GL1 5125   7.506   2.975   9.777 -0.0688  0.1382 -0.3153
  321loPI   GL2 5126   7.248   3.227   9.852  0.0595 -0.2140 -0.1110
  321loPI   C1A 5127   7.524   2.698   9.456  0.0699 -0.0967  0.1298
  321loPI   C2A 5128   7.639   2.399   9.130 -0.1474 -0.1244 -0.4643
  321loPI   C3A 5129   7.743   2.142   8.854 -0.2418  0.2195  0.2169
  321loPI   C4A 5130   7.443   1.823   8.561 -0.3210 -0.1521  0.0642
  321loPI   C5A 5131   7.328   1.671   8.876  0.0264  0.1173  0.5321
  321loPI   C6A 5132   7.413   1.419   9.118  0.1741  0.0599 -0.2088
  321loPI   C1B 5133   6.928   3.410   9.474  0.1509 -0.1973  0.0328
  321loPI   C2B 5134   6.987   3.260   9.070 -0.2553  0.2814  0.0397
  321loPI   C3B 5135   7.049   3.097   8.674  0.0809 -0.1605 -0.0809
  321loPI   C4B 5136   7.177   3.062   8.210  0.0657 -0.0752 -0.0367
  322loPI    C1 5137   6.238   7.773  10.428  0.0024 -0.1829  0.2165
  322loPI    C2 5138   5.981   7.872  10.718 -0.1226  0.2664 -0.0397
  322loPI    C3 5139   6.341   8.045  10.702  0.0751 -0.1179  0.1251
  322loPI   PO4 5140   6.031   7.607  10.246 -0.0659  0.5457 -0.0142
  322loPI   GL1 5141   5.767   7.479   9.885  0.2127 -0.1134 -0.3856
  322loPI   GL2 5142   5.498   7.622   9.797 -0.1308 -0.1332 -0.1485
  322loPI   C1A 5143   5.835   7.386   9.452  0.1825 -0.0056 -0.3018
  322loPI   C2A 5144   5.979   7.460   9.095 -0.1600  0.0321  0.1126
  322loPI   C3A 5145   6.092   7.456   8.766 -0.0076  0.2846  0.2182
  322loPI   C4A 5146   6.145   7.569   8.314  0.2086  0.0213  0.0121
  322loPI   C5A 5147   6.352   7.545   7.833  0.0874  0.1336  0.1584
  322loPI   C6A 5148   6.395   7.184   7.501  0.0764  0.2497 -0.1415
  322loPI   C1B 5149   5.396   7.620   9.305  0.1287 -0.2298  0.1785
  322loPI   C2B 5150   5.324   7.803   8.909  0.0914 -0.0583 -0.1799
  322loPI   C3B 5151   5.046   7.810   8.513 -0.3069 -0.1655 -0.0551
  322loPI   C4B 5152   4.987   7.872   8.091  0.1457  0.0151 -0.1419
  323loPI    C1 5153   3.106  10.343  10.044  0.0819  0.2609  0.1064
  323loPI    C2 5154   3.038  10.656  10.285 -0.3300  0.2036  0.0710
  323loPI    C3 5155   2.894  10.295  10.380  0.1416  0.0182  0.1111
  323loPI   PO4 5156   3.171  10.521   9.817 -0.4283  0.0920 -0.0440
  323loPI   GL1 5157   3.321  10.649   9.489 -0.1353 -0.1191  0.0314
  323loPI   GL2 5158   3.200  10.994   9.479  0.2087  0.1686 -0.1558
  323loPI   C1A 5159   3.485  10.421   9.182 -0.0786  0.2433 -0.3569
  323loPI   C2A 5160   3.320  10.443   8.851  0.1402  0.2184 -0.1509
  323loPI   C3A 5161   3.288  10.389   8.464 -0.1632 -0.0631 -0.1558
  323loPI   C4A 5162   3.343  10.390   7.987 -0.1879 -0.1186  0.2878
  323loPI   C5A 5163   3.401  10.348   7.576 -0.0887 -0.0570  0.1015
  323loPI   C6A 5164   3.464  10.410   7.186  0.0783  0.1775 -0.1099
  323loPI   C1B 5165   3.204  10.972   9.099  0.0920 -0.0483 -0.0169
  323loPI   C2B 5166   3.242  10.901   8.682  0.1160  0.1063  0.1527
  323loPI   C3B 5167   3.001  10.791   8.295  0.1794 -0.3566 -0.1209
  323loPI   C4B 5168   2.931  10.749   7.788  0.1911 -0.0852 -0.1258
  324loPI    C1 5169  18.463   3.025  10.166  0.0518 -0.0366  0.0840
  324loPI    C2 5170  18.454   3.400  10.028 -0.1078 -0.0129  0.1562
  324loPI    C3 5171  18.694   3.305  10.333  0.0150  0.0045  0.0660
  324loPI   PO4 5172  18.593   2.906   9.995  0.2344 -0.0269 -0.2171
  324loPI   GL1 5173  18.516   2.741   9.718 -0.0826 -0.1481 -0.1531
  324loPI   GL2 5174  18.317   2.816   9.523 -0.0859  0.0894 -0.2308
  324loPI   C1A 5175  18.671   2.432   9.401  0.0069 -0.1591 -0.1315
  324loPI   C2A 5176  18.748   2.392   9.002 -0.2231 -0.2618 -0.3369
  324loPI   C3A 5177  18.563   2.493   8.579  0.2877 -0.1193  0.2043
  324loPI   C4A 5178  18.539   2.470   8.185  0.2100  0.2116 -0.0445
  324loPI   C5A 5179  18.382   2.521   7.809 -0.0363 -0.1043  0.0067
  324loPI   C6A 5180  18.077   2.609   7.470 -0.1384  0.1142 -0.0751
  324loPI   C1B 5181  18.129   3.011   9.072  0.1535  0.0312 -0.0105
  324loPI   C2B 5182  18.082   3.156   8.683  0.0801 -0.5480  0.0349
  324loPI   C3B 5183  17.886   3.176   8.268 -0.1348 -0.2760 -0.0756
  324loPI   C4B 5184  17.800   3.459   7.987 -0.1615  0.3971 -0.3338
  325loPI    C1 5185  11.344   2.556  10.484 -0.1392  0.1267 -0.3952
  325loPI    C2 5186  11.478   2.932  10.462 -0.0495  0.1111 -0.1482
  325loPI    C3 5187  11.321   2.795  10.804  0.0254 -0.1118 -0.2012
  325loPI   PO4 5188  11.645   2.392  10.300 -0.1312 -0.1069  0.0805
  325loPI   GL1 5189  11.776   2.404   9.853  0.3510  0.1239  0.0124
  325loPI   GL2 5190  11.929   2.591   9.714 -0.2785  0.0623 -0.3823
  325loPI   C1A 5191  11.593   2.348   9.424  0.1490 -0.4412 -0.2597
  325loPI   C2A 5192  11.637   2.160   9.067 -0.0452 -0.0089 -0.1115
  325loPI   C3A 5193  11.946   2.144   8.807  0.0890 -0.1487 -0.0373
  325loPI   C4A 5194  12.056   2.127   8.383  0.1105  0.1341 -0.1945
  325loPI   C5A 5195  12.172   2.044   7.990  0.0469  0.3071  0.0548
  325loPI   C6A 5196  11.900   2.156   7.751  0.0079 -0.1713  0.0946
  325loPI   C1B 5197  12.086   2.251   9.462 -0.2448 -0.2013 -0.0006
  325loPI   C2B 5198  12.367   2.102   9.209 -0.3049  0.4129 -0.0733
  325loPI   C3B 5199  12.819   2.021   9.080  0.0232  0.0789  0.0307
  325loPI   C4B 5200  13.098   2.001   8.743 -0.1444 -0.2766 -0.1040
  326loPI    C1 5201   7.443  17.896  10.228  0.1189 -0.0050 -0.1463
  326loPI    C2 5202   7.458  18.208  10.477 -0.3227 -0.0782 -0.0207
  326loPI    C3 5203   7.425  17.837  10.623 -0.1280 -0.1593 -0.1785
  326loPI   PO4 5204   7.271  17.923  10.058  0.0931  0.0443 -0.0344
  326loPI   GL1 5205   7.484  18.142   9.679  0.2034  0.1258 -0.1789
  326loPI   GL2 5206   7.478  18.356   9.721 -0.2013 -0.2948  0.0105
  326loPI   C1A 5207   7.725  18.117   9.350 -0.3167 -0.1163  0.0664
  326loPI   C2A 5208   7.794  18.223   9.011  0.0026 -0.2965 -0.1284
  326loPI   C3A 5209   7.710  18.342   8.581  0.1054 -0.3494 -0.0750
  326loPI   C4A 5210   7.909  18.212   8.277 -0.1672  0.0683  0.1725
  326loPI   C5A 5211   7.732  18.323   7.888 -0.0163  0.0981 -0.1470
  326loPI   C6A 5212   7.788  18.037   7.562  0.0389 -0.0159 -0.1300
  326loPI   C1B 5213   7.337  18.392   9.244 -0.0397 -0.0449 -0.0213
  326loPI   C2B 5214   7.216  18.394   8.913  0.0295  0.0871 -0.0854
  326loPI   C3B 5215   7.209  18.368   8.506  0.0259  0.0483 -0.0287
  326loPI   C4B 5216   7.372  18.134   8.180 -0.2555 -0.0222 -0.0174
  327loPI    C1 5217   6.946   9.386  10.117  0.0270  0.1573  0.0071
  327loPI    C2 5218   7.094   9.026  10.211 -0.0980  0.1427  0.1527
  327loPI    C3 5219   6.700   9.073  10.159 -0.0789  0.2524  0.1041
  327loPI   PO4 5220   7.139   9.436   9.909 -0.0778 -0.2412  0.2235
  327loPI   GL1 5221   7.262   9.500   9.531  0.1469 -0.0335 -0.0509
  327loPI   GL2 5222   7.531   9.640   9.652  0.1491 -0.1190 -0.5007
  327loPI   C1A 5223   7.144   9.570   9.106 -0.2338 -0.0669  0.1668
  327loPI   C2A 5224   7.228   9.509   8.635 -0.0093  0.0794 -0.2724
  327loPI   C3A 5225   7.085   9.224   8.422  0.0951  0.0037  0.1476
  327loPI   C4A 5226   7.196   9.045   8.036 -0.0650  0.1938  0.1329
  327loPI   C5A 5227   7.200   8.714   7.947 -0.2525 -0.0348  0.0633
  327loPI   C6A 5228   7.028   8.265   8.098 -0.1448  0.1585 -0.0813
  327loPI   C1B 5229   7.624   9.727   9.212  0.0740  0.0493 -0.1254
  327loPI   C2B 5230   7.696   9.600   8.861  0.2524 -0.1956 -0.2058
  327loPI   C3B 5231   7.616   9.827   8.566  0.2249 -0.0312 -0.0963
  327loPI   C4B 5232   7.301   9.628   8.150 -0.3613 -0.1439 -0.3980
  328loPI    C1 5233  18.487   4.669  10.053 -0.4286  0.4362  0.1300
  328loPI    C2 5234  18.325   4.437  10.336 -0.2776  0.1924  0.0200
  328loPI    C3 5235  18.692   4.587  10.387 -0.1878  0.0209 -0.1111
  328loPI   PO4 5236  18.387   4.778   9.995  0.1076  0.2992  0.0350
  328loPI   GL1 5237  18.225   4.972   9.697  0.1137  0.2896  0.1100
  328loPI   GL2 5238  17.986   4.751   9.568  0.0851 -0.1366 -0.0009
  328loPI   C1A 5239  18.150   5.368   9.515  0.1243 -0.1809  0.0994
  328loPI   C2A 5240  18.074   5.674   9.178 -0.1065 -0.2327  0.2268
  328loPI   C3A 5241  17.758   6.002   9.200  0.1066 -0.1776  0.2241
  328loPI   C4A 5242  17.722   6.317   8.854 -0.0222  0.3290  0.1050
  328loPI   C5A 5243  17.578   6.278   8.442 -0.0521  0.3827 -0.0200
  328loPI   C6A 5244  17.321   6.013   8.122  0.0714  0.0058 -0.1118
  328loPI   C1B 5245  18.134   4.840   9.232  0.0434 -0.3880 -0.0646
  328loPI   C2B 5246  18.345   4.870   8.811 -0.2057 -0.0323 -0.0193
  328loPI   C3B 5247  18.561   5.012   8.471 -0.0465 -0.1268  0.1219
  328loPI   C4B 5248  18.689   5.277   8.114 -0.0978  0.1982  0.0870
  329loPI    C1 5249   4.869   1.960  10.293  0.0143 -0.1082  0.1465
  329loPI    C2 5250   4.648   2.170  10.552 -0.3289 -0.2013 -0.0651
  329loPI    C3 5251   4.740   1.788  10.630  0.0083 -0.0783  0.1594
  329loPI   PO4 5252   4.766   2.042   9.970 -0.1249  0.2070 -0.4474
  329loPI   GL1 5253   4.674   2.178   9.566 -0.2749 -0.0103  0.1258
  329loPI   GL2 5254   4.853   1.913   9.510 -0.2218 -0.3285 -0.2291
  329loPI   C1A 5255   4.404   2.126   9.134  0.0392 -0.0522  0.1435
  329loPI   C2A 5256   4.389   2.202   8.719 -0.6812  0.2401  0.1681
  329loPI   C3A 5257   4.399   2.251   8.289 -0.0780 -0.2027  0.2430
  329loPI   C4A 5258   4.472   2.203   7.833  0.2268 -0.5454 -0.1901
  329loPI   C5A 5259   4.624   2.357   7.523  0.3540  0.4833  0.1149
  329loPI   C6A 5260   4.839   2.516   7.243 -0.2269 -0.0389  0.2046
  329loPI   C1B 5261   4.842   1.855   9.148  0.1282 -0.0753  0.0780
  329loPI   C2B 5262   4.713   1.794   8.735  0.1281 -0.1163 -0.1411
  329loPI   C3B 5263   4.767   1.838   8.272  0.3334 -0.0033  0.1257
  329loPI   C4B 5264   4.883   1.933   7.719 -0.0114 -0.0738  0.1969
  330loPI    C1 5265   3.546   7.926  10.279  0.1519  0.3192 -0.2139
  330loPI    C2 5266   3.914   7.862  10.422 -0.0497 -0.0395  0.1670
  330loPI    C3 5267   3.612   7.934  10.674 -0.2588  0.1721 -0.1372
  330loPI   PO4 5268   3.473   7.726  10.098 -0.0025  0.0203  0.2821
  330loPI   GL1 5269   3.760   7.771   9.749  0.2619 -0.1549  0.1736
  330loPI   GL2 5270   3.921   7.510   9.891  0.0340 -0.1753 -0.0288
  330loPI   C1A 5271   3.645   7.504   9.325 -0.0368 -0.2349 -0.0222
  330loPI   C2A 5272   3.474   7.370   8.935  0.2871 -0.1724  0.3450
  330loPI   C3A 5273   3.449   7.036   8.663 -0.0385 -0.4188  0.1298
  330loPI   C4A 5274   3.380   7.195   8.206 -0.2248 -0.3123  0.0817
  330loPI   C5A 5275   3.174   7.197   7.822  0.2590  0.6066 -0.0249
  330loPI   C6A 5276   3.035   7.265   7.370  0.2785  0.2531 -0.3720
  330loPI   C1B 5277   4.128   7.582   9.452 -0.0395  0.2885 -0.3993
  330loPI   C2B 5278   4.217   7.618   9.161 -0.0614  0.0326 -0.0974
  330loPI   C3B 5279   4.060   7.420   8.779 -0.0291  0.0417  0.0688
  330loPI   C4B 5280   4.116   7.516   8.268 -0.0786  0.1714 -0.0584
  331loPI    C1 5281   5.961  11.567   9.773 -0.2077  0.0330  0.3705
  331loPI    C2 5282   6.326  11.679   9.651 -0.3051 -0.1916 -0.1547
  331loPI    C3 5283   6.119  11.911   9.904  0.0656  0.0987 -0.1095
  331loPI   PO4 5284   5.928  11.350   9.634 -0.0639  0.0924  0.0969
  331loPI   GL1 5285   6.132  11.199   9.247 -0.3299  0.0212 -0.1238
  331loPI   GL2 5286   6.424  11.390   9.161  0.3354 -0.3105  0.2559
  331loPI   C1A 5287   6.046  10.997   9.014  0.1591  0.0581  0.2200
  331loPI   C2A 5288   6.252  11.142   8.580 -0.0171  0.2442  0.0217
  331loPI   C3A 5289   6.250  11.145   8.099 -0.2455 -0.3728 -0.0450
  331loPI   C4A 5290   6.473  11.281   7.752  0.3141  0.1051  0.2598
  331loPI   C5A 5291   6.859  11.458   7.714 -0.1205  0.1140 -0.2871
  331loPI   C6A 5292   7.149  11.754   7.582  0.3166  0.2207 -0.1201
  331loPI   C1B 5293   6.848  11.439   8.920  0.3363 -0.0548 -0.0076
  331loPI   C2B 5294   7.153  11.566   8.630 -0.0755  0.3319 -0.1115
  331loPI   C3B 5295   7.308  11.372   8.269 -0.1431 -0.0709  0.1344
  331loPI   C4B 5296   7.347  11.382   7.835 -0.2086  0.1902  0.1052
  332loPI    C1 5297   3.104   1.727   9.870 -0.0754 -0.0119  0.0336
  332loPI    C2 5298   3.436   1.816  10.076  0.0656 -0.1990 -0.1083
  332loPI    C3 5299   3.076   1.878  10.239  0.1698 -0.0196  0.0573
  332loPI   PO4 5300   3.118   1.748   9.563  0.2278  0.1883  0.2316
  332loPI   GL1 5301   3.384   1.771   9.280 -0.0646 -0.0108  0.1951
  332loPI   GL2 5302   3.225   1.653   9.051  0.1398  0.0048 -0.0820
  332loPI   C1A 5303   3.490   2.074   8.975 -0.1739 -0.2282 -0.1422
  332loPI   C2A 5304   3.467   2.194   8.591 -0.0840  0.0752  0.0352
  332loPI   C3A 5305   3.368   2.378   8.110  0.0936 -0.0518  0.1453
  332loPI   C4A 5306   3.259   2.681   7.782  0.0922 -0.1233 -0.3008
  332loPI   C5A 5307   3.015   2.839   7.530 -0.0506 -0.2510  0.0067
  332loPI   C6A 5308   2.792   3.162   7.511  0.1811  0.0242  0.0954
  332loPI   C1B 5309   3.415   1.707   8.597 -0.1284  0.1187  0.1879
  332loPI   C2B 5310   3.454   1.773   8.136  0.0014 -0.1867 -0.0781
  332loPI   C3B 5311   3.312   2.023   7.693 -0.1819 -0.2367 -0.1260
  332loPI   C4B 5312   3.352   2.427   7.316 -0.3291 -0.1259 -0.1884
  333loPI    C1 5313  18.220   1.525  10.302 -0.2261  0.0959 -0.1164
  333loPI    C2 5314  17.952   1.567  10.596 -0.1428  0.2641 -0.0634
  333loPI    C3 5315  18.245   1.297  10.629 -0.3789 -0.0113 -0.1783
  333loPI   PO4 5316  17.911   1.481  10.094 -0.1095 -0.2863  0.0818
  333loPI   GL1 5317  18.029   1.481   9.715  0.1135 -0.2398  0.0465
  333loPI   GL2 5318  17.920   1.828   9.510  0.0433  0.2327  0.0666
  333loPI   C1A 5319  17.991   1.304   9.342 -0.1257  0.2091 -0.1052
  333loPI   C2A 5320  17.970   1.344   8.943 -0.0456 -0.0736  0.1292
  333loPI   C3A 5321  17.948   1.177   8.634 -0.0371 -0.1142 -0.2754
  333loPI   C4A 5322  17.709   1.328   8.315  0.2144  0.0128 -0.0373
  333loPI   C5A 5323  17.425   1.637   7.971 -0.0253 -0.0791  0.0768
  333loPI   C6A 5324  17.289   2.087   7.951 -0.0593  0.1431 -0.0052
  333loPI   C1B 5325  17.895   1.799   8.994 -0.1745 -0.1410  0.1880
  333loPI   C2B 5326  18.102   1.679   8.585 -0.1021 -0.0064  0.0849
  333loPI   C3B 5327  18.120   1.572   8.178 -0.1114 -0.1913 -0.1101
  333loPI   C4B 5328  18.353   1.584   7.774  0.1048  0.1946 -0.2257
  334loPI    C1 5329   9.060   1.843  10.082  0.0489 -0.1828 -0.0300
  334loPI    C2 5330   8.768   2.017   9.870  0.1123 -0.0592 -0.0166
  334loPI    C3 5331   8.736   1.987  10.267  0.1258 -0.0295 -0.0132
  334loPI   PO4 5332   9.166   1.679   9.930  0.0602 -0.0883  0.2603
  334loPI   GL1 5333   9.367   1.815   9.563 -0.4481 -0.0960  0.1964
  334loPI   GL2 5334   9.174   2.074   9.534 -0.0143 -0.0519  0.0968
  334loPI   C1A 5335   9.679   2.060   9.292 -0.0588 -0.1827 -0.2258
  334loPI   C2A 5336   9.915   2.226   8.916  0.0818  0.0909  0.1863
  334loPI   C3A 5337  10.066   2.204   8.431 -0.3146 -0.1995  0.3968
  334loPI   C4A 5338  10.234   2.143   8.065 -0.1423 -0.2543  0.3654
  334loPI   C5A 5339  10.321   2.365   7.716  0.0619 -0.0292  0.2260
  334loPI   C6A 5340  10.195   2.656   7.502  0.0572  0.0105  0.0320
  334loPI   C1B 5341   9.201   2.377   9.331 -0.5507 -0.2329  0.0335
  334loPI   C2B 5342   9.352   2.298   8.863 -0.1453  0.0525 -0.1398
  334loPI   C3B 5343   9.562   2.262   8.512 -0.1673 -0.4958 -0.0940
  334loPI   C4B 5344   9.630   2.324   8.062 -0.0885 -0.1501  0.1055
  335loPI    C1 5345  18.217  12.749   9.863 -0.1196  0.1439  0.0336
  335loPI    C2 5346  18.198  13.149   9.860  0.3035  0.1686 -0.0054
  335loPI    C3 5347  18.318  12.957  10.189  0.1765  0.0765 -0.0119
  335loPI   PO4 5348  18.381  12.721   9.681 -0.1108  0.1090 -0.1033
  335loPI   GL1 5349  18.355  12.709   9.268 -0.1800 -0.0659  0.1489
  335loPI   GL2 5350  18.583  12.848   9.229  0.1757 -0.0682  0.1602
  335loPI   C1A 5351  18.387  12.690   8.740 -0.1087 -0.0163  0.2219
  335loPI   C2A 5352  18.511  12.559   8.345 -0.1450  0.1213 -0.2992
  335loPI   C3A 5353  18.226  12.663   8.057 -0.2335 -0.2026  0.0909
  335loPI   C4A 5354  18.177  12.766   7.655  0.2062 -0.1688 -0.1227
  335loPI   C5A 5355  18.028  13.174   7.436 -0.1380 -0.0558  0.3605
  335loPI   C6A 5356  17.655  13.360   7.301  0.1051 -0.0757 -0.3486
  335loPI   C1B 5357  18.522  13.159   8.952 -0.0549  0.0802 -0.0464
  335loPI   C2B 5358  18.455  13.297   8.603  0.0776  0.3814 -0.0107
  335loPI   C3B 5359  18.295  13.534   8.189  0.0482 -0.2488 -0.4052
  335loPI   C4B 5360  17.954  13.537   7.815  0.1171 -0.3204 -0.0129
  336loPI    C1 5361   5.287  13.060   9.845 -0.0337  0.0963 -0.2217
  336loPI    C2 5362   5.281  12.673   9.948  0.0333  0.1058 -0.1808
  336loPI    C3 5363   5.224  12.955  10.226  0.3599  0.1362 -0.1408
  336loPI   PO4 5364   5.226  13.031   9.511  0.0128  0.0846  0.2294
  336loPI   GL1 5365   5.340  13.353   9.177  0.3780 -0.0968 -0.3315
  336loPI   GL2 5366   5.565  13.620   9.278 -0.1855  0.2479 -0.0003
  336loPI   C1A 5367   5.044  13.223   8.804  0.0628 -0.0141 -0.0762
  336loPI   C2A 5368   4.867  13.549   8.465  0.0548  0.0672 -0.2991
  336loPI   C3A 5369   5.070  13.822   8.294 -0.0656 -0.1342  0.2185
  336loPI   C4A 5370   5.197  13.586   7.885 -0.0252 -0.2450  0.0471
  336loPI   C5A 5371   5.563  13.621   7.753 -0.1211  0.0537 -0.0399
  336loPI   C6A 5372   5.663  13.230   7.777  0.2314  0.1735  0.0171
  336loPI   C1B 5373   5.696  13.594   9.006  0.0047 -0.1815  0.1285
  336loPI   C2B 5374   5.929  13.329   8.764 -0.1333  0.0187 -0.1162
  336loPI   C3B 5375   6.194  13.183   8.486 -0.2078  0.0667  0.0645
  336loPI   C4B 5376   6.475  13.252   8.316 -0.1344  0.0582 -0.3808
  337loPI    C1 5377   9.687   4.206  10.481 -0.3999 -0.0603 -0.0572
  337loPI    C2 5378   9.569   4.309  10.849 -0.0942 -0.0545  0.0419
  337loPI    C3 5379   9.863   4.042  10.800 -0.1237 -0.0456 -0.1983
  337loPI   PO4 5380   9.473   4.210  10.310  0.1756 -0.2105 -0.1217
  337loPI   GL1 5381   9.473   4.229   9.917  0.0227  0.1212 -0.0639
  337loPI   GL2 5382   9.573   4.515   9.917 -0.1179  0.0325  0.0838
  337loPI   C1A 5383   9.262   4.114   9.511 -0.1056 -0.0906  0.2267
  337loPI   C2A 5384   9.279   4.052   9.057  0.1537  0.0944 -0.0272
  337loPI   C3A 5385   9.288   4.092   8.634  0.0787 -0.0286  0.1131
  337loPI   C4A 5386   9.440   4.171   8.143  0.0260 -0.1434 -0.1972
  337loPI   C5A 5387   9.657   4.190   7.829  0.1413  0.1060  0.2944
  337loPI   C6A 5388  10.104   3.996   7.853 -0.0529  0.0891  0.0079
  337loPI   C1B 5389   9.687   4.518   9.478 -0.2220 -0.2639  0.0178
  337loPI   C2B 5390   9.604   4.520   9.037 -0.1429 -0.2214  0.2728
  337loPI   C3B 5391   9.518   4.598   8.624 -0.3674 -0.2220 -0.2790
  337loPI   C4B 5392   9.374   4.633   8.241  0.2125 -0.1912 -0.0940
  338loPI    C1 5393  10.305   4.788  10.637 -0.1054  0.0387  0.0952
  338loPI    C2 5394   9.997   4.536  10.676 -0.1279  0.0712  0.1279
  338loPI    C3 5395  10.328   4.481  10.893 -0.0043 -0.1235 -0.1062
  338loPI   PO4 5396  10.492   4.731  10.328 -0.0290 -0.0380 -0.2526
  338loPI   GL1 5397  10.477   4.845   9.952  0.0188 -0.0496  0.1205
  338loPI   GL2 5398  10.786   5.024   9.805 -0.2061  0.0173 -0.0438
  338loPI   C1A 5399  10.370   5.159   9.712 -0.0702 -0.0399  0.4752
  338loPI   C2A 5400  10.185   5.454   9.411 -0.0841 -0.1425 -0.2263
  338loPI   C3A 5401  10.281   5.392   8.967 -0.0553  0.3335 -0.0062
  338loPI   C4A 5402  10.331   5.523   8.604 -0.2841 -0.0159  0.1905
  338loPI   C5A 5403  10.468   5.479   8.177 -0.3088 -0.3234 -0.0040
  338loPI   C6A 5404  10.428   5.246   7.882 -0.3146 -0.2925  0.1518
  338loPI   C1B 5405  10.823   5.423   9.551 -0.1747 -0.0860  0.1007
  338loPI   C2B 5406  11.237   5.517   9.164 -0.3141 -0.0599  0.2241
  338loPI   C3B 5407  11.281   5.823   8.701  0.0988 -0.3157 -0.0385
  338loPI   C4B 5408  11.418   6.107   8.348 -0.1762  0.1300  0.1621
  339loPI    C1 5409   6.803  10.756   9.840  0.3844  0.0072 -0.0814
  339loPI    C2 5410   6.956  10.715  10.208  0.3230  0.2279 -0.0298
  339loPI    C3 5411   6.605  10.899  10.157  0.2451  0.0407 -0.1831
  339loPI   PO4 5412   7.034  10.989   9.740  0.0522 -0.1457  0.0533
  339loPI   GL1 5413   6.918  11.134   9.352  0.2307 -0.3959  0.0629
  339loPI   GL2 5414   7.193  11.442   9.437 -0.3158 -0.1720  0.0583
  339loPI   C1A 5415   7.111  10.995   8.985  0.2075  0.1186 -0.0376
  339loPI   C2A 5416   7.289  10.917   8.556  0.1175 -0.1165  0.0047
  339loPI   C3A 5417   7.440  10.915   8.188  0.0977 -0.3987 -0.1729
  339loPI   C4A 5418   7.690  10.640   7.997 -0.2403  0.2945 -0.0662
  339loPI   C5A 5419   7.895  10.272   7.734  0.0938  0.1018  0.0717
  339loPI   C6A 5420   8.297  10.022   7.852  0.0370  0.2190  0.1846
  339loPI   C1B 5421   7.471  11.344   9.079  0.3235  0.1408 -0.1219
  339loPI   C2B 5422   7.532  11.305   8.736 -0.1595 -0.3056  0.0845
  339loPI   C3B 5423   7.760  11.272   8.429 -0.1899 -0.1774 -0.1327
  339loPI   C4B 5424   7.842  11.369   8.019  0.0577 -0.1147 -0.0487
  340loPI    C1 5425   4.212  10.413  10.382 -0.2071 -0.1616  0.0174
  340loPI    C2 5426   4.368  10.160  10.114  0.0910 -0.1310  0.1582
  340loPI    C3 5427   4.259  10.027  10.474  0.0116 -0.1070  0.1432
  340loPI   PO4 5428   4.097  10.575  10.051 -0.0819 -0.0835 -0.0322
  340loPI   GL1 5429   4.175  10.409   9.680  0.3019  0.1436  0.0583
  340loPI   GL2 5430   4.429  10.628   9.583 -0.0733  0.3024 -0.2531
  340loPI   C1A 5431   4.113  10.315   9.245 -0.0065 -0.1385 -0.0710
  340loPI   C2A 5432   4.305  10.275   8.859 -0.0690  0.2801 -0.1778
  340loPI   C3A 5433   4.354  10.088   8.459 -0.0062 -0.0371  0.0029
  340loPI   C4A 5434   4.117   9.820   8.206  0.2591  0.1035  0.0993
  340loPI   C5A 5435   4.105   9.432   8.103 -0.1769  0.0370 -0.4437
  340loPI   C6A 5436   4.221   9.493   7.729  0.1645  0.0890 -0.1030
  340loPI   C1B 5437   4.385  10.692   9.162  0.3575  0.2579  0.3295
  340loPI   C2B 5438   4.450  10.682   8.715  0.1264  0.1869 -0.2101
  340loPI   C3B 5439   4.229  10.708   8.380 -0.0110 -0.1960  0.2576
  340loPI   C4B 5440   4.334  10.621   7.928  0.1638  0.0302  0.0205
  341loPI    C1 5441  17.709  15.932  10.302  0.1453  0.1390  0.1103
  341loPI    C2 5442  17.413  16.187  10.386 -0.0364  0.0146 -0.1421
  341loPI    C3 5443  17.487  15.880  10.631 -0.3355 -0.1452 -0.2460
  341loPI   PO4 5444  17.618  15.838  10.050  0.1538  0.0250 -0.0186
  341loPI   GL1 5445  17.481  15.868   9.619  0.2139  0.0518  0.0308
  341loPI   GL2 5446  17.138  15.875   9.757 -0.1169 -0.2802 -0.2109
  341loPI   C1A 5447  17.476  16.224   9.427  0.1566  0.1419 -0.1656
  341loPI   C2A 5448  17.358  16.383   8.979  0.1046  0.1214 -0.0395
  341loPI   C3A 5449  17.126  16.240   8.547 -0.0838 -0.1331 -0.0502
  341loPI   C4A 5450  17.033  15.940   8.327 -0.2588  0.3450 -0.2808
  341loPI   C5A 5451  16.905  15.554   8.196  0.1745  0.1647 -0.1306
  341loPI   C6A 5452  16.943  15.318   7.840  0.2816  0.1291 -0.1811
  341loPI   C1B 5453  16.986  16.022   9.410 -0.2571 -0.0276  0.2698
  341loPI   C2B 5454  16.520  16.117   9.309 -0.1029  0.4557  0.3065
  341loPI   C3B 5455  16.354  16.076   8.962  0.0653 -0.5544 -0.1535
  341loPI   C4B 5456  16.214  16.114   8.527 -0.1452 -0.3501 -0.1541
  342loPI    C1 5457   8.288  13.235   9.774  0.0872 -0.0653 -0.1672
  342loPI    C2 5458   8.685  13.249   9.823  0.0558 -0.0233  0.0911
  342loPI    C3 5459   8.477  12.940   9.969 -0.0175  0.0001  0.0364
  342loPI   PO4 5460   8.246  13.531   9.777 -0.0159 -0.3250  0.0731
  342loPI   GL1 5461   8.308  13.844   9.412  0.1806  0.1960 -0.3538
  342loPI   GL2 5462   8.096  13.514   9.273 -0.0766  0.0644 -0.0062
  342loPI   C1A 5463   8.440  13.991   8.959  0.0682 -0.2837  0.2860
  342loPI   C2A 5464   8.493  13.931   8.551  0.0859  0.2941 -0.5258
  342loPI   C3A 5465   8.591  13.772   8.222  0.0639 -0.1872  0.2423
  342loPI   C4A 5466   8.875  13.691   7.847  0.2056 -0.1372 -0.0118
  342loPI   C5A 5467   9.145  13.724   7.587  0.0193  0.1121  0.1718
  342loPI   C6A 5468   9.533  13.596   7.276  0.1160 -0.0234  0.1065
  342loPI   C1B 5469   8.114  13.645   8.888  0.0937  0.2972  0.0443
  342loPI   C2B 5470   8.006  13.629   8.452  0.2471 -0.1243 -0.2196
  342loPI   C3B 5471   8.096  13.651   8.022 -0.1378  0.0701 -0.0917
  342loPI   C4B 5472   8.338  13.690   7.658  0.0498  0.1554 -0.0006
  343loPI    C1 5473  17.448  17.665  10.437  0.1082  0.1253 -0.0457
  343loPI    C2 5474  17.445  17.424  10.757  0.0400  0.0073 -0.1344
  343loPI    C3 5475  17.659  17.762  10.763  0.0686 -0.0131  0.0219
  343loPI   PO4 5476  17.468  17.486  10.158  0.2200 -0.1857  0.0811
  343loPI   GL1 5477  17.361  17.631   9.849 -0.0785 -0.1156 -0.0149
  343loPI   GL2 5478  17.454  17.977   9.817 -0.1624 -0.1626  0.1444
  343loPI   C1A 5479  17.428  17.560   9.456 -0.0319  0.1509  0.1260
  343loPI   C2A 5480  17.599  17.664   9.194  0.2264 -0.0521 -0.1317
  343loPI   C3A 5481  17.400  17.645   8.741 -0.2723  0.2107  0.0534
  343loPI   C4A 5482  17.433  17.545   8.309  0.3534  0.1532  0.0494
  343loPI   C5A 5483  17.694  17.237   7.923 -0.0744 -0.1608  0.2584
  343loPI   C6A 5484  17.728  17.015   7.444  0.3835  0.0588  0.0426
  343loPI   C1B 5485  17.317  18.294   9.541 -0.1199 -0.0212  0.2308
  343loPI   C2B 5486  17.129  18.243   9.257  0.1849  0.2023  0.0087
  343loPI   C3B 5487  16.842  18.013   9.037 -0.0534  0.0659 -0.0667
  343loPI   C4B 5488  16.806  17.805   8.747  0.1651 -0.0300  0.2704
  344loPI    C1 5489   2.134  10.874  10.267 -0.3253  0.1940 -0.2476
  344loPI    C2 5490   1.880  11.110  10.464 -0.2496 -0.0320  0.1314
  344loPI    C3 5491   1.807  10.718  10.437 -0.0828 -0.0546  0.0026
  344loPI   PO4 5492   2.320  10.913  10.069  0.1388  0.1066  0.3137
  344loPI   GL1 5493   2.320  10.892   9.583 -0.0736  0.1443 -0.0143
  344loPI   GL2 5494   2.035  10.856   9.524  0.0520 -0.0080  0.1435
  344loPI   C1A 5495   2.327  10.925   9.084  0.4258  0.0472 -0.2011
  344loPI   C2A 5496   2.452  10.815   8.606  0.0520 -0.0768  0.2547
  344loPI   C3A 5497   2.350  10.804   8.220  0.1454 -0.1652 -0.3754
  344loPI   C4A 5498   2.414  10.661   7.833 -0.0858  0.2432  0.0414
  344loPI   C5A 5499   2.552  10.570   7.484  0.1862 -0.2090  0.1261
  344loPI   C6A 5500   2.731  10.816   7.224 -0.0256  0.2118 -0.1593
  344loPI   C1B 5501   1.717  11.156   9.261 -0.0671  0.1522  0.2696
  344loPI   C2B 5502   1.655  11.182   8.784 -0.0279 -0.1549 -0.1881
  344loPI   C3B 5503   1.506  11.253   8.345 -0.3989  0.3356 -0.0170
  344loPI   C4B 5504   1.530  11.209   7.901 -0.0934 -0.1071 -0.0020
  345loPI    C1 5505  17.491   2.642  10.393 -0.0069  0.0458 -0.0683
  345loPI    C2 5506  17.408   2.935  10.652  0.0518 -0.0154  0.0207
  345loPI    C3 5507  17.695   2.669  10.736  0.1017 -0.0096 -0.1279
  345loPI   PO4 5508  17.545   2.812  10.114  0.0503  0.4501 -0.1226
  345loPI   GL1 5509  17.641   2.625   9.739 -0.0152 -0.2989 -0.1288
  345loPI   GL2 5510  17.641   2.316   9.667  0.0277  0.1273  0.1181
  345loPI   C1A 5511  17.829   2.747   9.339 -0.1526 -0.0948 -0.3156
  345loPI   C2A 5512  17.671   2.906   8.894 -0.0714 -0.1862 -0.1362
  345loPI   C3A 5513  17.505   2.905   8.436  0.1270  0.1851  0.1315
  345loPI   C4A 5514  17.487   2.943   8.069 -0.1576  0.2590  0.3658
  345loPI   C5A 5515  17.306   2.856   7.694 -0.2387 -0.1076 -0.0290
  345loPI   C6A 5516  17.017   3.158   7.584 -0.0127  0.0072  0.0754
  345loPI   C1B 5517  17.801   2.271   9.252  0.0362 -0.1075 -0.3116
  345loPI   C2B 5518  17.852   2.273   8.850 -0.2188  0.3280  0.1348
  345loPI   C3B 5519  17.697   2.175   8.507 -0.1342  0.1179  0.0265
  345loPI   C4B 5520  17.762   1.934   8.102  0.0257 -0.0557 -0.1755
  346loPI    C1 5521   2.754  11.267   9.866  0.0125  0.1505  0.1013
  346loPI    C2 5522   2.362  11.344   9.834 -0.1349 -0.5259  0.1288
  346loPI    C3 5523   2.544  11.376  10.189 -0.1167 -0.0336  0.0814
  346loPI   PO4 5524   2.785  11.127   9.691 -0.1340  0.2594  0.2676
  346loPI   GL1 5525   2.702  11.128   9.290  0.2215  0.1850 -0.2561
  346loPI   GL2 5526   2.679  11.483   9.373 -0.2705 -0.2202  0.3139
  346loPI   C1A 5527   2.767  11.062   8.864  0.0261 -0.1144 -0.0482
  346loPI   C2A 5528   2.756  11.229   8.567 -0.0153 -0.1271  0.0814
  346loPI   C3A 5529   2.695  11.236   8.074  0.0214  0.0769  0.2818
  346loPI   C4A 5530   3.016  11.272   7.615  0.1501 -0.0561 -0.3093
  346loPI   C5A 5531   3.374  11.537   7.434 -0.1221 -0.1463  0.0243
  346loPI   C6A 5532   3.746  11.639   7.227 -0.2324 -0.1712  0.0377
  346loPI   C1B 5533   2.674  11.739   9.063 -0.1286  0.0015  0.0505
  346loPI   C2B 5534   2.675  11.772   8.654 -0.1101 -0.0327  0.2040
  346loPI   C3B 5535   2.615  11.697   8.242  0.1356 -0.0916 -0.2431
  346loPI   C4B 5536   2.541  11.620   7.726  0.2317  0.0844  0.1450
  347loPI    C1 5537   4.105   3.717   9.428 -0.1574 -0.0376  0.1090
  347loPI    C2 5538   4.332   3.498   9.673  0.2177  0.1490 -0.0634
  347loPI    C3 5539   3.935   3.453   9.675  0.2574 -0.2379  0.1891
  347loPI   PO4 5540   4.164   3.919   9.422  0.0283  0.0682  0.0583
  347loPI   GL1 5541   4.439   4.216   9.283 -0.1867  0.1787 -0.3719
  347loPI   GL2 5542   4.591   4.450   9.509  0.0383  0.1899  0.1501
  347loPI   C1A 5543   4.402   4.223   8.812  0.0354  0.1560  0.1000
  347loPI   C2A 5544   4.123   3.880   8.621 -0.1927  0.1654  0.2966
  347loPI   C3A 5545   3.932   3.932   8.220 -0.1711  0.0223 -0.1105
  347loPI   C4A 5546   3.630   4.202   7.966  0.2062 -0.6218  0.0303
  347loPI   C5A 5547   3.362   4.359   7.585  0.0056  0.2305 -0.1761
  347loPI   C6A 5548   3.326   4.360   7.209  0.0043  0.0935 -0.0857
  347loPI   C1B 5549   4.467   4.703   9.048  0.2655  0.3338  0.0932
  347loPI   C2B 5550   4.534   4.781   8.695 -0.1798  0.2061 -0.1170
  347loPI   C3B 5551   4.529   4.491   8.399 -0.2367  0.2502 -0.2586
  347loPI   C4B 5552   4.417   4.118   8.130 -0.0070  0.1235  0.0390
  348loPI    C1 5553   1.124   5.243  10.215  0.0489 -0.0188 -0.0258
  348loPI    C2 5554   0.907   5.492   9.989 -0.0713 -0.0120  0.0958
  348loPI    C3 5555   1.169   5.639  10.253 -0.0164 -0.0178  0.0446
  348loPI   PO4 5556   1.253   5.056   9.981 -0.3912 -0.0516  0.2206
  348loPI   GL1 5557   1.278   4.952   9.494  0.0283  0.1998  0.1762
  348loPI   GL2 5558   1.028   5.062   9.537 -0.2191 -0.1472 -0.0337
  348loPI   C1A 5559   1.487   4.932   9.111  0.2795 -0.2358 -0.2956
  348loPI   C2A 5560   1.726   5.023   8.680 -0.1216 -0.1587 -0.0539
  348loPI   C3A 5561   1.683   5.007   8.247 -0.0804 -0.0280 -0.0649
  348loPI   C4A 5562   1.351   5.091   8.028  0.3715 -0.0126 -0.1944
  348loPI   C5A 5563   1.098   4.809   7.771  0.0858 -0.1877  0.2711
  348loPI   C6A 5564   0.827   4.898   7.392  0.1341  0.0946  0.0288
  348loPI   C1B 5565   1.082   5.308   9.216 -0.0094  0.0209  0.0573
  348loPI   C2B 5566   0.882   5.174   8.962  0.0746  0.1938  0.2844
  348loPI   C3B 5567   0.743   5.081   8.617 -0.0169  0.2391 -0.0262
  348loPI   C4B 5568   0.929   4.963   8.268 -0.1479  0.1917  0.1528
  349loPI    C1 5569   5.734   9.407  10.591  0.0503 -0.0622 -0.0907
  349loPI    C2 5570   5.470   9.133  10.713  0.1955 -0.1145  0.1115
  349loPI    C3 5571   5.362   9.517  10.688  0.0453 -0.1626  0.0056
  349loPI   PO4 5572   5.816   9.234  10.352 -0.3149  0.0946  0.0176
  349loPI   GL1 5573   5.839   8.922  10.039 -0.1811 -0.2235  0.0833
  349loPI   GL2 5574   5.588   8.937   9.941 -0.1656 -0.1260 -0.0375
  349loPI   C1A 5575   6.156   8.923   9.654  0.1634 -0.1359 -0.4033
  349loPI   C2A 5576   6.178   8.871   9.280 -0.0344 -0.0581  0.2107
  349loPI   C3A 5577   6.069   9.012   8.830 -0.2258 -0.1335 -0.1955
  349loPI   C4A 5578   6.084   8.923   8.423 -0.0498  0.0595  0.0138
  349loPI   C5A 5579   6.131   8.810   7.929  0.0300 -0.4025 -0.0367
  349loPI   C6A 5580   6.482   8.684   7.652 -0.3240 -0.2359 -0.0039
  349loPI   C1B 5581   5.677   9.081   9.603 -0.1108 -0.2201  0.3088
  349loPI   C2B 5582   5.617   8.978   9.190  0.3369  0.0823 -0.0008
  349loPI   C3B 5583   5.599   8.918   8.770  0.0823  0.1142 -0.2104
  349loPI   C4B 5584   5.329   9.042   8.432 -0.0000  0.0119 -0.3544
  350loPI    C1 5585  11.602   8.207  10.062  0.1523 -0.1205  0.0164
  350loPI    C2 5586  11.475   8.580  10.127  0.1243 -0.1250 -0.0127
  350loPI    C3 5587  11.404   8.295  10.398 -0.0129 -0.1486 -0.0724
  350loPI   PO4 5588  11.500   8.042   9.785 -0.0409 -0.3225 -0.1627
  350loPI   GL1 5589  11.774   7.867   9.492 -0.1772  0.1250  0.0930
  350loPI   GL2 5590  11.735   7.586   9.333 -0.1508  0.0298  0.1759
  350loPI   C1A 5591  11.587   8.026   9.099  0.0722 -0.1307 -0.0803
  350loPI   C2A 5592  11.403   7.934   8.734  0.0687 -0.1844  0.2703
  350loPI   C3A 5593  11.175   8.003   8.411 -0.2574 -0.3082 -0.3026
  350loPI   C4A 5594  10.917   7.854   8.157 -0.1147 -0.3617 -0.1570
  350loPI   C5A 5595  10.611   7.498   7.974 -0.1008  0.0035  0.1600
  350loPI   C6A 5596  10.628   7.088   7.633 -0.3460  0.1531 -0.0569
  350loPI   C1B 5597  11.732   7.538   9.010 -0.0988  0.2608  0.1692
  350loPI   C2B 5598  11.758   7.619   8.600  0.0322  0.0630 -0.1756
  350loPI   C3B 5599  11.602   7.748   8.203 -0.1644 -0.1057 -0.2896
  350loPI   C4B 5600  11.459   8.070   7.967 -0.0107  0.2395 -0.3633
  351loPI    C1 5601  12.671  12.241  10.006 -0.1738  0.0902  0.0064
  351loPI    C2 5602  12.488  12.086  10.327 -0.0770  0.1096  0.0716
  351loPI    C3 5603  12.658  12.448  10.348 -0.2247  0.1876 -0.0543
  351loPI   PO4 5604  12.758  12.008   9.912  0.0786 -0.2401  0.2036
  351loPI   GL1 5605  12.765  11.957   9.488  0.1446 -0.0497  0.0226
  351loPI   GL2 5606  12.521  12.100   9.460 -0.1442  0.1041  0.3103
  351loPI   C1A 5607  13.026  11.734   9.184 -0.2058 -0.1367  0.2037
  351loPI   C2A 5608  13.306  11.450   9.041 -0.0351  0.3097 -0.0307
  351loPI   C3A 5609  13.486  11.211   8.692 -0.1623 -0.0122  0.1740
  351loPI   C4A 5610  13.575  11.296   8.360  0.2403  0.1673  0.2425
  351loPI   C5A 5611  13.520  11.376   7.916 -0.3039  0.0249  0.2319
  351loPI   C6A 5612  13.483  11.827   7.751 -0.0708 -0.0085  0.1718
  351loPI   C1B 5613  12.534  12.016   9.051  0.1481  0.2306 -0.2047
  351loPI   C2B 5614  12.683  12.007   8.645 -0.0577  0.1121 -0.0368
  351loPI   C3B 5615  12.791  11.974   8.215 -0.2271  0.0188 -0.0407
  351loPI   C4B 5616  13.002  11.974   7.919 -0.0696 -0.2220 -0.1247
  352loPI    C1 5617   1.643  15.041  10.097 -0.0117 -0.0382  0.0639
  352loPI    C2 5618   1.470  14.959  10.448  0.0288 -0.0065  0.0914
  352loPI    C3 5619   1.694  15.288  10.408  0.0322 -0.0153  0.0387
  352loPI   PO4 5620   1.609  14.871   9.859  0.0929  0.0335  0.2590
  352loPI   GL1 5621   1.819  14.876   9.471  0.4694  0.3024  0.0283
  352loPI   GL2 5622   1.841  14.566   9.523 -0.3063  0.0135  0.4048
  352loPI   C1A 5623   1.840  14.904   8.998  0.0127  0.5172  0.2290
  352loPI   C2A 5624   1.761  15.109   8.587 -0.1289 -0.0118  0.1835
  352loPI   C3A 5625   1.868  15.093   8.163  0.0424  0.0999  0.1346
  352loPI   C4A 5626   2.125  15.032   7.723 -0.4921 -0.1529 -0.1613
  352loPI   C5A 5627   2.528  15.113   7.651  0.0961  0.0919  0.0603
  352loPI   C6A 5628   2.699  15.556   7.609  0.1604 -0.4689 -0.0137
  352loPI   C1B 5629   1.474  14.649   9.237 -0.3248  0.3768 -0.1038
  352loPI   C2B 5630   1.287  14.827   8.974  0.2707 -0.1183  0.0168
  352loPI   C3B 5631   0.886  15.151   8.950 -0.1059  0.0218 -0.0463
  352loPI   C4B 5632   0.767  15.364   8.536  0.0819  0.1962 -0.0129
  353loPI    C1 5633   2.540  17.567   9.673 -0.1066 -0.1446 -0.1334
  353loPI    C2 5634   2.328  17.893   9.766  0.0809  0.0091 -0.2374
  353loPI    C3 5635   2.578  17.733  10.035  0.1470  0.0773 -0.2582
  353loPI   PO4 5636   2.461  17.488   9.514  0.0814  0.0600 -0.0978
  353loPI   GL1 5637   2.525  17.594   9.078 -0.0499 -0.3000  0.1822
  353loPI   GL2 5638   2.488  17.964   9.236  0.1827 -0.2305  0.1392
  353loPI   C1A 5639   2.595  17.488   8.678 -0.1209 -0.3435 -0.0650
  353loPI   C2A 5640   2.603  17.086   8.382 -0.0386  0.0814 -0.0834
  353loPI   C3A 5641   2.609  16.808   8.101 -0.0300 -0.0725  0.2521
  353loPI   C4A 5642   2.792  16.576   7.704  0.0291 -0.1797 -0.0339
  353loPI   C5A 5643   2.949  16.786   7.341 -0.0001 -0.1427 -0.3890
  353loPI   C6A 5644   3.047  17.006   6.901  0.2340  0.0582  0.0537
  353loPI   C1B 5645   2.527  18.020   8.783 -0.0540  0.0240 -0.2480
  353loPI   C2B 5646   2.425  17.928   8.365 -0.0127 -0.0120 -0.1209
  353loPI   C3B 5647   2.215  17.951   7.920  0.1388  0.1924 -0.2080
  353loPI   C4B 5648   2.010  17.684   7.541 -0.3785  0.1351  0.0147
  354loPI    C1 5649   2.266  13.282  10.027  0.2151  0.1008 -0.0042
  354loPI    C2 5650   2.445  13.440  10.348  0.0564  0.1665  0.0533
  354loPI    C3 5651   2.176  13.147  10.393 -0.0444  0.2487 -0.0108
  354loPI   PO4 5652   2.542  13.241   9.934 -0.1497  0.0264 -0.0187
  354loPI   GL1 5653   2.590  13.155   9.495  0.0932  0.1774  0.0741
  354loPI   GL2 5654   2.684  12.872   9.359 -0.0918  0.0958 -0.1136
  354loPI   C1A 5655   2.210  13.292   9.260  0.0687  0.0481  0.2817
  354loPI   C2A 5656   2.067  13.313   8.801  0.0641  0.1210 -0.4503
  354loPI   C3A 5657   2.325  13.150   8.558 -0.0892  0.1824  0.1098
  354loPI   C4A 5658   2.473  13.120   8.035  0.1966  0.0171  0.1089
  354loPI   C5A 5659   2.552  12.982   7.699 -0.1021  0.0126  0.0569
  354loPI   C6A 5660   2.231  12.962   7.367 -0.2497 -0.0637  0.2091
  354loPI   C1B 5661   2.588  13.121   8.960 -0.1869 -0.2542 -0.0546
  354loPI   C2B 5662   2.771  13.256   8.622  0.0118  0.0737 -0.1662
  354loPI   C3B 5663   3.043  13.470   8.433  0.0715  0.3561  0.2043
  354loPI   C4B 5664   3.317  13.807   8.335 -0.5448  0.2619 -0.1774
  355loPI    C1 5665   1.928  14.050   9.908 -0.0809 -0.2427  0.0477
  355loPI    C2 5666   2.222  13.797  10.005  0.3274  0.1501 -0.1275
  355loPI    C3 5667   2.295  14.189   9.982 -0.2657  0.2803  0.0233
  355loPI   PO4 5668   1.852  13.974   9.646  0.2764  0.0996 -0.2250
  355loPI   GL1 5669   1.564  13.819   9.314 -0.1196 -0.3850  0.0085
  355loPI   GL2 5670   1.246  13.743   9.349  0.0038 -0.0427 -0.1510
  355loPI   C1A 5671   1.486  14.071   8.973  0.3573  0.0899  0.3796
  355loPI   C2A 5672   1.444  14.078   8.451  0.3322  0.2491  0.1786
  355loPI   C3A 5673   1.529  14.233   8.119  0.1734  0.1816  0.0687
  355loPI   C4A 5674   1.608  14.284   7.627  0.0867 -0.2187  0.0410
  355loPI   C5A 5675   1.581  13.886   7.586  0.0797 -0.0624  0.1577
  355loPI   C6A 5676   1.463  13.462   7.286 -0.0485 -0.2479 -0.1231
  355loPI   C1B 5677   1.023  13.740   9.041  0.1804  0.0719  0.0832
  355loPI   C2B 5678   0.972  13.960   8.656 -0.1149 -0.0384 -0.1831
  355loPI   C3B 5679   0.973  14.176   8.201  0.2998  0.1063 -0.1428
  355loPI   C4B 5680   1.058  14.177   7.757 -0.1585  0.0119  0.2037
  356loPI    C1 5681   2.988   2.363  10.104 -0.1264  0.0764 -0.0213
  356loPI    C2 5682   2.880   2.742  10.038 -0.1628  0.0966  0.1489
  356loPI    C3 5683   2.770   2.559  10.376  0.1275  0.0384  0.2145
  356loPI   PO4 5684   3.112   2.287   9.837 -0.1197 -0.1434  0.3175
  356loPI   GL1 5685   3.135   2.282   9.413 -0.0528  0.2303 -0.1211
  356loPI   GL2 5686   2.979   2.116   9.228 -0.0246 -0.0924  0.1020
  356loPI   C1A 5687   2.935   2.788   9.164  0.1217 -0.0337 -0.2170
  356loPI   C2A 5688   2.823   2.836   8.742  0.0174 -0.2265 -0.1958
  356loPI   C3A 5689   2.581   2.976   8.378  0.0542 -0.2103  0.1217
  356loPI   C4A 5690   2.575   2.927   7.864 -0.1707  0.0652  0.0356
  356loPI   C5A 5691   2.547   2.634   7.448 -0.2636 -0.3517  0.0623
  356loPI   C6A 5692   2.180   2.493   7.189 -0.0378 -0.2236 -0.0673
  356loPI   C1B 5693   3.062   2.350   8.908 -0.1400  0.0685  0.1450
  356loPI   C2B 5694   2.926   2.426   8.419 -0.2504 -0.2948  0.1222
  356loPI   C3B 5695   2.890   2.411   8.009 -0.0788  0.1949 -0.1204
  356loPI   C4B 5696   2.844   2.291   7.576  0.2674  0.0340  0.0570
  357loPI    C1 5697   2.082  15.160   9.907  0.0480  0.2164 -0.1684
  357loPI    C2 5698   2.172  15.266  10.282 -0.0863  0.0215 -0.0787
  357loPI    C3 5699   2.335  14.937  10.123 -0.1808 -0.0046 -0.1223
  357loPI   PO4 5700   2.084  15.272   9.668  0.2837 -0.1153  0.1629
  357loPI   GL1 5701   2.288  15.124   9.268 -0.0095 -0.0559  0.3081
  357loPI   GL2 5702   2.368  15.485   9.338  0.0888 -0.2234 -0.1584
  357loPI   C1A 5703   2.143  15.265   8.919 -0.0096 -0.3245  0.0283
  357loPI   C2A 5704   2.261  15.331   8.536 -0.0772 -0.1442 -0.0092
  357loPI   C3A 5705   2.258  15.414   8.065  0.0052 -0.1732 -0.0979
  357loPI   C4A 5706   2.166  15.559   7.711  0.4338 -0.0599  0.0558
  357loPI   C5A 5707   2.024  15.894   7.444 -0.2462  0.2058  0.2954
  357loPI   C6A 5708   1.947  15.824   7.047  0.0615  0.1712 -0.1939
  357loPI   C1B 5709   2.494  15.666   8.968  0.2453  0.4606  0.0373
  357loPI   C2B 5710   2.848  15.753   8.853 -0.0872  0.2152  0.3789
  357loPI   C3B 5711   3.093  15.880   8.475  0.1920  0.0027 -0.1756
  357loPI   C4B 5712   2.929  15.837   8.139  0.2202 -0.0244 -0.4075
  358loPI    C1 5713  10.427   4.227  10.389  0.0328 -0.1261  0.0140
  358loPI    C2 5714  10.491   4.043  10.738  0.2507 -0.2548 -0.0910
  358loPI    C3 5715  10.705   4.367  10.641 -0.0418 -0.0181  0.0369
  358loPI   PO4 5716  10.157   4.091  10.325  0.1727  0.4940  0.2152
  358loPI   GL1 5717   9.962   4.027   9.951  0.1932 -0.0725 -0.0327
  358loPI   GL2 5718  10.195   4.262   9.748  0.1757 -0.0919 -0.0563
  358loPI   C1A 5719   9.848   3.983   9.510  0.1078  0.0022  0.3109
  358loPI   C2A 5720   9.740   4.060   9.161 -0.3284 -0.2040 -0.2170
  358loPI   C3A 5721   9.936   4.163   8.845  0.0556  0.3740  0.0710
  358loPI   C4A 5722   9.972   4.566   8.616 -0.1271 -0.3518  0.0111
  358loPI   C5A 5723   9.855   4.592   8.196 -0.2305 -0.1446  0.0939
  358loPI   C6A 5724   9.597   4.682   7.779 -0.2890 -0.0252 -0.0281
  358loPI   C1B 5725  10.177   4.403   9.296  0.1739 -0.3071  0.2000
  358loPI   C2B 5726  10.402   4.564   8.920  0.2411  0.2585 -0.2733
  358loPI   C3B 5727  10.541   4.884   8.652  0.0638  0.1098  0.3533
  358loPI   C4B 5728  10.835   5.272   8.551 -0.1555 -0.2945  0.2148
  359loPI    C1 5729  14.553  13.521  10.216 -0.2532 -0.0843 -0.1627
  359loPI    C2 5730  14.175  13.624  10.294 -0.2459 -0.1466 -0.0437
  359loPI    C3 5731  14.437  13.583  10.594  0.0046  0.4729 -0.1645
  359loPI   PO4 5732  14.540  13.390   9.984  0.3748 -0.0393 -0.1386
  359loPI   GL1 5733  14.390  13.140   9.577 -0.0793 -0.3772  0.0361
  359loPI   GL2 5734  14.731  13.018   9.347 -0.0087 -0.0035  0.0819
  359loPI   C1A 5735  14.194  13.115   9.260 -0.1283  0.1958  0.5359
  359loPI   C2A 5736  14.059  12.990   8.886 -0.1454 -0.0509  0.0377
  359loPI   C3A 5737  14.206  13.091   8.458 -0.0961  0.1531 -0.0898
  359loPI   C4A 5738  14.265  12.962   8.091 -0.1069  0.0542  0.0156
  359loPI   C5A 5739  14.079  12.832   7.767  0.1909  0.0145  0.1140
  359loPI   C6A 5740  13.830  12.558   7.492  0.1772  0.1498 -0.0002
  359loPI   C1B 5741  14.625  13.305   9.123  0.3220 -0.1961  0.0794
  359loPI   C2B 5742  14.293  13.411   8.805  0.3106 -0.0578  0.2188
  359loPI   C3B 5743  14.219  13.621   8.463 -0.2442  0.1283  0.0049
  359loPI   C4B 5744  14.188  13.503   7.979  0.0912 -0.1152  0.1074
  360loPI    C1 5745   8.395  18.520  10.226  0.0563 -0.0405 -0.0461
  360loPI    C2 5746   8.724  18.459  10.008  0.0619  0.0830 -0.0728
  360loPI    C3 5747   8.581  18.830  10.055 -0.0697  0.0306 -0.0562
  360loPI   PO4 5748   8.220  18.334  10.092 -0.2684 -0.1701  0.1169
  360loPI   GL1 5749   8.114  18.399   9.692 -0.2959  0.1406 -0.0488
  360loPI   GL2 5750   8.409  18.607   9.641  0.0262  0.1720  0.0632
  360loPI   C1A 5751   8.203  18.321   9.257  0.1701  0.0861 -0.0675
  360loPI   C2A 5752   8.219  18.356   8.795  0.0285  0.0098  0.1018
  360loPI   C3A 5753   8.348  18.455   8.356  0.1414  0.0839 -0.2313
  360loPI   C4A 5754   8.611  18.535   7.933 -0.0022 -0.0066  0.2034
  360loPI   C5A 5755   9.001  18.908   7.873 -0.0444  0.1473 -0.2318
  360loPI   C6A 5756   9.360  19.149   8.081  0.1074 -0.0397 -0.0970
  360loPI   C1B 5757   8.435  18.721   9.194 -0.1850  0.0386  0.0978
  360loPI   C2B 5758   8.480  18.816   8.719  0.1958  0.0947  0.0342
  360loPI   C3B 5759   8.715  18.868   8.309  0.0126  0.1470 -0.1986
  360loPI   C4B 5760   8.447  19.082   7.938 -0.2995 -0.0615  0.0768
  361loPI    C1 5761  14.036  10.876  10.104 -0.1019  0.1144  0.0347
  361loPI    C2 5762  14.359  10.655  10.022 -0.0516  0.2093 -0.0257
  361loPI    C3 5763  14.388  10.969  10.269 -0.1466  0.0830  0.1485
  361loPI   PO4 5764  13.858  10.721  10.065  0.0103 -0.0681  0.0077
  361loPI   GL1 5765  13.921  10.679   9.619  0.2723  0.0458 -0.0207
  361loPI   GL2 5766  14.118  10.774   9.444  0.0286 -0.1688 -0.0170
  361loPI   C1A 5767  13.753  10.472   9.285 -0.1672 -0.2419 -0.1842
  361loPI   C2A 5768  13.868  10.512   8.814  0.2812  0.1826  0.0945
  361loPI   C3A 5769  13.830  10.786   8.457  0.2199 -0.0083  0.1690
  361loPI   C4A 5770  14.008  11.045   8.133 -0.1028  0.3172 -0.0909
  361loPI   C5A 5771  13.993  11.275   7.793 -0.1787 -0.1217  0.1503
  361loPI   C6A 5772  13.752  11.123   7.409  0.0208 -0.1597 -0.0400
  361loPI   C1B 5773  14.273  10.441   9.135 -0.1187  0.0263  0.1678
  361loPI   C2B 5774  14.356  10.256   8.750 -0.2199  0.1351  0.0093
  361loPI   C3B 5775  14.229  10.457   8.320  0.4269  0.0806 -0.0276
  361loPI   C4B 5776  14.413  10.482   7.851  0.1361  0.0185 -0.1239
  362loPI    C1 5777   9.093  16.678  10.393 -0.1129 -0.2421 -0.1464
  362loPI    C2 5778   8.812  16.960  10.349  0.0936  0.0069  0.0925
  362loPI    C3 5779   8.948  16.868  10.714  0.3020 -0.1325 -0.0183
  362loPI   PO4 5780   9.174  16.574  10.142  0.2052 -0.1013  0.1822
  362loPI   GL1 5781   9.255  16.594   9.740  0.0156 -0.1558  0.0008
  362loPI   GL2 5782   9.576  16.705   9.631  0.2402 -0.0690 -0.1428
  362loPI   C1A 5783   9.182  16.729   9.272  0.2064 -0.1075 -0.3951
  362loPI   C2A 5784   9.371  16.862   8.925  0.1011  0.0686 -0.0551
  362loPI   C3A 5785   9.806  16.831   8.789  0.0973 -0.3566 -0.2848
  362loPI   C4A 5786   9.966  16.966   8.382  0.0898 -0.1342 -0.0642
  362loPI   C5A 5787   9.831  17.310   8.069 -0.2148 -0.0358 -0.0264
  362loPI   C6A 5788   9.669  17.573   7.826 -0.1980  0.0438 -0.1272
  362loPI   C1B 5789   9.657  16.509   9.198  0.0627  0.1089 -0.2183
  362loPI   C2B 5790   9.689  16.303   8.813 -0.2334 -0.1422  0.0374
  362loPI   C3B 5791   9.710  16.500   8.462 -0.1041  0.0788  0.0694
  362loPI   C4B 5792   9.720  16.623   8.060 -0.1296  0.0276  0.3825
  363loPI    C1 5793  10.799  10.114   9.971 -0.0487 -0.0434 -0.0965
  363loPI    C2 5794  10.927  10.247  10.326 -0.1849  0.1470 -0.1168
  363loPI    C3 5795  10.569  10.071  10.296 -0.1014 -0.0229 -0.1309
  363loPI   PO4 5796  10.735  10.250   9.798  0.0212  0.0779  0.0783
  363loPI   GL1 5797  10.616  10.051   9.458  0.2989 -0.0826  0.4601
  363loPI   GL2 5798  10.730   9.797   9.485 -0.2843  0.1640 -0.1194
  363loPI   C1A 5799  10.423  10.182   9.199  0.0957 -0.2260  0.2078
  363loPI   C2A 5800  10.435  10.377   8.773 -0.1379  0.0729  0.2713
  363loPI   C3A 5801  10.698  10.137   8.418 -0.0604 -0.2178  0.0993
  363loPI   C4A 5802  10.830   9.717   8.099  0.0385  0.1792  0.0769
  363loPI   C5A 5803  11.046   9.445   7.937 -0.1183 -0.0951  0.1129
  363loPI   C6A 5804  11.501   9.331   7.851  0.2308  0.1868 -0.1353
  363loPI   C1B 5805  10.655   9.530   9.211 -0.1068 -0.1430 -0.3024
  363loPI   C2B 5806  10.651   9.263   9.026  0.1346  0.0476 -0.3477
  363loPI   C3B 5807  10.501   8.927   8.791 -0.0011  0.0622  0.0186
  363loPI   C4B 5808  10.356   8.410   8.569 -0.1140 -0.2098 -0.0031
  364loPI    C1 5809   9.565  16.138  10.381 -0.1161 -0.1180  0.0006
  364loPI    C2 5810   9.902  16.166  10.167 -0.0004  0.1997  0.2163
  364loPI    C3 5811   9.855  15.865  10.427 -0.1198 -0.1581 -0.2064
  364loPI   PO4 5812   9.395  16.178  10.268 -0.2325 -0.2418  0.0321
  364loPI   GL1 5813   9.229  16.087   9.773 -0.1145  0.0560  0.0510
  364loPI   GL2 5814   9.624  16.241   9.721  0.0654  0.0516 -0.3796
  364loPI   C1A 5815   9.097  16.256   9.359 -0.2065  0.1652 -0.1065
  364loPI   C2A 5816   9.221  16.295   8.906  0.0720  0.0521 -0.1360
  364loPI   C3A 5817   9.204  16.549   8.511 -0.1692 -0.1976 -0.0024
  364loPI   C4A 5818   9.149  16.676   8.005 -0.2467  0.1386  0.1923
  364loPI   C5A 5819   9.476  17.033   7.861  0.3921 -0.0355 -0.0963
  364loPI   C6A 5820   9.713  17.198   7.543  0.2011  0.2928  0.1935
  364loPI   C1B 5821   9.713  15.994   9.488  0.1155  0.0843 -0.2486
  364loPI   C2B 5822   9.876  15.942   9.151  0.0041 -0.3578 -0.1651
  364loPI   C3B 5823   9.944  15.896   8.676 -0.1244 -0.1171  0.0303
  364loPI   C4B 5824   9.857  16.054   8.400  0.0352 -0.2089 -0.1145
  365loPI    C1 5825   1.040   2.433  10.041  0.0990 -0.3636 -0.2978
  365loPI    C2 5826   1.173   2.088  10.192  0.0399 -0.2729 -0.0343
  365loPI    C3 5827   1.085   2.392  10.436  0.0396 -0.0891 -0.2609
  365loPI   PO4 5828   0.891   2.348   9.898  0.0047  0.0015  0.0008
  365loPI   GL1 5829   0.929   2.372   9.374  0.2442  0.0440  0.2017
  365loPI   GL2 5830   1.073   2.160   9.121 -0.0212 -0.0133 -0.4939
  365loPI   C1A 5831   0.855   2.546   8.929  0.0179  0.1681  0.0427
  365loPI   C2A 5832   0.650   2.500   8.448  0.1792  0.0622  0.0095
  365loPI   C3A 5833   0.577   2.742   8.123 -0.0442  0.0736  0.1497
  365loPI   C4A 5834   0.478   3.117   7.953 -0.4061 -0.2727  0.2577
  365loPI   C5A 5835   0.488   3.567   7.858  0.0229  0.0764  0.0681
  365loPI   C6A 5836   0.571   4.042   7.891 -0.0718  0.1300  0.3439
  365loPI   C1B 5837   0.924   1.996   8.687 -0.3185 -0.0780  0.1641
  365loPI   C2B 5838   0.704   1.840   8.348  0.1841  0.1820 -0.3377
  365loPI   C3B 5839   0.452   1.950   7.995 -0.0338 -0.1808 -0.1605
  365loPI   C4B 5840   0.161   1.667   7.669  0.0285 -0.0883 -0.3982
  366loPI    C1 5841  10.754  11.477  10.098  0.0933 -0.1053 -0.0410
  366loPI    C2 5842  10.498  11.232   9.912 -0.0047 -0.0070 -0.0368
  366loPI    C3 5843  10.633  11.141  10.278 -0.1695  0.0270  0.0330
  366loPI   PO4 5844  10.928  11.502   9.854  0.2782  0.0502 -0.0860
  366loPI   GL1 5845  10.923  11.351   9.436 -0.0219 -0.1236 -0.1854
  366loPI   GL2 5846  10.874  11.090   9.306 -0.1674  0.2182  0.0796
  366loPI   C1A 5847  11.201  11.571   9.131  0.1170  0.1994 -0.2750
  366loPI   C2A 5848  11.279  11.840   8.811  0.1923 -0.1019 -0.2703
  366loPI   C3A 5849  11.020  12.074   8.612  0.1366 -0.0777 -0.1248
  366loPI   C4A 5850  10.964  12.091   8.110  0.2666 -0.2833  0.1919
  366loPI   C5A 5851  10.745  12.200   7.692  0.1437 -0.3985 -0.2341
  366loPI   C6A 5852  10.562  12.459   7.520 -0.0768  0.0324 -0.3520
  366loPI   C1B 5853  10.957  11.196   8.877 -0.1288 -0.3207 -0.3767
  366loPI   C2B 5854  11.105  11.432   8.561  0.1116  0.0558  0.1425
  366loPI   C3B 5855  11.417  11.722   8.254  0.1068 -0.0019  0.1601
  366loPI   C4B 5856  11.675  11.950   8.029  0.4316  0.0949  0.3371
  367loPI    C1 5857   1.527   2.435   9.773  0.1893  0.3066  0.0584
  367loPI    C2 5858   1.572   2.495  10.166  0.2789 -0.1405  0.1220
  367loPI    C3 5859   1.632   2.131  10.011 -0.0870 -0.0476 -0.2580
  367loPI   PO4 5860   1.301   2.573   9.645 -0.0931  0.2371 -0.1258
  367loPI   GL1 5861   1.212   2.850   9.363  0.2415  0.0769  0.0006
  367loPI   GL2 5862   0.887   3.008   9.220 -0.1152  0.0420  0.2001
  367loPI   C1A 5863   1.286   3.052   8.966  0.1685 -0.0605  0.2432
  367loPI   C2A 5864   1.075   2.886   8.582 -0.2223 -0.2999  0.0124
  367loPI   C3A 5865   1.082   2.735   8.148  0.1938 -0.1723  0.2655
  367loPI   C4A 5866   1.300   2.586   7.837  0.2917  0.0997  0.1492
  367loPI   C5A 5867   1.179   2.483   7.478 -0.1091 -0.0832  0.5036
  367loPI   C6A 5868   1.378   2.371   7.208  0.0242 -0.1621 -0.0520
  367loPI   C1B 5869   0.717   3.308   8.865 -0.2424  0.2909 -0.2626
  367loPI   C2B 5870   0.593   3.695   8.712 -0.0970  0.1762 -0.0525
  367loPI   C3B 5871   0.348   3.825   8.363 -0.0547  0.2075 -0.2966
  367loPI   C4B 5872   0.098   3.853   7.893  0.1037  0.0221  0.2940
  368loPI    C1 5873  14.185   8.418  10.104 -0.1060 -0.0137  0.0224
  368loPI    C2 5874  14.156   8.164   9.797  0.1453 -0.1042  0.0708
  368loPI    C3 5875  14.164   8.024  10.171  0.0364 -0.0070  0.1103
  368loPI   PO4 5876  14.298   8.630   9.927 -0.1474  0.0710 -0.0620
  368loPI   GL1 5877  14.049   8.905   9.686  0.1449 -0.0082 -0.1286
  368loPI   GL2 5878  14.026   9.338   9.640  0.0731 -0.1177 -0.0252
  368loPI   C1A 5879  14.094   8.979   9.335  0.1032  0.0464  0.0924
  368loPI   C2A 5880  14.402   8.950   8.957 -0.2051  0.2392  0.0355
  368loPI   C3A 5881  14.503   8.663   8.679  0.4085  0.0674  0.0772
  368loPI   C4A 5882  14.470   8.351   8.315  0.0041 -0.3420  0.1255
  368loPI   C5A 5883  14.299   8.494   7.824 -0.2209 -0.0506 -0.1021
  368loPI   C6A 5884  14.260   8.343   7.445 -0.1644 -0.0018 -0.1218
  368loPI   C1B 5885  14.036   9.382   9.071  0.1764  0.1231  0.2562
  368loPI   C2B 5886  14.285   9.356   8.663  0.0772 -0.1707 -0.0360
  368loPI   C3B 5887  14.454   9.064   8.418 -0.0193 -0.0731 -0.1897
  368loPI   C4B 5888  14.589   8.807   8.165  0.2368 -0.4130 -0.0348
  369loPI    C1 5889  12.489  10.721  10.138 -0.0183 -0.1848 -0.1112
  369loPI    C2 5890  12.617  10.666  10.513  0.2518 -0.0377 -0.1790
  369loPI    C3 5891  12.721  10.996  10.313  0.1587 -0.1431 -0.4051
  369loPI   PO4 5892  12.535  10.482  10.002  0.0225  0.0310  0.4878
  369loPI   GL1 5893  12.574  10.483   9.548  0.0937 -0.0086 -0.1410
  369loPI   GL2 5894  12.347  10.552   9.297  0.0051 -0.0141 -0.0149
  369loPI   C1A 5895  12.808  10.594   9.138 -0.1296  0.1561 -0.3723
  369loPI   C2A 5896  12.823  10.598   8.708  0.1281  0.2758  0.0490
  369loPI   C3A 5897  12.978  10.627   8.331  0.0648 -0.3133  0.1476
  369loPI   C4A 5898  13.006  10.617   7.825 -0.1223 -0.3067  0.0236
  369loPI   C5A 5899  13.042  10.413   7.506  0.2363 -0.0624  0.3616
  369loPI   C6A 5900  12.977  10.377   7.017  0.0418 -0.1763  0.2618
  369loPI   C1B 5901  12.355  10.539   8.844  0.0448 -0.2125  0.3290
  369loPI   C2B 5902  12.274  10.400   8.485 -0.0019  0.0283 -0.3145
  369loPI   C3B 5903  12.082  10.495   8.085  0.0038  0.0473 -0.1782
  369loPI   C4B 5904  12.072  10.401   7.677 -0.1087 -0.2741  0.0297
  370loPI    C1 5905   2.951   6.917  10.111  0.0316 -0.2175  0.0662
  370loPI    C2 5906   3.321   6.780  10.042  0.2068  0.1301  0.2906
  370loPI    C3 5907   3.114   6.647  10.357  0.2081  0.0649  0.2641
  370loPI   PO4 5908   2.974   7.174  10.026  0.0183  0.1708  0.3180
  370loPI   GL1 5909   3.173   7.508   9.725 -0.1249 -0.6003 -0.2178
  370loPI   GL2 5910   3.174   7.730   9.631  0.2815  0.0941 -0.0737
  370loPI   C1A 5911   3.075   7.318   9.305  0.2015  0.1595 -0.1005
  370loPI   C2A 5912   2.972   7.075   8.899 -0.0337 -0.0759  0.3369
  370loPI   C3A 5913   3.014   6.929   8.487  0.2269 -0.0214 -0.0075
  370loPI   C4A 5914   2.883   6.748   7.987 -0.3059 -0.2093  0.1981
  370loPI   C5A 5915   2.660   6.469   7.615 -0.1705  0.0155 -0.1084
  370loPI   C6A 5916   2.328   6.157   7.335 -0.0872 -0.1529 -0.0691
  370loPI   C1B 5917   3.283   7.797   9.238  0.3280  0.2218 -0.0722
  370loPI   C2B 5918   3.448   7.867   8.793 -0.0972 -0.1576  0.0395
  370loPI   C3B 5919   3.466   8.013   8.373  0.0419  0.1089  0.0809
  370loPI   C4B 5920   3.414   8.138   7.869 -0.2574  0.1204 -0.2743
  371loPI    C1 5921  13.158  16.259  10.441 -0.2690  0.1981 -0.1467
  371loPI    C2 5922  13.122  16.487  10.768  0.1642  0.0793 -0.0093
  371loPI    C3 5923  13.366  16.599  10.472 -0.0360  0.0606 -0.1843
  371loPI   PO4 5924  13.254  15.941  10.396  0.0732 -0.0527 -0.1879
  371loPI   GL1 5925  13.239  15.621  10.180 -0.0335 -0.2445  0.0900
  371loPI   GL2 5926  13.421  15.564   9.936 -0.4290 -0.2543  0.3022
  371loPI   C1A 5927  12.949  15.602   9.732  0.2175  0.0234 -0.0579
  371loPI   C2A 5928  12.993  15.519   9.287  0.0223  0.0196 -0.0021
  371loPI   C3A 5929  13.212  15.495   8.969 -0.1687 -0.0065 -0.1526
  371loPI   C4A 5930  13.216  15.805   8.746 -0.0101 -0.1197 -0.0521
  371loPI   C5A 5931  13.331  16.142   8.467 -0.0665 -0.1245 -0.2332
  371loPI   C6A 5932  13.334  16.643   8.482  0.1004 -0.0461  0.2108
  371loPI   C1B 5933  13.435  15.698   9.515  0.0477 -0.1964  0.1282
  371loPI   C2B 5934  13.520  15.810   9.202  0.0063  0.1719  0.2738
  371loPI   C3B 5935  13.618  16.059   8.884 -0.1072  0.0162  0.0223
  371loPI   C4B 5936  13.990  16.139   8.630  0.1418 -0.0773  0.2425
  372loPI    C1 5937   4.597   0.487   9.688 -0.1542  0.1054  0.0021
  372loPI    C2 5938   4.939   0.281   9.719 -0.1710  0.0792  0.0131
  372loPI    C3 5939   4.811   0.506  10.025 -0.0178  0.3157 -0.0940
  372loPI   PO4 5940   4.574   0.550   9.500  0.1047 -0.3029  0.0898
  372loPI   GL1 5941   4.526   0.892   9.103 -0.0265  0.2605  0.0490
  372loPI   GL2 5942   4.883   0.936   9.177 -0.0893  0.0073 -0.0792
  372loPI   C1A 5943   4.668   0.876   8.658  0.1768  0.0942  0.1007
  372loPI   C2A 5944   4.689   0.826   8.189 -0.2029 -0.1545 -0.2416
  372loPI   C3A 5945   4.923   0.870   7.853  0.0257  0.2258 -0.0123
  372loPI   C4A 5946   5.107   0.670   7.562  0.0702 -0.2686  0.1714
  372loPI   C5A 5947   5.071   0.231   7.260  0.2114 -0.0404 -0.6114
  372loPI   C6A 5948   5.306  -0.142   7.287 -0.1677 -0.0547 -0.1467
  372loPI   C1B 5949   5.153   1.008   8.823 -0.0417  0.1862  0.1326
  372loPI   C2B 5950   5.151   1.010   8.395 -0.0274  0.2067  0.1321
  372loPI   C3B 5951   5.336   1.126   8.053  0.2710 -0.1613  0.0559
  372loPI   C4B 5952   5.307   1.196   7.632 -0.1203 -0.0061 -0.2298
  373loPI    C1 5953   3.588  11.317  10.211  0.1978 -0.0015 -0.1492
  373loPI    C2 5954   3.469  10.984  10.398  0.1195  0.0337 -0.1359
  373loPI    C3 5955   3.362  11.342  10.541  0.0560  0.0609 -0.2501
  373loPI   PO4 5956   3.573  11.320   9.970  0.1482  0.1222  0.0062
  373loPI   GL1 5957   3.696  11.178   9.523  0.0265  0.1373 -0.4357
  373loPI   GL2 5958   3.841  11.457   9.575 -0.1087 -0.0670 -0.0196
  373loPI   C1A 5959   3.651  11.176   9.190 -0.0455 -0.1616 -0.0779
  373loPI   C2A 5960   3.739  11.399   8.771 -0.1705 -0.0169  0.0476
  373loPI   C3A 5961   3.453  11.292   8.454 -0.1349 -0.0358  0.0034
  373loPI   C4A 5962   3.681  11.364   8.044  0.0568 -0.1352  0.0851
  373loPI   C5A 5963   4.097  11.481   7.847 -0.1517  0.0539  0.0262
  373loPI   C6A 5964   4.335  11.636   7.515 -0.0430 -0.0952 -0.2307
  373loPI   C1B 5965   3.811  11.651   9.222 -0.1483  0.1152  0.0421
  373loPI   C2B 5966   3.658  11.956   8.957 -0.2372  0.1054 -0.1888
  373loPI   C3B 5967   3.595  11.827   8.446  0.2797  0.3861  0.1971
  373loPI   C4B 5968   3.484  11.813   8.008  0.1215 -0.2171  0.1078
  374loPI    C1 5969   0.556  16.360   9.941  0.0178  0.1817  0.1476
  374loPI    C2 5970   0.538  16.484  10.321 -0.1215 -0.0501  0.2188
  374loPI    C3 5971   0.796  16.198  10.217 -0.0549  0.0419  0.1297
  374loPI   PO4 5972   0.503  16.663   9.797 -0.0619 -0.0136 -0.2181
  374loPI   GL1 5973   0.398  16.786   9.439 -0.0938  0.1130 -0.0554
  374loPI   GL2 5974   0.545  17.096   9.627  0.0625 -0.1737 -0.4177
  374loPI   C1A 5975   0.529  16.889   9.033  0.1409  0.1527  0.2022
  374loPI   C2A 5976   0.444  16.890   8.580 -0.2124  0.0386 -0.1526
  374loPI   C3A 5977   0.284  17.172   8.208  0.0918  0.1919 -0.1470
  374loPI   C4A 5978   0.241  17.453   7.900 -0.1287  0.0768 -0.0787
  374loPI   C5A 5979   0.346  17.605   7.540 -0.3042  0.0922  0.0762
  374loPI   C6A 5980   0.465  17.776   7.203 -0.2359  0.1705  0.2614
  374loPI   C1B 5981   0.716  17.272   9.315 -0.3849 -0.1434  0.2457
  374loPI   C2B 5982   0.700  17.265   8.803 -0.2117 -0.0179 -0.0242
  374loPI   C3B 5983   0.766  17.238   8.351  0.0284  0.1307 -0.0855
  374loPI   C4B 5984   0.781  17.354   7.890 -0.0096  0.0875 -0.0494
  375loPI    C1 5985  13.823  12.366   9.829 -0.0555 -0.2087 -0.2079
  375loPI    C2 5986  14.040  12.397  10.164 -0.0207 -0.0157 -0.2470
  375loPI    C3 5987  13.663  12.530  10.156  0.0544  0.1959 -0.3505
  375loPI   PO4 5988  13.860  12.169   9.732  0.0625 -0.0300  0.1588
  375loPI   GL1 5989  13.551  11.903   9.611 -0.3767 -0.3612 -0.1786
  375loPI   GL2 5990  13.414  11.526   9.598  0.1635  0.0813 -0.1226
  375loPI   C1A 5991  13.489  11.926   9.196 -0.0371 -0.0658 -0.3177
  375loPI   C2A 5992  13.624  11.897   8.861  0.2499 -0.0219 -0.0476
  375loPI   C3A 5993  13.628  11.744   8.473 -0.0693 -0.2279  0.0218
  375loPI   C4A 5994  13.865  11.696   8.166  0.0660  0.3724  0.3660
  375loPI   C5A 5995  14.118  11.745   7.806  0.1741  0.0105 -0.0999
  375loPI   C6A 5996  13.904  11.839   7.487  0.2208  0.0222 -0.4413
  375loPI   C1B 5997  13.574  11.152   9.322 -0.1026 -0.2918 -0.3139
  375loPI   C2B 5998  13.761  11.040   9.037 -0.0193  0.2232 -0.4434
  375loPI   C3B 5999  14.152  11.048   8.840 -0.0962  0.2738  0.0052
  375loPI   C4B 6000  14.393  10.733   8.696  0.0484  0.0784  0.0688
  376loPI    C1 6001  10.323  14.810  10.572 -0.1805 -0.1080  0.4866
  376loPI    C2 6002  10.007  14.996  10.732 -0.0611  0.1481  0.4308
  376loPI    C3 6003  10.375  15.076  10.866  0.0178  0.1767  0.2006
  376loPI   PO4 6004  10.293  14.918  10.297 -0.2240 -0.3123  0.3314
  376loPI   GL1 6005  10.150  15.115   9.842  0.0354 -0.0915  0.2146
  376loPI   GL2 6006  10.467  15.275  10.018  0.0738  0.1379 -0.1041
  376loPI   C1A 6007  10.185  14.936   9.431  0.0908 -0.0864  0.2632
  376loPI   C2A 6008  10.335  14.872   9.068  0.0145 -0.1618 -0.0793
  376loPI   C3A 6009  10.337  14.925   8.658 -0.0118  0.0736  0.1364
  376loPI   C4A 6010  10.340  15.061   8.308 -0.1944  0.2809  0.2400
  376loPI   C5A 6011  10.318  15.122   7.962  0.0178 -0.0565  0.3168
  376loPI   C6A 6012  10.158  15.175   7.620 -0.2795  0.1955 -0.0632
  376loPI   C1B 6013  10.678  15.322   9.596  0.0559 -0.2859 -0.1791
  376loPI   C2B 6014  10.784  15.147   9.159 -0.0142 -0.2543  0.3000
  376loPI   C3B 6015  10.838  15.055   8.727  0.1345 -0.0121 -0.2455
  376loPI   C4B 6016  10.879  15.054   8.280 -0.2278 -0.1782  0.1926
  377loPI    C1 6017   1.380  13.437  10.293  0.0486 -0.1302  0.0903
  377loPI    C2 6018   1.145  13.438  10.617 -0.0664  0.0505  0.0081
  377loPI    C3 6019   1.395  13.743  10.550  0.0520 -0.0490 -0.0061
  377loPI   PO4 6020   1.255  13.347  10.038 -0.1339 -0.0163  0.2166
  377loPI   GL1 6021   1.236  13.143   9.685  0.2542  0.0561  0.1116
  377loPI   GL2 6022   1.517  13.309   9.553  0.2639 -0.1373  0.2105
  377loPI   C1A 6023   1.136  13.292   9.193 -0.0480  0.3200  0.1683
  377loPI   C2A 6024   1.086  13.357   8.743  0.0793  0.0080 -0.1347
  377loPI   C3A 6025   1.007  13.508   8.302  0.4026  0.0216 -0.1347
  377loPI   C4A 6026   1.087  13.646   7.829 -0.1247 -0.0927  0.0828
  377loPI   C5A 6027   1.015  13.832   7.361 -0.3065  0.1167  0.0863
  377loPI   C6A 6028   1.296  13.771   6.922 -0.0492 -0.1144 -0.1968
  377loPI   C1B 6029   1.594  13.378   9.081  0.1013 -0.3065 -0.0016
  377loPI   C2B 6030   1.512  13.629   8.744  0.0468 -0.1754  0.0462
  377loPI   C3B 6031   1.687  13.580   8.408  0.0730  0.0493  0.2953
  377loPI   C4B 6032   1.462  13.707   8.121  0.4161 -0.0173 -0.2174
  378loPI    C1 6033   3.558   2.483   9.961  0.0793 -0.2821  0.0124
  378loPI    C2 6034   3.477   2.339  10.325  0.3575 -0.2494  0.0901
  378loPI    C3 6035   3.348   2.703  10.220  0.1467 -0.3198  0.0997
  378loPI   PO4 6036   3.810   2.436   9.975 -0.2698 -0.1024  0.2207
  378loPI   GL1 6037   4.169   2.420   9.644 -0.0955  0.0248  0.0240
  378loPI   GL2 6038   4.033   2.178   9.460  0.1346 -0.2755 -0.1615
  378loPI   C1A 6039   4.358   2.625   9.324 -0.2078  0.0907 -0.0136
  378loPI   C2A 6040   4.555   2.661   8.861  0.0632  0.1098  0.0965
  378loPI   C3A 6041   4.501   2.732   8.461  0.0270 -0.1087 -0.2719
  378loPI   C4A 6042   4.408   2.672   8.006 -0.3905  0.0413  0.1800
  378loPI   C5A 6043   4.179   2.696   7.575 -0.0817 -0.1020 -0.1922
  378loPI   C6A 6044   3.824   2.881   7.390  0.2787 -0.2402  0.1060
  378loPI   C1B 6045   3.941   2.369   9.000  0.1616 -0.1649  0.1224
  378loPI   C2B 6046   3.960   2.523   8.557  0.2771  0.1198 -0.0730
  378loPI   C3B 6047   3.934   2.502   8.159 -0.1821 -0.0207 -0.2615
  378loPI   C4B 6048   3.731   2.508   7.795  0.0601  0.0290  0.0086
  379loPI    C1 6049  10.035   5.166  10.319 -0.1918  0.2746 -0.2928
  379loPI    C2 6050   9.864   5.111  10.677  0.0134 -0.0800 -0.2441
  379loPI    C3 6051  10.220   5.291  10.651  0.1079 -0.2649 -0.2448
  379loPI   PO4 6052  10.071   5.039  10.228  0.0743  0.0288 -0.3922
  379loPI   GL1 6053   9.753   5.000   9.925  0.2744 -0.0096 -0.1315
  379loPI   GL2 6054  10.002   4.864   9.806  0.0034  0.1461  0.1156
  379loPI   C1A 6055   9.682   5.252   9.529  0.1466 -0.0268  0.1936
  379loPI   C2A 6056   9.644   5.387   9.052  0.0781  0.3299  0.2283
  379loPI   C3A 6057   9.752   5.616   8.737  0.4708  0.0625  0.1603
  379loPI   C4A 6058   9.981   5.655   8.268  0.0669  0.0506  0.1391
  379loPI   C5A 6059  10.126   5.929   7.966  0.1359  0.0055 -0.1615
  379loPI   C6A 6060   9.921   6.341   7.833 -0.0335  0.0393 -0.2079
  379loPI   C1B 6061  10.018   4.901   9.461  0.0018 -0.0155 -0.0309
  379loPI   C2B 6062   9.948   4.940   9.059 -0.2519 -0.0606 -0.0731
  379loPI   C3B 6063   9.946   5.139   8.681  0.1113 -0.1862 -0.2431
  379loPI   C4B 6064  10.100   5.127   8.266  0.0289  0.1633 -0.0397
  380loPI    C1 6065   9.067   6.692  10.384 -0.1474  0.0053  0.2254
  380loPI    C2 6066   8.869   6.806  10.055 -0.0530 -0.1718  0.1055
  380loPI    C3 6067   8.850   6.426  10.179 -0.0752 -0.1095  0.2967
  380loPI   PO4 6068   9.322   6.764  10.312 -0.0874 -0.0883 -0.0732
  380loPI   GL1 6069   9.472   6.755   9.848 -0.2945 -0.4270  0.1446
  380loPI   GL2 6070   9.277   6.523   9.825  0.0773 -0.1160 -0.1868
  380loPI   C1A 6071   9.299   6.934   9.582 -0.2416 -0.2491 -0.1491
  380loPI   C2A 6072   9.366   6.877   9.143  0.1265  0.0522  0.3312
  380loPI   C3A 6073   9.384   7.012   8.792 -0.1779 -0.0655  0.3491
  380loPI   C4A 6074   9.478   7.268   8.467 -0.0028 -0.2597 -0.2026
  380loPI   C5A 6075   9.420   7.606   8.085  0.1618 -0.1396 -0.0054
  380loPI   C6A 6076   9.138   7.671   7.725 -0.0754 -0.0511 -0.2945
  380loPI   C1B 6077   8.944   6.613   9.621 -0.2857 -0.0257 -0.0277
  380loPI   C2B 6078   8.904   6.580   9.145 -0.1846 -0.3094 -0.0598
  380loPI   C3B 6079   8.974   6.529   8.720 -0.1817  0.2471 -0.3107
  380loPI   C4B 6080   8.942   6.376   8.270  0.0788 -0.3562 -0.2726
  381loPI    C1 6081   8.996   2.881  10.330 -0.2906  0.0148  0.0558
  381loPI    C2 6082   9.065   3.246  10.479 -0.0270 -0.0273  0.0405
  381loPI    C3 6083   9.286   2.935  10.600 -0.0846 -0.1368 -0.1321
  381loPI   PO4 6084   9.048   2.920  10.085 -0.2339  0.0730 -0.3480
  381loPI   GL1 6085   8.935   3.264   9.836 -0.1539 -0.0827 -0.0635
  381loPI   GL2 6086   8.864   3.547   9.846  0.0295 -0.1665  0.1613
  381loPI   C1A 6087   9.143   3.274   9.435  0.2280  0.1822 -0.0174
  381loPI   C2A 6088   9.271   3.220   9.051 -0.2837  0.1954 -0.2534
  381loPI   C3A 6089   9.256   3.161   8.683  0.2776 -0.1235 -0.0983
  381loPI   C4A 6090   9.232   3.159   8.243 -0.3905 -0.0364 -0.1627
  381loPI   C5A 6091   9.134   3.403   7.884 -0.1499  0.0266  0.2318
  381loPI   C6A 6092   9.048   3.615   7.549 -0.0326 -0.3999  0.0271
  381loPI   C1B 6093   8.863   3.742   9.400 -0.2323 -0.3728 -0.1038
  381loPI   C2B 6094   8.992   3.696   8.948  0.0557  0.0072  0.0188
  381loPI   C3B 6095   8.723   3.853   8.482 -0.1107 -0.2095 -0.0400
  381loPI   C4B 6096   8.697   3.916   8.059 -0.2599  0.0050 -0.0244
  382loPI    C1 6097  12.494  13.508  10.226  0.0525 -0.1206 -0.0336
  382loPI    C2 6098  12.097  13.525  10.183  0.0610  0.0318 -0.0558
  382loPI    C3 6099  12.260  13.552  10.548  0.0639  0.2485 -0.0717
  382loPI   PO4 6100  12.570  13.383   9.919 -0.2211 -0.3046 -0.1670
  382loPI   GL1 6101  12.868  13.475   9.568  0.1951 -0.0849 -0.3070
  382loPI   GL2 6102  12.671  13.841   9.463  0.1398 -0.3611  0.2050
  382loPI   C1A 6103  12.733  13.447   9.187 -0.1762  0.1310 -0.3590
  382loPI   C2A 6104  12.310  13.410   8.958  0.2313 -0.0333  0.0312
  382loPI   C3A 6105  12.324  13.319   8.496  0.1156  0.0021 -0.1704
  382loPI   C4A 6106  12.566  13.389   8.087  0.1970  0.0082  0.0581
  382loPI   C5A 6107  12.845  13.458   7.810 -0.2719  0.0354 -0.4146
  382loPI   C6A 6108  12.978  13.434   7.409  0.1077  0.0532 -0.2873
  382loPI   C1B 6109  12.702  13.934   9.050  0.1389  0.0718  0.2172
  382loPI   C2B 6110  12.749  13.937   8.511 -0.2664  0.1906  0.2750
  382loPI   C3B 6111  12.788  14.250   8.186 -0.0712 -0.0484  0.0105
  382loPI   C4B 6112  13.126  14.427   7.932 -0.0527 -0.1469 -0.0385
  383loPI    C1 6113   8.674   4.253  10.387 -0.2039 -0.2296  0.3338
  383loPI    C2 6114   9.037   4.174  10.534 -0.0155  0.1294  0.0779
  383loPI    C3 6115   8.814   4.463  10.697 -0.1642 -0.0486  0.1949
  383loPI   PO4 6116   8.728   4.261  10.141  0.0496  0.1635 -0.2796
  383loPI   GL1 6117   8.748   4.064   9.822 -0.1412  0.1740 -0.1937
  383loPI   GL2 6118   8.465   3.871   9.866 -0.1037  0.0700 -0.3058
  383loPI   C1A 6119   8.760   4.178   9.355 -0.1965 -0.1011  0.4292
  383loPI   C2A 6120   8.695   4.215   8.895  0.2089  0.1544 -0.0338
  383loPI   C3A 6121   8.430   4.255   8.429 -0.0439 -0.0131  0.1194
  383loPI   C4A 6122   8.513   4.344   8.050 -0.1649  0.1563  0.0720
  383loPI   C5A 6123   8.600   4.277   7.589 -0.2572  0.0061 -0.0873
  383loPI   C6A 6124   8.423   4.479   7.284 -0.0710  0.1844  0.2017
  383loPI   C1B 6125   8.368   3.719   9.462 -0.3786 -0.0847  0.2311
  383loPI   C2B 6126   8.433   3.707   9.007 -0.3868  0.0219  0.1192
  383loPI   C3B 6127   8.246   3.638   8.585  0.2889  0.2650  0.1000
  383loPI   C4B 6128   8.259   3.550   8.159  0.2859 -0.0593 -0.1045
  384loPI    C1 6129  13.968  17.941  10.940 -0.0257  0.2926  0.0441
  384loPI    C2 6130  14.297  18.116  10.794  0.1206  0.1309  0.1743
  384loPI    C3 6131  14.311  17.927  11.146 -0.0323 -0.1454  0.0354
  384loPI   PO4 6132  13.806  17.955  10.681  0.4868  0.1118 -0.1344
  384loPI   GL1 6133  13.682  18.157  10.274  0.1022  0.5057 -0.1251
  384loPI   GL2 6134  14.040  18.093  10.296  0.1118  0.1109 -0.3409
  384loPI   C1A 6135  13.665  17.988   9.909  0.0001 -0.3293 -0.0200
  384loPI   C2A 6136  13.640  17.918   9.445  0.3880 -0.0476 -0.0500
  384loPI   C3A 6137  13.553  17.952   9.060  0.0887  0.3932  0.0484
  384loPI   C4A 6138  13.430  18.048   8.751  0.2625 -0.1507 -0.1165
  384loPI   C5A 6139  13.304  18.183   8.414 -0.2452  0.0386  0.1171
  384loPI   C6A 6140  13.435  18.334   8.085  0.1795 -0.2871  0.1746
  384loPI   C1B 6141  14.149  18.007   9.899  0.1740  0.0486 -0.0090
  384loPI   C2B 6142  14.137  18.068   9.421 -0.2249 -0.3068 -0.1011
  384loPI   C3B 6143  14.034  18.143   9.080  0.1539  0.3755 -0.0321
  384loPI   C4B 6144  14.060  18.189   8.750 -0.1972  0.1312 -0.2884
  385loPI    C1 6145  12.701   1.467  10.560 -0.2094  0.0441  0.0298
  385loPI    C2 6146  12.628   1.609  10.927 -0.0020  0.0439  0.0721
  385loPI    C3 6147  12.740   1.228  10.879  0.1930  0.1050  0.0313
  385loPI   PO4 6148  12.930   1.567  10.333 -0.1817 -0.1334  0.0396
  385loPI   GL1 6149  13.121   1.254  10.115 -0.0241 -0.0474  0.0134
  385loPI   GL2 6150  13.396   1.147  10.172 -0.4739 -0.0119  0.0466
  385loPI   C1A 6151  13.387   1.355   9.744 -0.2068  0.0197 -0.3658
  385loPI   C2A 6152  13.612   1.593   9.433  0.3397  0.0706 -0.0512
  385loPI   C3A 6153  13.737   1.681   8.992  0.2521 -0.1413  0.0638
  385loPI   C4A 6154  13.516   1.652   8.694  0.0188 -0.1331  0.1509
  385loPI   C5A 6155  13.543   1.690   8.228 -0.1248  0.0525  0.2956
  385loPI   C6A 6156  13.490   1.539   7.916  0.0026  0.2247  0.0149
  385loPI   C1B 6157  13.555   0.855   9.841  0.1662  0.0864 -0.2093
  385loPI   C2B 6158  13.644   0.747   9.449  0.0694  0.4807  0.4799
  385loPI   C3B 6159  13.575   0.643   9.096 -0.3906  0.1457  0.2206
  385loPI   C4B 6160  13.703   0.237   8.831 -0.1835 -0.2123 -0.0001
  386loPI    C1 6161   5.021   9.641  10.340 -0.1109 -0.1081  0.1575
  386loPI    C2 6162   4.771   9.949  10.285 -0.0853 -0.1505 -0.2278
  386loPI    C3 6163   4.943   9.892  10.642 -0.2501  0.1591 -0.0943
  386loPI   PO4 6164   5.049   9.648  10.022  0.1985  0.0996 -0.1215
  386loPI   GL1 6165   5.423   9.662   9.874 -0.1028 -0.0233  0.1725
  386loPI   GL2 6166   5.756   9.510   9.948  0.0695 -0.1301 -0.0915
  386loPI   C1A 6167   5.500   9.560   9.406 -0.0504  0.1421  0.1242
  386loPI   C2A 6168   5.647   9.528   8.857  0.0442 -0.2081 -0.1833
  386loPI   C3A 6169   5.753   9.397   8.499 -0.2772  0.1293  0.2206
  386loPI   C4A 6170   6.122   9.383   8.162  0.0021 -0.0600  0.1176
  386loPI   C5A 6171   6.520   9.158   8.006  0.2416  0.0939 -0.2115
  386loPI   C6A 6172   6.720   8.892   8.075 -0.0146  0.0551  0.1629
  386loPI   C1B 6173   5.945   9.499   9.545 -0.1310 -0.2159 -0.2093
  386loPI   C2B 6174   6.043   9.349   9.174 -0.1479  0.1984  0.1683
  386loPI   C3B 6175   6.185   9.473   8.789  0.2010 -0.0817  0.1832
  386loPI   C4B 6176   6.267   9.713   8.522 -0.3880 -0.2375  0.0804
  387loPI    C1 6177  16.939   3.526  10.127  0.0283  0.1132 -0.0289
  387loPI    C2 6178  17.327   3.542  10.224  0.0028  0.2711  0.0516
  387loPI    C3 6179  17.051   3.491  10.509 -0.0218 -0.0975 -0.0326
  387loPI   PO4 6180  16.958   3.356   9.841 -0.2585  0.3974  0.0828
  387loPI   GL1 6181  16.676   3.244   9.589  0.1086  0.1186  0.1246
  387loPI   GL2 6182  16.436   3.140   9.623  0.0695 -0.1122 -0.1071
  387loPI   C1A 6183  16.899   2.873   9.302 -0.0791  0.0413  0.4250
  387loPI   C2A 6184  16.881   2.581   9.000 -0.3157  0.0863 -0.1380
  387loPI   C3A 6185  16.757   2.562   8.582 -0.1007  0.2497 -0.0706
  387loPI   C4A 6186  16.475   2.478   8.283 -0.1364 -0.0032 -0.2820
  387loPI   C5A 6187  16.461   2.324   7.777 -0.0791  0.0372  0.0615
  387loPI   C6A 6188  16.409   2.372   7.392  0.2501  0.0865 -0.0150
  387loPI   C1B 6189  16.273   3.188   9.227  0.1183  0.0034 -0.2166
  387loPI   C2B 6190  16.228   3.252   8.765  0.0896 -0.0003 -0.0625
  387loPI   C3B 6191  16.015   3.254   8.379  0.1948  0.2610  0.0646
  387loPI   C4B 6192  15.873   3.645   8.227 -0.2769 -0.1980  0.0827
  388loPI    C1 6193   4.162   5.213   9.858  0.1128 -0.3354  0.0573
  388loPI    C2 6194   4.444   5.437   9.685  0.0457 -0.2767  0.0236
  388loPI    C3 6195   4.452   5.377  10.080 -0.1074  0.0379  0.0779
  388loPI   PO4 6196   3.993   5.314   9.598  0.0156  0.1897 -0.5154
  388loPI   GL1 6197   3.574   5.408   9.488  0.1651  0.1194 -0.0960
  388loPI   GL2 6198   3.413   5.703   9.567  0.1525 -0.1795 -0.1021
  388loPI   C1A 6199   3.736   5.638   9.131 -0.1217 -0.1865  0.0362
  388loPI   C2A 6200   3.670   5.734   8.811  0.0016 -0.1097 -0.2936
  388loPI   C3A 6201   3.556   5.715   8.447  0.4121  0.1107  0.0089
  388loPI   C4A 6202   3.615   5.695   7.979 -0.0512  0.0849 -0.1947
  388loPI   C5A 6203   3.579   5.435   7.641 -0.0650 -0.1673  0.3418
  388loPI   C6A 6204   3.485   4.919   7.619  0.0392  0.0544 -0.0033
  388loPI   C1B 6205   3.222   5.586   9.193 -0.0140  0.0489 -0.2433
  388loPI   C2B 6206   3.052   5.674   8.742  0.0418 -0.0289 -0.1333
  388loPI   C3B 6207   2.998   5.661   8.225  0.2440  0.1074 -0.0229
  388loPI   C4B 6208   3.090   5.725   7.807 -0.0098 -0.3953 -0.0323
  389loPI    C1 6209   5.362  11.975   9.980  0.0066  0.2530 -0.0100
  389loPI    C2 6210   5.402  11.993  10.377 -0.1634  0.0336  0.0184
  389loPI    C3 6211   5.685  11.819  10.156 -0.2452 -0.1812  0.0799
  389loPI   PO4 6212   5.245  12.204   9.838  0.0862  0.0370  0.0339
  389loPI   GL1 6213   5.361  12.376   9.362 -0.0656  0.1788 -0.5717
  389loPI   GL2 6214   5.288  12.645   9.207  0.3319  0.1010 -0.1939
  389loPI   C1A 6215   5.036  12.310   9.010 -0.4252 -0.1932 -0.0729
  389loPI   C2A 6216   4.943  12.108   8.556 -0.3268  0.1551 -0.0776
  389loPI   C3A 6217   4.827  11.939   8.162  0.0781 -0.0600  0.1256
  389loPI   C4A 6218   4.802  11.992   7.745 -0.0678 -0.0517 -0.0154
  389loPI   C5A 6219   4.618  11.981   7.297 -0.0776 -0.1022 -0.1288
  389loPI   C6A 6220   4.726  11.634   7.075  0.1205  0.0614 -0.0606
  389loPI   C1B 6221   5.378  12.915   8.776 -0.3403  0.0698  0.0552
  389loPI   C2B 6222   5.661  12.964   8.477 -0.2693 -0.1756 -0.0716
  389loPI   C3B 6223   5.423  12.809   8.183 -0.0863  0.0938 -0.2145
  389loPI   C4B 6224   5.556  12.700   7.750  0.1390 -0.1574  0.2950
  390loPI    C1 6225   9.260   2.336  10.191 -0.0156  0.1588 -0.1550
  390loPI    C2 6226   9.027   2.432  10.502  0.0511  0.1659 -0.1072
  390loPI    C3 6227   9.314   2.156  10.544 -0.1333 -0.0503 -0.2417
  390loPI   PO4 6228   9.124   2.379  10.000  0.1383 -0.4222 -0.0567
  390loPI   GL1 6229   8.915   2.535   9.720 -0.0001  0.3063  0.0352
  390loPI   GL2 6230   8.788   2.850   9.670  0.0934  0.1319  0.0089
  390loPI   C1A 6231   8.563   2.503   9.356  0.0840  0.0780 -0.1029
  390loPI   C2A 6232   8.415   2.733   8.908  0.1096  0.0206 -0.0005
  390loPI   C3A 6233   8.312   2.623   8.585 -0.3316 -0.1782  0.0977
  390loPI   C4A 6234   8.137   2.659   8.173 -0.1530 -0.0480  0.2827
  390loPI   C5A 6235   8.349   2.802   7.756  0.1291  0.1036 -0.0309
  390loPI   C6A 6236   8.306   3.040   7.354 -0.1141 -0.1871 -0.0122
  390loPI   C1B 6237   8.942   2.860   9.258 -0.0398  0.0153 -0.0391
  390loPI   C2B 6238   8.931   2.826   8.826 -0.1990 -0.2694  0.1465
  390loPI   C3B 6239   8.761   2.860   8.428 -0.3686 -0.0572 -0.1484
  390loPI   C4B 6240   8.650   2.577   8.148  0.0554 -0.0236  0.0241
  391loPI    C1 6241   5.788   2.026  10.295 -0.1549 -0.1694  0.1472
  391loPI    C2 6242   5.710   2.412  10.230  0.4128 -0.0755 -0.0258
  391loPI    C3 6243   5.668   2.259  10.597 -0.1723  0.0540 -0.0304
  391loPI   PO4 6244   5.950   1.965  10.103 -0.4467  0.0895 -0.1253
  391loPI   GL1 6245   6.226   2.026   9.737  0.0400  0.0469  0.0392
  391loPI   GL2 6246   6.549   1.884   9.683  0.3442 -0.2163 -0.1108
  391loPI   C1A 6247   6.023   2.198   9.306 -0.2899  0.1255 -0.1419
  391loPI   C2A 6248   5.840   2.277   8.943 -0.1189 -0.4905 -0.0191
  391loPI   C3A 6249   6.147   2.513   8.541 -0.0274 -0.2493 -0.1977
  391loPI   C4A 6250   6.458   2.441   8.245  0.1324 -0.1169 -0.1057
  391loPI   C5A 6251   6.927   2.395   7.979  0.0063  0.0348  0.0785
  391loPI   C6A 6252   7.149   2.606   7.771 -0.1857  0.0614  0.2008
  391loPI   C1B 6253   6.773   2.121   9.481  0.2201 -0.0227  0.1050
  391loPI   C2B 6254   6.849   1.985   9.015  0.0609  0.3067 -0.0169
  391loPI   C3B 6255   6.940   1.932   8.549 -0.1350  0.0922 -0.1499
  391loPI   C4B 6256   6.735   2.012   8.245  0.1293  0.2517 -0.1209
  392loPI    C1 6257  18.079   3.964  10.317  0.1400 -0.0643 -0.2434
  392loPI    C2 6258  18.399   3.727  10.353  0.2736  0.1309 -0.1264
  392loPI    C3 6259  18.302   3.978  10.649 -0.1821 -0.1609 -0.0183
  392loPI   PO4 6260  18.071   3.950  10.048 -0.0512 -0.2546  0.1174
  392loPI   GL1 6261  17.895   3.878   9.720  0.2690  0.0016  0.0995
  392loPI   GL2 6262  17.635   4.075   9.749 -0.1474  0.0309  0.1947
  392loPI   C1A 6263  17.928   3.805   9.290  0.1780 -0.2178 -0.1718
  392loPI   C2A 6264  17.765   3.902   8.933  0.0156  0.0428 -0.0994
  392loPI   C3A 6265  17.895   4.072   8.582  0.0723  0.1143 -0.3207
  392loPI   C4A 6266  18.032   4.099   8.207 -0.2989  0.3097  0.0401
  392loPI   C5A 6267  17.939   4.237   7.726  0.1433 -0.0729 -0.2121
  392loPI   C6A 6268  17.971   4.055   7.296 -0.0951  0.0625 -0.1576
  392loPI   C1B 6269  17.466   4.092   9.335 -0.1613  0.1722  0.3312
  392loPI   C2B 6270  17.318   4.279   9.023  0.3087 -0.2780 -0.1263
  392loPI   C3B 6271  17.403   4.246   8.585 -0.2109 -0.0101  0.1290
  392loPI   C4B 6272  17.663   4.407   8.197 -0.0268  0.0334 -0.3789
  393loPI    C1 6273  11.071  18.507  10.434 -0.0966 -0.0729  0.0607
  393loPI    C2 6274  11.187  18.373  10.793  0.0215  0.1029  0.0898
  393loPI    C3 6275  10.962  18.702  10.766 -0.2893 -0.1103  0.0205
  393loPI   PO4 6276  11.280  18.281  10.319  0.2830 -0.0285  0.0031
  393loPI   GL1 6277  11.245  18.046  10.018  0.2383 -0.1229 -0.0044
  393loPI   GL2 6278  11.438  18.199   9.875 -0.0352 -0.0672  0.0358
  393loPI   C1A 6279  11.384  17.847   9.544 -0.0718 -0.4483 -0.0520
  393loPI   C2A 6280  11.235  17.861   9.134  0.1776  0.3132 -0.4011
  393loPI   C3A 6281  10.957  17.869   8.789 -0.2665  0.1978  0.1136
  393loPI   C4A 6282  11.021  17.920   8.417  0.0363 -0.0521  0.0700
  393loPI   C5A 6283  11.102  17.861   8.039 -0.1124  0.5351  0.2045
  393loPI   C6A 6284  10.877  17.947   7.625  0.0419 -0.0186  0.2241
  393loPI   C1B 6285  11.363  18.345   9.475  0.0794  0.1914  0.0471
  393loPI   C2B 6286  11.403  18.592   9.162  0.0262 -0.0251 -0.2729
  393loPI   C3B 6287  11.316  18.818   8.803 -0.1683  0.1030  0.1032
  393loPI   C4B 6288  11.670  19.065   8.516  0.0585  0.0069 -0.0238
  394loPI    C1 6289   9.921  11.009  10.570  0.1686  0.0136 -0.0473
  394loPI    C2 6290  10.120  10.732  10.778 -0.0451 -0.0210  0.1149
  394loPI    C3 6291   9.735  10.803  10.858 -0.0183  0.2560  0.0088
  394loPI   PO4 6292  10.030  10.937  10.241 -0.1269 -0.1086 -0.0837
  394loPI   GL1 6293   9.996  11.008   9.854 -0.2227 -0.0374  0.1979
  394loPI   GL2 6294   9.847  10.768   9.558  0.1285 -0.0402  0.1527
  394loPI   C1A 6295  10.326  11.057   9.467  0.1197 -0.0903 -0.0205
  394loPI   C2A 6296  10.557  10.736   9.170 -0.1335 -0.4247  0.2533
  394loPI   C3A 6297  10.763  10.742   8.718  0.3431 -0.1365 -0.0959
  394loPI   C4A 6298  10.819  10.646   8.259 -0.0225 -0.1308 -0.2041
  394loPI   C5A 6299  10.597  10.447   7.867  0.0735  0.1542 -0.1159
  394loPI   C6A 6300  10.303  10.650   7.530 -0.0774 -0.0874  0.2240
  394loPI   C1B 6301   9.833  10.948   9.185  0.1371  0.1177  0.3418
  394loPI   C2B 6302   9.737  10.794   8.726  0.0236 -0.2242  0.0876
  394loPI   C3B 6303   9.855  10.900   8.314  0.1164 -0.2556  0.1862
  394loPI   C4B 6304  10.167  10.930   7.962 -0.1600 -0.3828  0.0118
  395loPI    C1 6305  17.070   1.754  10.346  0.2392 -0.0448 -0.0663
  395loPI    C2 6306  17.440   1.722  10.494  0.1573 -0.1496  0.1201
  395loPI    C3 6307  17.138   1.827  10.734  0.0660 -0.0620 -0.0317
  395loPI   PO4 6308  17.061   1.904  10.146 -0.1275 -0.2330 -0.1694
  395loPI   GL1 6309  17.174   1.945   9.658 -0.2434  0.0388  0.0145
  395loPI   GL2 6310  16.852   2.022   9.594  0.1444  0.1767 -0.3799
  395loPI   C1A 6311  17.421   1.942   9.309  0.1191  0.0713 -0.3045
  395loPI   C2A 6312  17.446   1.950   8.915 -0.0652  0.0707 -0.0835
  395loPI   C3A 6313  17.328   1.845   8.474  0.1186  0.1695  0.0146
  395loPI   C4A 6314  16.976   1.625   8.168  0.0500 -0.0996 -0.2908
  395loPI   C5A 6315  16.940   1.388   7.845 -0.2627  0.1388 -0.2254
  395loPI   C6A 6316  16.897   0.943   7.673  0.1593  0.0661  0.2448
  395loPI   C1B 6317  16.638   2.264   9.384  0.1175 -0.1614 -0.0787
  395loPI   C2B 6318  16.495   2.302   8.950 -0.0237  0.0481 -0.0436
  395loPI   C3B 6319  16.471   2.048   8.598 -0.0249  0.2090  0.0693
  395loPI   C4B 6320  16.537   1.642   8.324  0.0741  0.0964 -0.0758
  396loPI    C1 6321   6.828  13.287   9.626 -0.0192  0.1830 -0.0882
  396loPI    C2 6322   6.747  13.624   9.826  0.0849 -0.0835  0.4224
  396loPI    C3 6323   6.662  13.270   9.990  0.3444 -0.3180  0.0650
  396loPI   PO4 6324   6.820  13.355   9.334 -0.2907  0.2489  0.0889
  396loPI   GL1 6325   7.126  13.399   9.170  0.1883 -0.2740  0.1839
  396loPI   GL2 6326   7.008  13.142   8.953 -0.0390 -0.2494  0.1324
  396loPI   C1A 6327   7.275  13.616   8.861 -0.2096  0.0921  0.2093
  396loPI   C2A 6328   7.524  13.872   8.651  0.0752 -0.0603  0.0109
  396loPI   C3A 6329   7.560  13.879   8.202 -0.1271  0.2734 -0.0705
  396loPI   C4A 6330   7.498  13.703   7.868  0.0556 -0.1775 -0.0794
  396loPI   C5A 6331   7.813  13.559   7.586 -0.0008 -0.1388  0.3253
  396loPI   C6A 6332   8.070  13.327   7.218  0.0303  0.1570 -0.1075
  396loPI   C1B 6333   7.121  13.065   8.610 -0.0228  0.1868  0.2540
  396loPI   C2B 6334   6.947  13.125   8.185 -0.1953 -0.1884  0.1539
  396loPI   C3B 6335   6.844  13.131   7.774  0.1433  0.0650  0.2693
  396loPI   C4B 6336   6.782  13.404   7.466 -0.2839 -0.2011 -0.0417
  397loPI    C1 6337  10.077   6.023  10.503 -0.2083 -0.0125 -0.2233
  397loPI    C2 6338  10.136   5.684  10.298 -0.3050 -0.1958  0.0458
  397loPI    C3 6339   9.890   5.687  10.614 -0.1801  0.0883  0.1443
  397loPI   PO4 6340  10.090   6.201  10.291 -0.1869 -0.3464 -0.0813
  397loPI   GL1 6341   9.967   6.105   9.789  0.0219  0.2370  0.0589
  397loPI   GL2 6342   9.669   6.259   9.810 -0.0581  0.1248 -0.2263
  397loPI   C1A 6343  10.153   6.267   9.488  0.3244  0.1551  0.0062
  397loPI   C2A 6344  10.283   6.353   9.081 -0.2223 -0.0043  0.1905
  397loPI   C3A 6345  10.154   6.577   8.594 -0.1631  0.2253 -0.1321
  397loPI   C4A 6346   9.922   6.649   8.311 -0.0194  0.1128 -0.1527
  397loPI   C5A 6347   9.619   6.570   8.145  0.1006  0.1286  0.1269
  397loPI   C6A 6348   9.602   6.701   7.633  0.1451 -0.2415 -0.2662
  397loPI   C1B 6349   9.722   6.474   9.521 -0.3039 -0.2173 -0.0456
  397loPI   C2B 6350   9.822   6.539   9.050  0.1932  0.3780 -0.0611
  397loPI   C3B 6351   9.537   6.521   8.683 -0.1159  0.1953 -0.0850
  397loPI   C4B 6352   9.280   6.801   8.359  0.2640  0.0410 -0.1471
  398loPI    C1 6353  16.484  15.492  10.495  0.1218 -0.1408  0.1192
  398loPI    C2 6354  16.696  15.761  10.289  0.2053 -0.2312  0.0860
  398loPI    C3 6355  16.582  15.840  10.665 -0.1285  0.0230 -0.0636
  398loPI   PO4 6356  16.288  15.451  10.278  0.2155 -0.0078  0.2655
  398loPI   GL1 6357  16.342  15.221   9.876  0.1113  0.0663  0.1654
  398loPI   GL2 6358  16.454  15.327   9.711  0.1694  0.0399  0.3350
  398loPI   C1A 6359  15.956  15.222   9.514 -0.0301  0.0170 -0.1406
  398loPI   C2A 6360  15.912  15.194   9.066  0.1356 -0.1882 -0.0598
  398loPI   C3A 6361  16.022  15.054   8.622  0.0130  0.1685 -0.2424
  398loPI   C4A 6362  16.197  15.102   8.259 -0.2237  0.1949 -0.3376
  398loPI   C5A 6363  16.494  15.349   8.034  0.1094  0.0306  0.0241
  398loPI   C6A 6364  16.534  15.504   7.634 -0.0617  0.1578  0.0420
  398loPI   C1B 6365  16.398  15.115   9.284  0.0416 -0.4033  0.0645
  398loPI   C2B 6366  16.419  15.054   8.912  0.1427 -0.1389  0.2717
  398loPI   C3B 6367  16.531  14.765   8.674 -0.2236  0.1095  0.0371
  398loPI   C4B 6368  16.606  14.662   8.291  0.0816  0.0299  0.0379
  399loPI    C1 6369   0.659  12.398   9.688  0.1018  0.0791 -0.0859
  399loPI    C2 6370   0.775  12.034   9.807 -0.0973 -0.1108 -0.4534
  399loPI    C3 6371   0.500  12.235  10.017  0.1782 -0.0704 -0.1220
  399loPI   PO4 6372   0.624  12.397   9.359 -0.5179 -0.1102 -0.0265
  399loPI   GL1 6373   0.323  12.601   9.091 -0.1916 -0.0441  0.0681
  399loPI   GL2 6374   0.151  12.791   8.887 -0.0920  0.2226  0.1941
  399loPI   C1A 6375   0.617  12.520   8.735 -0.1651  0.1929 -0.1227
  399loPI   C2A 6376   0.566  12.650   8.307 -0.2216  0.4070  0.1273
  399loPI   C3A 6377   0.352  12.887   7.922 -0.2266 -0.1067 -0.1205
  399loPI   C4A 6378   0.067  12.889   7.655  0.0575  0.2875 -0.3050
  399loPI   C5A 6379  -0.058  12.615   7.236 -0.0594  0.0907 -0.0450
  399loPI   C6A 6380  -0.480  12.482   7.124  0.1023 -0.0741 -0.1406
  399loPI   C1B 6381   0.064  12.898   8.500  0.0399  0.3527  0.1463
  399loPI   C2B 6382  -0.142  13.064   8.157  0.0295 -0.2109 -0.0390
  399loPI   C3B 6383  -0.328  13.237   7.775 -0.3608 -0.0515 -0.1822
  399loPI   C4B 6384  -0.288  13.033   7.307  0.3027 -0.1334  0.0366
  400loPI    C1 6385   8.548   9.951  10.186 -0.0947 -0.0230 -0.0061
  400loPI    C2 6386   8.799   9.652  10.100  0.0492 -0.0059  0.3369
  400loPI    C3 6387   8.912  10.031  10.039 -0.0317 -0.0098  0.1550
  400loPI   PO4 6388   8.274   9.925   9.949 -0.0946 -0.1062 -0.2079
  400loPI   GL1 6389   8.062   9.673   9.665 -0.1451  0.1048 -0.3042
  400loPI   GL2 6390   8.113   9.903   9.499 -0.0218  0.0845  0.1497
  400loPI   C1A 6391   8.172   9.605   9.139 -0.0007  0.0744 -0.0200
  400loPI   C2A 6392   8.122   9.734   8.665 -0.1630  0.2015  0.1378
  400loPI   C3A 6393   8.129   9.654   8.260 -0.0027  0.0268  0.1766
  400loPI   C4A 6394   8.198   9.496   7.863  0.1578  0.0554  0.1719
  400loPI   C5A 6395   8.074   9.176   7.533  0.3551  0.0361  0.0452
  400loPI   C6A 6396   8.177   8.846   7.613 -0.0977  0.1946  0.0430
  400loPI   C1B 6397   8.016  10.076   9.140 -0.4889  0.1778  0.2895
  400loPI   C2B 6398   8.070  10.242   8.640  0.1797 -0.0996 -0.3773
  400loPI   C3B 6399   7.904  10.150   8.188 -0.0699  0.0575 -0.2752
  400loPI   C4B 6400   7.732   9.858   8.045 -0.1737 -0.1094  0.3870
  401loPI    C1 6401   4.277  15.193  10.050 -0.0207  0.3502  0.1622
  401loPI    C2 6402   4.116  14.834  10.125 -0.2481  0.3832 -0.1465
  401loPI    C3 6403   4.509  14.891  10.172 -0.1800  0.0404 -0.2747
  401loPI   PO4 6404   4.282  15.283   9.696  0.1475  0.0217  0.0637
  401loPI   GL1 6405   4.478  15.509   9.213  0.2761 -0.0003 -0.0165
  401loPI   GL2 6406   4.353  15.817   9.409 -0.0935 -0.1412  0.1915
  401loPI   C1A 6407   4.354  15.438   8.725  0.1960  0.2971 -0.0435
  401loPI   C2A 6408   4.236  15.517   8.298 -0.0257  0.2119 -0.0358
  401loPI   C3A 6409   3.890  15.587   8.010 -0.0258  0.2016  0.1307
  401loPI   C4A 6410   3.805  15.674   7.738 -0.0359 -0.0634 -0.0494
  401loPI   C5A 6411   3.589  16.129   7.583  0.0408  0.0443 -0.3383
  401loPI   C6A 6412   3.141  16.333   7.380 -0.3080 -0.1698  0.1857
  401loPI   C1B 6413   4.154  15.868   9.019 -0.0707 -0.1510  0.0191
  401loPI   C2B 6414   4.031  15.842   8.666  0.0786 -0.0203  0.2395
  401loPI   C3B 6415   4.115  16.014   8.237 -0.0074 -0.1303 -0.0815
  401loPI   C4B 6416   4.038  16.070   7.841 -0.0960 -0.1944  0.1940
  402loPI    C1 6417   3.648   3.132  10.063 -0.0423  0.1326 -0.1736
  402loPI    C2 6418   3.253   3.148  10.003 -0.0415  0.0418 -0.2031
  402loPI    C3 6419   3.399   3.141  10.375 -0.0635  0.1739 -0.1915
  402loPI   PO4 6420   3.684   2.986   9.858 -0.1803  0.2434 -0.0773
  402loPI   GL1 6421   3.541   3.189   9.522  0.1999 -0.0860  0.0460
  402loPI   GL2 6422   3.658   3.141   9.326  0.0201  0.1464  0.1813
  402loPI   C1A 6423   3.143   3.229   9.202  0.1553  0.0947  0.0891
  402loPI   C2A 6424   2.989   3.345   8.888  0.3292 -0.0961 -0.3458
  402loPI   C3A 6425   2.753   3.412   8.496 -0.0204 -0.1653 -0.0136
  402loPI   C4A 6426   2.806   3.342   8.056 -0.3001 -0.0939  0.1138
  402loPI   C5A 6427   3.098   3.394   7.775 -0.1556  0.0267  0.2212
  402loPI   C6A 6428   3.358   3.208   7.516 -0.1210 -0.2504  0.1758
  402loPI   C1B 6429   3.925   2.931   9.065  0.2235  0.0693  0.4048
  402loPI   C2B 6430   4.124   2.935   8.737 -0.2547 -0.2120 -0.1762
  402loPI   C3B 6431   4.077   2.972   8.332 -0.3885  0.0132  0.2409
  402loPI   C4B 6432   4.041   3.159   7.854 -0.0823 -0.1231 -0.2199
  403loPI    C1 6433  15.645  14.633  10.335  0.2116  0.2241 -0.1213
  403loPI    C2 6434  15.585  14.338  10.598  0.1437  0.1054 -0.2684
  403loPI    C3 6435  15.922  14.348  10.383  0.1786  0.1767 -0.2109
  403loPI   PO4 6436  15.494  14.660  10.182  0.3061  0.0986 -0.1237
  403loPI   GL1 6437  15.195  14.793   9.801  0.1936  0.2819  0.0686
  403loPI   GL2 6438  15.431  14.495   9.692  0.0632  0.2289 -0.0437
  403loPI   C1A 6439  15.019  15.137   9.497 -0.3187 -0.0731  0.0787
  403loPI   C2A 6440  15.128  15.532   9.334  0.0572 -0.0878  0.0935
  403loPI   C3A 6441  14.939  15.795   9.156  0.0699  0.0967 -0.0040
  403loPI   C4A 6442  14.984  16.056   8.738  0.1850  0.2492  0.0182
  403loPI   C5A 6443  15.257  16.326   8.500  0.2637 -0.1528  0.1986
  403loPI   C6A 6444  15.220  16.489   8.056  0.4679 -0.2178  0.1870
  403loPI   C1B 6445  15.299  14.649   9.281  0.3275 -0.0479 -0.0816
  403loPI   C2B 6446  15.040  14.650   8.858 -0.0122 -0.1676  0.2690
  403loPI   C3B 6447  14.883  15.101   8.782 -0.1147  0.3498  0.1349
  403loPI   C4B 6448  14.568  15.133   8.492 -0.3826 -0.0739  0.0011
  404loPI    C1 6449  18.033  11.677   9.770  0.0827  0.0852 -0.0877
  404loPI    C2 6450  17.920  11.728  10.150  0.5636 -0.5233  0.1542
  404loPI    C3 6451  18.218  11.948   9.999  0.0028  0.1212 -0.0652
  404loPI   PO4 6452  17.916  11.424   9.651 -0.2184  0.0405 -0.2561
  404loPI   GL1 6453  17.762  11.522   9.219  0.1189 -0.2331  0.1467
  404loPI   GL2 6454  17.568  11.793   9.132 -0.1112  0.2487 -0.2952
  404loPI   C1A 6455  17.861  11.502   8.746  0.0791 -0.0225  0.0387
  404loPI   C2A 6456  17.784  11.422   8.310 -0.0303  0.0375 -0.0886
  404loPI   C3A 6457  17.475  11.234   8.009  0.0174 -0.0921 -0.2080
  404loPI   C4A 6458  17.284  11.154   7.662 -0.1499  0.2419 -0.2830
  404loPI   C5A 6459  17.186  10.787   7.524  0.0775  0.1420 -0.1282
  404loPI   C6A 6460  17.008  10.603   7.201  0.1653  0.2107  0.0435
  404loPI   C1B 6461  17.436  11.726   8.776 -0.0659  0.0587 -0.4105
  404loPI   C2B 6462  17.339  11.792   8.358  0.3461 -0.0929  0.1629
  404loPI   C3B 6463  17.393  11.667   7.830  0.1563 -0.1818 -0.0571
  404loPI   C4B 6464  17.237  11.660   7.446 -0.0145  0.2220 -0.0663
  405loPI    C1 6465   9.517   3.188  10.241  0.0552 -0.1780 -0.0034
  405loPI    C2 6466   9.512   3.419  10.568  0.0207 -0.0023 -0.1267
  405loPI    C3 6467   9.765   3.110  10.545  0.0855  0.0384  0.0289
  405loPI   PO4 6468   9.357   3.432  10.080  0.1321  0.3295  0.0732
  405loPI   GL1 6469   9.402   3.683   9.710  0.0545 -0.1585 -0.0275
  405loPI   GL2 6470   9.784   3.507   9.730  0.2185 -0.0982 -0.0175
  405loPI   C1A 6471   9.490   3.673   9.251  0.0634 -0.0467  0.0328
  405loPI   C2A 6472   9.455   3.625   8.782  0.2553  0.0626  0.1165
  405loPI   C3A 6473   9.294   3.612   8.475  0.0003  0.0273  0.2526
  405loPI   C4A 6474   9.130   3.808   8.132  0.0380 -0.1723  0.1501
  405loPI   C5A 6475   9.174   4.076   7.731  0.4222  0.0950 -0.0648
  405loPI   C6A 6476   9.069   4.485   7.770  0.0584  0.0206  0.1925
  405loPI   C1B 6477   9.662   3.199   9.366 -0.1941 -0.2930 -0.1303
  405loPI   C2B 6478   9.770   3.201   8.946 -0.0165  0.2746  0.0147
  405loPI   C3B 6479   9.723   3.194   8.532 -0.0134 -0.1048  0.1004
  405loPI   C4B 6480   9.611   2.812   8.206 -0.0248  0.3775 -0.0937
  406loPI    C1 6481  16.939   7.012  10.274  0.2699  0.1577  0.1612
  406loPI    C2 6482  16.657   6.843  10.501  0.2359  0.0037  0.0062
  406loPI    C3 6483  16.573   7.172  10.290  0.1719 -0.0414 -0.0390
  406loPI   PO4 6484  16.975   6.871  10.109  0.2388 -0.1278 -0.0651
  406loPI   GL1 6485  16.885   6.942   9.660  0.0198 -0.1242 -0.1783
  406loPI   GL2 6486  16.622   7.118   9.786 -0.1669  0.1844  0.1009
  406loPI   C1A 6487  16.545   6.763   9.535 -0.0428 -0.0717  0.1265
  406loPI   C2A 6488  16.715   6.395   9.177  0.1330  0.0649 -0.2765
  406loPI   C3A 6489  16.979   6.473   8.914 -0.2902 -0.1435 -0.2065
  406loPI   C4A 6490  17.031   6.223   8.488  0.2929  0.0051 -0.0581
  406loPI   C5A 6491  16.778   6.066   8.204  0.3769  0.0510  0.1129
  406loPI   C6A 6492  16.621   5.869   7.904  0.0599  0.1309  0.1990
  406loPI   C1B 6493  16.419   7.232   9.403 -0.2401 -0.2680  0.0294
  406loPI   C2B 6494  16.263   7.607   9.079  0.1007  0.1958 -0.2027
  406loPI   C3B 6495  16.020   7.686   8.794 -0.1788 -0.0566 -0.1737
  406loPI   C4B 6496  16.103   7.830   8.444  0.1503 -0.1273 -0.0377
  407loPI    C1 6497  14.243  16.061  10.644  0.2653 -0.4118 -0.0683
  407loPI    C2 6498  14.035  15.908  10.949  0.1330 -0.0175  0.0445
  407loPI    C3 6499  14.386  16.087  11.016  0.0979  0.0811 -0.0311
  407loPI   PO4 6500  14.185  15.926  10.429  0.2321 -0.4668 -0.1983
  407loPI   GL1 6501  14.284  15.867   9.978 -0.0599  0.1690 -0.1124
  407loPI   GL2 6502  14.023  16.154   9.909  0.2025 -0.0505  0.0756
  407loPI   C1A 6503  14.339  16.067   9.514  0.2167 -0.0012 -0.0314
  407loPI   C2A 6504  14.542  16.098   9.109  0.1513  0.1225 -0.2114
  407loPI   C3A 6505  14.487  16.063   8.687  0.1211 -0.1230 -0.3453
  407loPI   C4A 6506  14.327  16.488   8.405  0.0431 -0.1854  0.0945
  407loPI   C5A 6507  14.423  16.970   8.200 -0.1035  0.0500  0.2527
  407loPI   C6A 6508  14.303  17.280   7.963 -0.1881 -0.0886 -0.0007
  407loPI   C1B 6509  13.918  16.516   9.635  0.1144 -0.2054  0.0642
  407loPI   C2B 6510  13.757  16.918   9.552  0.0698 -0.0416  0.0692
  407loPI   C3B 6511  13.410  16.976   9.360  0.2066  0.1002  0.1135
  407loPI   C4B 6512  13.336  16.881   8.990  0.1161 -0.2201 -0.0462
  408loPI    C1 6513   3.823  13.551   9.853 -0.1047 -0.1288  0.0585
  408loPI    C2 6514   3.733  13.938   9.812 -0.1896 -0.1729 -0.1894
  408loPI    C3 6515   3.639  13.745  10.149 -0.0630  0.0438 -0.0276
  408loPI   PO4 6516   3.877  13.515   9.589 -0.0854 -0.1579 -0.0875
  408loPI   GL1 6517   3.649  13.368   9.347 -0.2805 -0.1506  0.2762
  408loPI   GL2 6518   3.363  13.603   9.389 -0.0174 -0.2390  0.0736
  408loPI   C1A 6519   3.890  13.190   9.087  0.1619 -0.0493 -0.1310
  408loPI   C2A 6520   4.104  13.164   8.703 -0.2016 -0.1438  0.2842
  408loPI   C3A 6521   3.903  13.262   8.411  0.3170 -0.4508 -0.1494
  408loPI   C4A 6522   3.493  13.354   8.184 -0.2238 -0.1737  0.2514
  408loPI   C5A 6523   3.413  13.220   7.846  0.2859  0.1291 -0.5821
  408loPI   C6A 6524   3.619  13.033   7.608  0.0580 -0.0582 -0.0006
  408loPI   C1B 6525   3.413  13.636   8.956  0.1159 -0.0647  0.2204
  408loPI   C2B 6526   3.522  13.281   8.724 -0.1169  0.4419 -0.0612
  408loPI   C3B 6527   3.210  12.995   8.493  0.0288 -0.0939 -0.6092
  408loPI   C4B 6528   2.953  13.121   8.117  0.3388  0.1097  0.0054
  409loPI    C1 6529   1.261   4.116  10.006  0.1672  0.0253 -0.1634
  409loPI    C2 6530   1.470   3.776  10.024 -0.0124 -0.0670  0.3363
  409loPI    C3 6531   1.658   4.128  10.053  0.1574 -0.1226 -0.0352
  409loPI   PO4 6532   1.072   4.134   9.820  0.2234  0.0158  0.1227
  409loPI   GL1 6533   0.669   4.306   9.657 -0.2057  0.1799 -0.3838
  409loPI   GL2 6534   0.506   4.560   9.630  0.0386  0.0228  0.2668
  409loPI   C1A 6535   0.678   4.276   9.193 -0.1569 -0.2612  0.2878
  409loPI   C2A 6536   0.769   4.131   8.703 -0.2220 -0.0931 -0.0119
  409loPI   C3A 6537   1.078   4.085   8.389  0.1959 -0.0535  0.0648
  409loPI   C4A 6538   1.242   4.150   7.930 -0.2600 -0.0808  0.0558
  409loPI   C5A 6539   1.040   4.314   7.559 -0.2515  0.0602  0.0934
  409loPI   C6A 6540   0.716   4.245   7.214  0.1507  0.0188  0.0575
  409loPI   C1B 6541   0.321   4.633   9.229  0.2638  0.0443  0.1471
  409loPI   C2B 6542   0.561   4.686   8.820  0.0637 -0.1884  0.4213
  409loPI   C3B 6543   0.684   4.549   8.508  0.2146  0.1570  0.1560
  409loPI   C4B 6544   0.839   4.443   8.105  0.1645  0.1400 -0.0587
  410loPI    C1 6545   7.754  13.182   9.775 -0.0395  0.2201 -0.2717
  410loPI    C2 6546   7.984  13.045  10.072 -0.1050  0.0884 -0.2807
  410loPI    C3 6547   7.664  13.270  10.155 -0.0092  0.2198 -0.2644
  410loPI   PO4 6548   7.847  13.095   9.493 -0.0982 -0.0957  0.0522
  410loPI   GL1 6549   8.227  12.993   9.243  0.0438  0.0050  0.2185
  410loPI   GL2 6550   8.547  13.049   9.270  0.2306  0.2238  0.0386
  410loPI   C1A 6551   8.080  13.002   8.778 -0.5856  0.0775 -0.0700
  410loPI   C2A 6552   8.033  13.179   8.324 -0.0795 -0.0056 -0.2959
  410loPI   C3A 6553   7.788  13.143   7.999 -0.0130  0.2119 -0.2074
  410loPI   C4A 6554   7.718  13.041   7.549  0.1880  0.1049  0.1872
  410loPI   C5A 6555   7.616  12.823   7.177 -0.2798  0.1501 -0.1939
  410loPI   C6A 6556   7.700  12.991   6.851  0.0331 -0.0070  0.1926
  410loPI   C1B 6557   8.490  13.264   8.932 -0.1307 -0.0840  0.0883
  410loPI   C2B 6558   8.464  13.369   8.482 -0.0663 -0.1583  0.2502
  410loPI   C3B 6559   8.428  13.247   8.011  0.1564  0.1067 -0.0671
  410loPI   C4B 6560   8.172  13.231   7.731  0.3088  0.0148  0.0348
  411loPI    C1 6561  14.372   5.434  10.022 -0.1075  0.0687  0.0740
  411loPI    C2 6562  14.629   5.690  10.189 -0.0224  0.1205 -0.1329
  411loPI    C3 6563  14.239   5.779  10.174 -0.0187  0.1542 -0.0408
  411loPI   PO4 6564  14.380   5.242  10.129  0.1179 -0.1946  0.0170
  411loPI   GL1 6565  14.519   4.914   9.848 -0.3140 -0.1407  0.1231
  411loPI   GL2 6566  14.266   4.705   9.753 -0.3126 -0.0562 -0.0930
  411loPI   C1A 6567  14.553   5.155   9.353  0.3308 -0.2225 -0.1737
  411loPI   C2A 6568  14.467   5.274   8.890  0.0601 -0.0980  0.5416
  411loPI   C3A 6569  14.580   5.413   8.489  0.2084 -0.3132 -0.0530
  411loPI   C4A 6570  14.787   5.557   8.034  0.3207  0.0302 -0.0692
  411loPI   C5A 6571  15.168   5.361   7.902  0.3917 -0.1458  0.2177
  411loPI   C6A 6572  15.577   5.186   7.849 -0.2407 -0.1928 -0.0509
  411loPI   C1B 6573  14.389   4.678   9.219 -0.3482  0.2420 -0.2088
  411loPI   C2B 6574  14.220   4.693   8.896 -0.2932  0.0432  0.4126
  411loPI   C3B 6575  14.256   4.979   8.472 -0.1390 -0.1989  0.0917
  411loPI   C4B 6576  14.284   5.257   8.040  0.3933 -0.0786 -0.2724
  412loPI    C1 6577   3.602  15.924   9.740  0.0619 -0.0324 -0.1796
  412loPI    C2 6578   3.858  15.877   9.436  0.1707 -0.0170 -0.0909
  412loPI    C3 6579   3.967  15.775   9.807  0.0673  0.0401 -0.0443
  412loPI   PO4 6580   3.377  15.864   9.621 -0.0922  0.0894  0.1039
  412loPI   GL1 6581   3.278  15.718   9.186  0.1322 -0.0725  0.1896
  412loPI   GL2 6582   3.231  15.356   9.027 -0.1616 -0.0528  0.1196
  412loPI   C1A 6583   3.285  16.017   8.881  0.1192 -0.2560 -0.0373
  412loPI   C2A 6584   3.316  16.396   8.635  0.0057  0.2875  0.1248
  412loPI   C3A 6585   3.493  16.454   8.222 -0.0742  0.1980 -0.1100
  412loPI   C4A 6586   3.387  16.580   7.769 -0.0109  0.1658 -0.0619
  412loPI   C5A 6587   3.341  16.987   7.631 -0.3250  0.0009 -0.0566
  412loPI   C6A 6588   3.217  17.212   7.276 -0.3792  0.1436  0.2031
  412loPI   C1B 6589   3.203  14.962   8.803  0.0671 -0.5618 -0.3145
  412loPI   C2B 6590   3.122  14.942   8.450 -0.2528 -0.2838 -0.1148
  412loPI   C3B 6591   2.991  14.727   8.074  0.0252 -0.3591 -0.1445
  412loPI   C4B 6592   3.120  14.789   7.689  0.0328  0.2304 -0.0217
  413loPI    C1 6593   5.603   1.691   9.881 -0.0966 -0.1921 -0.3161
  413loPI    C2 6594   5.251   1.868   9.809 -0.1728 -0.2102 -0.0010
  413loPI    C3 6595   5.330   1.718  10.172  0.2057 -0.1031 -0.0346
  413loPI   PO4 6596   5.610   1.548   9.594  0.0406  0.0787  0.1006
  413loPI   GL1 6597   5.973   1.713   9.400 -0.1428 -0.1281  0.1858
  413loPI   GL2 6598   5.845   1.743   9.084 -0.1108 -0.2935 -0.0482
  413loPI   C1A 6599   6.399   1.642   9.146 -0.0515 -0.0713  0.4236
  413loPI   C2A 6600   6.509   1.428   8.746  0.0424 -0.0012 -0.1695
  413loPI   C3A 6601   6.633   1.575   8.469  0.1186  0.3314  0.0551
  413loPI   C4A 6602   7.063   1.514   8.241  0.1017  0.0053 -0.0027
  413loPI   C5A 6603   7.295   1.363   7.953  0.0859 -0.0262 -0.4045
  413loPI   C6A 6604   7.701   1.263   7.712  0.1163  0.4421 -0.0005
  413loPI   C1B 6605   5.901   1.644   8.604  0.1881  0.0985  0.1712
  413loPI   C2B 6606   6.162   1.500   8.232 -0.2630 -0.0548  0.1198
  413loPI   C3B 6607   6.395   1.739   8.010 -0.0722  0.1088  0.0679
  413loPI   C4B 6608   6.695   1.912   7.751 -0.2281 -0.3554 -0.1944
  414loPI    C1 6609   2.766  13.976  10.189  0.0645  0.0387 -0.0287
  414loPI    C2 6610   2.468  13.995  10.455  0.2018  0.0497  0.1265
  414loPI    C3 6611   2.778  14.245  10.485  0.2124  0.0597 -0.0532
  414loPI   PO4 6612   2.689  13.868   9.882  0.3580 -0.1135 -0.3704
  414loPI   GL1 6613   2.483  14.224   9.490  0.1047 -0.0085 -0.1732
  414loPI   GL2 6614   2.189  14.256   9.376 -0.1177 -0.0861 -0.0813
  414loPI   C1A 6615   2.543  14.215   9.019 -0.0159  0.1310 -0.0231
  414loPI   C2A 6616   2.344  14.204   8.742 -0.1176 -0.0176 -0.1022
  414loPI   C3A 6617   1.952  14.130   8.414  0.2114  0.1625  0.0065
  414loPI   C4A 6618   2.048  13.781   7.982 -0.0670 -0.1107  0.1682
  414loPI   C5A 6619   2.124  13.945   7.569 -0.2471  0.0221 -0.2492
  414loPI   C6A 6620   2.002  14.426   7.338  0.2094  0.2536 -0.0531
  414loPI   C1B 6621   1.920  14.371   9.013  0.1368  0.1287  0.1195
  414loPI   C2B 6622   1.554  14.506   8.667 -0.1690  0.2047  0.0238
  414loPI   C3B 6623   1.490  14.672   8.262 -0.3199 -0.0656 -0.2140
  414loPI   C4B 6624   1.629  14.708   7.858 -0.0844  0.1216  0.0073
  415loPI    C1 6625  10.765  15.543  10.289  0.1285  0.1870 -0.0255
  415loPI    C2 6626  10.760  15.593  10.686  0.1426 -0.2538  0.0348
  415loPI    C3 6627  10.752  15.224  10.530  0.2322 -0.0882 -0.3750
  415loPI   PO4 6628  10.978  15.719  10.253  0.1246  0.3769 -0.0550
  415loPI   GL1 6629  10.892  16.109  10.152 -0.0871  0.1571 -0.4122
  415loPI   GL2 6630  10.714  15.853   9.856  0.0792 -0.0222 -0.1234
  415loPI   C1A 6631  10.953  16.234   9.749 -0.1783  0.2439  0.0002
  415loPI   C2A 6632  11.071  16.207   9.274  0.2323  0.3705  0.0585
  415loPI   C3A 6633  11.176  16.115   8.810 -0.2759 -0.1498 -0.0872
  415loPI   C4A 6634  11.308  16.142   8.376  0.0350  0.3515 -0.1202
  415loPI   C5A 6635  11.096  16.318   8.044  0.1735 -0.1550 -0.0625
  415loPI   C6A 6636  10.804  16.550   7.649 -0.0167  0.2152 -0.0515
  415loPI   C1B 6637  10.735  15.805   9.465  0.1678  0.0625 -0.0172
  415loPI   C2B 6638  10.693  16.001   9.033 -0.0549  0.1065  0.0407
  415loPI   C3B 6639  10.390  16.000   8.646  0.1786  0.0256 -0.0107
  415loPI   C4B 6640  10.373  15.939   8.196 -0.1749 -0.2681  0.0505
  416loPI    C1 6641   1.818   9.897   9.939  0.0243 -0.1171 -0.1410
  416loPI    C2 6642   1.874  10.168  10.228 -0.1921 -0.1010 -0.1124
  416loPI    C3 6643   2.182   9.950  10.095 -0.0684 -0.0251  0.0470
  416loPI   PO4 6644   1.670  10.020   9.766  0.0876 -0.2040  0.1332
  416loPI   GL1 6645   1.557  10.201   9.390  0.2208 -0.2673 -0.0366
  416loPI   GL2 6646   1.742  10.441   9.391  0.0279  0.0263  0.1259
  416loPI   C1A 6647   1.639  10.283   8.883 -0.1114  0.1697  0.0736
  416loPI   C2A 6648   1.690  10.310   8.545 -0.2479 -0.0476 -0.0302
  416loPI   C3A 6649   1.636  10.242   8.064  0.0635 -0.0848  0.0452
  416loPI   C4A 6650   1.737  10.023   7.694 -0.0571  0.1763  0.2254
  416loPI   C5A 6651   1.923  10.192   7.316  0.0182 -0.1040 -0.0555
  416loPI   C6A 6652   2.198  10.020   7.166 -0.0161  0.1393  0.4341
  416loPI   C1B 6653   1.867  10.756   8.991 -0.0528 -0.0752 -0.1378
  416loPI   C2B 6654   1.902  10.823   8.540 -0.0167 -0.0042  0.0640
  416loPI   C3B 6655   1.936  10.664   8.036 -0.3850  0.1076 -0.0205
  416loPI   C4B 6656   1.910  10.533   7.663  0.4366  0.1054 -0.2881
  417loPI    C1 6657   4.786  17.135   9.940  0.2173  0.0616 -0.0394
  417loPI    C2 6658   4.485  17.371  10.058  0.1367  0.0269 -0.1724
  417loPI    C3 6659   4.845  17.404  10.231 -0.0381 -0.1859  0.2484
  417loPI   PO4 6660   4.801  17.223   9.678 -0.2744  0.1628  0.0490
  417loPI   GL1 6661   4.821  17.117   9.289 -0.1219 -0.2064  0.1468
  417loPI   GL2 6662   4.530  17.349   9.231  0.0306  0.1404 -0.0266
  417loPI   C1A 6663   4.844  17.193   8.884  0.2270 -0.0134  0.1824
  417loPI   C2A 6664   4.499  17.259   8.482 -0.1759 -0.0098  0.2298
  417loPI   C3A 6665   4.063  17.316   8.161  0.0614 -0.1593  0.1286
  417loPI   C4A 6666   4.144  17.275   7.669  0.1143 -0.1046  0.0480
  417loPI   C5A 6667   4.266  17.143   7.221  0.0719  0.0895 -0.0761
  417loPI   C6A 6668   4.126  17.092   6.778  0.2201 -0.0920 -0.1500
  417loPI   C1B 6669   4.299  17.420   8.883  0.0105 -0.1850 -0.2366
  417loPI   C2B 6670   3.956  17.340   8.652  0.1356  0.1559  0.1658
  417loPI   C3B 6671   3.566  17.166   8.470  0.1211 -0.0552  0.1632
  417loPI   C4B 6672   3.661  16.892   8.064 -0.0549  0.0454  0.0761
  418loPI    C1 6673   6.213   2.363  10.317  0.0621 -0.0619  0.2177
  418loPI    C2 6674   6.486   2.092  10.208  0.1852  0.0024  0.3632
  418loPI    C3 6675   6.263   2.031  10.534  0.1381  0.0255  0.3353
  418loPI   PO4 6676   6.365   2.650  10.219  0.2407 -0.0519  0.0247
  418loPI   GL1 6677   6.571   2.849   9.837  0.0110  0.0237  0.1575
  418loPI   GL2 6678   6.519   2.445   9.723 -0.0599 -0.1701  0.1576
  418loPI   C1A 6679   6.600   2.996   9.485 -0.2130  0.0428  0.1880
  418loPI   C2A 6680   6.575   2.989   9.022 -0.0105 -0.2070 -0.0124
  418loPI   C3A 6681   6.469   2.906   8.626 -0.0464  0.0233 -0.0423
  418loPI   C4A 6682   6.315   2.972   8.182 -0.0081  0.0202  0.1732
  418loPI   C5A 6683   5.960   3.167   8.026  0.1150 -0.0138  0.0666
  418loPI   C6A 6684   5.726   3.330   8.262 -0.0307  0.2278  0.1671
  418loPI   C1B 6685   6.809   2.598   9.296 -0.3375 -0.0958 -0.1534
  418loPI   C2B 6686   6.823   2.573   8.787 -0.2882 -0.0399 -0.0099
  418loPI   C3B 6687   6.933   2.685   8.360 -0.2150 -0.4265  0.1304
  418loPI   C4B 6688   6.788   2.901   8.010  0.0498  0.4112  0.2913
  419loPI    C1 6689  15.137   9.617   9.755 -0.2031 -0.0968 -0.0076
  419loPI    C2 6690  15.285   9.956   9.908 -0.0284 -0.1816  0.0144
  419loPI    C3 6691  14.904   9.941   9.787 -0.0515  0.0072  0.0596
  419loPI   PO4 6692  15.390   9.480   9.796  0.0682 -0.1783 -0.2451
  419loPI   GL1 6693  15.588   9.076   9.677 -0.0981  0.1581 -0.3932
  419loPI   GL2 6694  15.261   9.033   9.662 -0.0369 -0.2541 -0.1164
  419loPI   C1A 6695  15.591   9.031   9.329 -0.0099 -0.1519  0.3056
  419loPI   C2A 6696  15.479   9.037   8.923 -0.1076 -0.0106  0.2539
  419loPI   C3A 6697  15.331   9.029   8.470  0.1898 -0.0402 -0.2331
  419loPI   C4A 6698  15.408   8.863   8.034  0.1789 -0.2694 -0.0233
  419loPI   C5A 6699  15.287   8.580   7.713  0.0942 -0.1102 -0.0926
  419loPI   C6A 6700  15.358   8.213   7.747  0.1490 -0.0540 -0.1038
  419loPI   C1B 6701  15.091   8.769   9.288 -0.2232  0.1221  0.4491
  419loPI   C2B 6702  15.201   8.358   9.043  0.4025  0.1663 -0.3092
  419loPI   C3B 6703  15.397   8.302   8.657  0.0068  0.0731  0.0432
  419loPI   C4B 6704  15.485   8.403   8.224  0.0480 -0.0858 -0.0783
  420loPI    C1 6705  12.827   6.267  10.153  0.0085  0.1481 -0.0886
  420loPI    C2 6706  13.199   6.138  10.082 -0.0755 -0.1733  0.0360
  420loPI    C3 6707  13.096   6.260  10.449 -0.0792 -0.0307 -0.0116
  420loPI   PO4 6708  12.689   6.096  10.108 -0.1211  0.1353  0.1492
  420loPI   GL1 6709  12.825   6.137   9.657 -0.0458  0.3763  0.1432
  420loPI   GL2 6710  12.625   6.219   9.354 -0.3674 -0.1023  0.2164
  420loPI   C1A 6711  13.056   5.936   9.284 -0.1699 -0.1379  0.1405
  420loPI   C2A 6712  13.075   5.870   8.837 -0.1505 -0.3938 -0.0128
  420loPI   C3A 6713  12.705   5.712   8.434 -0.0575 -0.4027  0.2051
  420loPI   C4A 6714  12.622   5.680   7.962 -0.3314 -0.1008  0.3344
  420loPI   C5A 6715  12.175   5.849   7.791 -0.3083  0.1202 -0.0677
  420loPI   C6A 6716  12.077   5.581   7.447 -0.1066  0.0208 -0.3204
  420loPI   C1B 6717  12.704   6.162   8.982  0.1448 -0.1316 -0.1800
  420loPI   C2B 6718  12.725   6.246   8.534 -0.1609  0.3256 -0.2507
  420loPI   C3B 6719  12.716   6.291   8.096  0.0133 -0.3479 -0.0445
  420loPI   C4B 6720  12.723   6.426   7.747 -0.2079  0.0576 -0.2471
  421loPI    C1 6721   0.404   7.364  10.016  0.3368  0.2020  0.1860
  421loPI    C2 6722   0.034   7.370  10.170  0.1358 -0.4920 -0.2278
  421loPI    C3 6723   0.350   7.431  10.407 -0.2275 -0.0507  0.1621
  421loPI   PO4 6724   0.365   7.414   9.696 -0.0590  0.1016 -0.2480
  421loPI   GL1 6725   0.089   7.365   9.331 -0.0336 -0.1573 -0.2135
  421loPI   GL2 6726  -0.149   7.187   9.314  0.0360  0.1229  0.2205
  421loPI   C1A 6727   0.244   7.616   9.014  0.1242  0.2421  0.1221
  421loPI   C2A 6728   0.055   7.589   8.554  0.0722 -0.1907  0.1878
  421loPI   C3A 6729  -0.101   7.599   8.156  0.0991  0.0150  0.0319
  421loPI   C4A 6730   0.090   7.764   7.847 -0.1752  0.0178  0.3323
  421loPI   C5A 6731   0.590   7.829   7.680  0.1140  0.0632  0.0731
  421loPI   C6A 6732   0.879   8.092   7.455 -0.1273 -0.2100  0.1237
  421loPI   C1B 6733   0.014   7.195   8.891  0.0541  0.2862  0.1743
  421loPI   C2B 6734  -0.080   7.088   8.347  0.0955  0.1748 -0.2691
  421loPI   C3B 6735  -0.096   7.139   7.849  0.0895  0.1459 -0.2008
  421loPI   C4B 6736  -0.224   7.477   7.546 -0.0045  0.0651 -0.3215
  422loPI    C1 6737   4.608   6.841  10.336 -0.1146 -0.2727  0.0368
  422loPI    C2 6738   4.581   7.116  10.625 -0.0109 -0.1317 -0.0862
  422loPI    C3 6739   4.462   6.740  10.695  0.2092 -0.1510  0.2063
  422loPI   PO4 6740   4.504   6.862  10.137 -0.1530  0.0195 -0.1425
  422loPI   GL1 6741   4.365   7.086   9.856  0.3604 -0.0623  0.1801
  422loPI   GL2 6742   4.473   7.441   9.871  0.0329  0.0044  0.3680
  422loPI   C1A 6743   4.232   7.047   9.449 -0.1787  0.1264  0.0570
  422loPI   C2A 6744   4.311   7.090   9.046 -0.1602  0.0958 -0.1386
  422loPI   C3A 6745   4.381   7.068   8.599 -0.3367  0.3296 -0.0705
  422loPI   C4A 6746   4.331   6.991   8.103  0.1926  0.0086 -0.0625
  422loPI   C5A 6747   4.170   7.316   7.785  0.0111  0.0577 -0.2780
  422loPI   C6A 6748   4.052   7.716   7.558  0.0053 -0.0942  0.0838
  422loPI   C1B 6749   4.743   7.189   9.407 -0.0286 -0.1553 -0.3208
  422loPI   C2B 6750   4.816   6.998   9.106 -0.2465  0.2199 -0.0370
  422loPI   C3B 6751   4.754   6.632   8.820 -0.0158 -0.0840 -0.0062
  422loPI   C4B 6752   5.030   6.279   8.691 -0.0895 -0.2912  0.0540
  423loPI    C1 6753  18.212  10.655  10.085  0.0706 -0.0531 -0.3824
  423loPI    C2 6754  18.507  10.657  10.356 -0.1446  0.0080 -0.1443
  423loPI    C3 6755  18.493  10.940  10.073  0.1846 -0.1627 -0.3377
  423loPI   PO4 6756  18.181  10.406   9.921 -0.3030 -0.2626  0.3566
  423loPI   GL1 6757  18.177  10.478   9.448 -0.0516  0.1193 -0.0197
  423loPI   GL2 6758  18.031  10.146   9.495 -0.0899 -0.4820  0.2071
  423loPI   C1A 6759  17.824  10.492   9.189  0.3486 -0.0307  0.1555
  423loPI   C2A 6760  17.463  10.335   8.871 -0.2876  0.0791 -0.3382
  423loPI   C3A 6761  17.549  10.291   8.410  0.0653  0.5379 -0.0594
  423loPI   C4A 6762  17.509  10.198   7.925 -0.0672  0.1647 -0.1338
  423loPI   C5A 6763  17.736  10.378   7.598 -0.1987 -0.0886 -0.0004
  423loPI   C6A 6764  17.953  10.428   7.168 -0.0957 -0.0843 -0.1537
  423loPI   C1B 6765  18.188  10.097   9.090 -0.2958  0.1775  0.0133
  423loPI   C2B 6766  18.458  10.200   8.777  0.1800 -0.3659  0.1676
  423loPI   C3B 6767  18.551   9.903   8.465 -0.2846 -0.0520  0.1683
  423loPI   C4B 6768  18.640   9.811   8.119 -0.0018  0.0887  0.1920
  424loPI    C1 6769  12.192   0.487  10.591 -0.1075 -0.0977 -0.0038
  424loPI    C2 6770  12.037   0.732  10.867  0.0602  0.0712 -0.0576
  424loPI    C3 6771  12.258   0.419  10.980 -0.2170 -0.1018  0.0146
  424loPI   PO4 6772  12.195   0.724  10.326  0.1281  0.4467  0.2333
  424loPI   GL1 6773  12.072   0.795   9.949  0.2235  0.1947  0.2406
  424loPI   GL2 6774  12.347   0.903   9.791 -0.4848 -0.1861  0.0450
  424loPI   C1A 6775  12.124   0.515   9.494 -0.4757  0.0460  0.1915
  424loPI   C2A 6776  12.212   0.345   9.201  0.0087 -0.2314 -0.1967
  424loPI   C3A 6777  12.183   0.329   8.714  0.0412 -0.2276 -0.2890
  424loPI   C4A 6778  12.381   0.536   8.390 -0.0226  0.0637  0.0414
  424loPI   C5A 6779  12.524   0.701   7.977  0.0943  0.1149  0.1832
  424loPI   C6A 6780  12.687   1.038   7.886 -0.0268 -0.3569 -0.1012
  424loPI   C1B 6781  12.146   1.050   9.402  0.1916  0.0990  0.1454
  424loPI   C2B 6782  11.755   1.185   9.112 -0.1569  0.0384 -0.0884
  424loPI   C3B 6783  11.960   1.365   8.834 -0.0004  0.1800 -0.1088
  424loPI   C4B 6784  12.047   1.559   8.457 -0.1193 -0.1642 -0.0978
  425loPI    C1 6785  10.791   8.268  10.115 -0.1452  0.1792 -0.3216
  425loPI    C2 6786  11.061   8.397   9.849 -0.0347  0.1111 -0.2432
  425loPI    C3 6787  11.006   8.597  10.191  0.2595 -0.1394 -0.0441
  425loPI   PO4 6788  10.572   8.142   9.909  0.2252  0.2350 -0.2381
  425loPI   GL1 6789  10.316   8.060   9.586 -0.0242  0.1999 -0.0256
  425loPI   GL2 6790  10.480   7.806   9.466 -0.0395 -0.1206 -0.0408
  425loPI   C1A 6791  10.029   8.246   9.349  0.0526  0.0973  0.0529
  425loPI   C2A 6792   9.905   8.321   8.908  0.1687  0.0026  0.0018
  425loPI   C3A 6793   9.870   8.147   8.601  0.1167  0.0848  0.1657
  425loPI   C4A 6794   9.728   8.032   8.195  0.0364  0.1119 -0.0910
  425loPI   C5A 6795   9.425   8.169   7.944  0.1537  0.3387 -0.2229
  425loPI   C6A 6796   9.033   8.324   7.958 -0.1811  0.0252  0.0741
  425loPI   C1B 6797  10.689   7.770   9.081 -0.3990 -0.1663  0.1448
  425loPI   C2B 6798  10.854   7.691   8.648 -0.0910 -0.0048  0.2163
  425loPI   C3B 6799  10.747   7.406   8.416 -0.0432 -0.1210 -0.1376
  425loPI   C4B 6800  10.958   7.151   8.015 -0.0036  0.0362  0.2632
  426loPI    C1 6801  10.190  16.586  10.013  0.1212  0.1543  0.0006
  426loPI    C2 6802  10.550  16.593   9.839  0.0440 -0.0458 -0.1716
  426loPI    C3 6803  10.516  16.486  10.222  0.1596 -0.1034 -0.1769
  426loPI   PO4 6804  10.053  16.779   9.841  0.2637 -0.3876  0.0889
  426loPI   GL1 6805   9.879  17.136   9.707  0.2150 -0.1387  0.2469
  426loPI   GL2 6806   9.630  17.408   9.658  0.0291  0.3319 -0.1158
  426loPI   C1A 6807   9.752  17.073   9.307  0.0984  0.1077 -0.1422
  426loPI   C2A 6808   9.921  17.274   8.974 -0.3113 -0.2840 -0.0660
  426loPI   C3A 6809   9.724  17.449   8.585 -0.1595 -0.3469 -0.2532
  426loPI   C4A 6810   9.478  17.597   8.299  0.5930  0.1471 -0.0943
  426loPI   C5A 6811   9.155  17.674   7.994  0.1972 -0.0367 -0.1379
  426loPI   C6A 6812   9.279  18.004   7.749 -0.0276  0.1527 -0.0371
  426loPI   C1B 6813   9.835  17.655   9.349 -0.2864  0.2347  0.3330
  426loPI   C2B 6814  10.107  17.998   9.182 -0.4407  0.1050 -0.0203
  426loPI   C3B 6815  10.447  17.995   8.914 -0.0933 -0.1522  0.0307
  426loPI   C4B 6816  10.688  18.263   8.661  0.0179  0.0352 -0.1036
  427loPI    C1 6817   7.619   4.540  10.244 -0.0831 -0.0106  0.0156
  427loPI    C2 6818   7.259   4.531  10.419 -0.0476 -0.2103  0.0808
  427loPI    C3 6819   7.551   4.289  10.548 -0.0231 -0.3674 -0.2576
  427loPI   PO4 6820   7.737   4.781  10.330  0.2027  0.1968  0.1389
  427loPI   GL1 6821   7.849   5.004   9.935  0.1219 -0.1306  0.0748
  427loPI   GL2 6822   7.920   4.618   9.844 -0.1347 -0.2365  0.2738
  427loPI   C1A 6823   7.682   5.217   9.636 -0.0238 -0.0042  0.0168
  427loPI   C2A 6824   7.765   5.249   9.232 -0.2862  0.2184  0.2786
  427loPI   C3A 6825   7.832   5.183   8.858 -0.2768  0.0244 -0.2905
  427loPI   C4A 6826   7.707   4.980   8.434 -0.1143  0.2330  0.0456
  427loPI   C5A 6827   7.495   4.929   8.065  0.1804  0.0478 -0.0403
  427loPI   C6A 6828   7.247   4.523   7.970  0.2169  0.2188 -0.0349
  427loPI   C1B 6829   8.008   4.361   9.556 -0.1030  0.0856 -0.2097
  427loPI   C2B 6830   8.195   4.123   9.244 -0.3281 -0.0750  0.0820
  427loPI   C3B 6831   8.045   4.024   8.869  0.0503  0.0895  0.0560
  427loPI   C4B 6832   7.845   4.105   8.511  0.1641 -0.2437 -0.0319
  428loPI    C1 6833   3.922  17.265   9.893 -0.1385  0.1569 -0.1049
  428loPI    C2 6834   3.732  17.060  10.179 -0.0799 -0.1200 -0.2611
  428loPI    C3 6835   3.941  17.388  10.273 -0.0812 -0.1943  0.0091
  428loPI   PO4 6836   3.803  17.331   9.668  0.1066  0.0432 -0.2083
  428loPI   GL1 6837   3.950  17.215   9.299 -0.0964  0.0851  0.3174
  428loPI   GL2 6838   3.901  17.552   9.280 -0.0761 -0.0875  0.1795
  428loPI   C1A 6839   3.886  16.927   8.881  0.0364  0.3407  0.0441
  428loPI   C2A 6840   4.047  16.931   8.457  0.3048  0.1420 -0.1049
  428loPI   C3A 6841   4.396  16.872   8.116  0.2540  0.0929 -0.2475
  428loPI   C4A 6842   4.414  16.890   7.742 -0.0338 -0.2603 -0.2502
  428loPI   C5A 6843   4.684  17.177   7.474  0.3824  0.0404  0.1183
  428loPI   C6A 6844   4.764  17.582   7.261  0.0169  0.0896 -0.0630
  428loPI   C1B 6845   3.592  17.448   8.941  0.1778  0.1690  0.1863
  428loPI   C2B 6846   3.487  17.637   8.608 -0.1082  0.2100 -0.2562
  428loPI   C3B 6847   3.699  17.723   8.222  0.0951 -0.2771 -0.3000
  428loPI   C4B 6848   3.625  17.387   7.938 -0.2053 -0.0829  0.0158
  429loPI    C1 6849  10.969   3.520  10.078  0.1419  0.0446  0.2872
  429loPI    C2 6850  11.307   3.449   9.875  0.0344 -0.1964  0.1882
  429loPI    C3 6851  11.267   3.786  10.087  0.0949  0.1311 -0.3066
  429loPI   PO4 6852  10.763   3.482   9.856  0.0857  0.0764  0.0834
  429loPI   GL1 6853  10.984   3.517   9.414  0.0686  0.1092  0.1710
  429loPI   GL2 6854  10.642   3.333   9.428  0.1072 -0.0069  0.2238
  429loPI   C1A 6855  11.079   3.439   8.928 -0.1252  0.1590  0.1908
  429loPI   C2A 6856  11.155   3.389   8.549  0.0511 -0.0027  0.1346
  429loPI   C3A 6857  11.048   3.656   8.216 -0.2274 -0.0287 -0.1343
  429loPI   C4A 6858  11.388   3.860   7.970  0.1046 -0.1239  0.1648
  429loPI   C5A 6859  11.210   4.085   7.594 -0.1683  0.0307  0.0004
  429loPI   C6A 6860  11.398   4.363   7.420  0.0340  0.2072  0.0939
  429loPI   C1B 6861  10.655   3.600   9.080  0.0418  0.0569 -0.1429
  429loPI   C2B 6862  10.434   3.612   8.738 -0.4358  0.1265  0.0460
  429loPI   C3B 6863  10.499   3.794   8.296  0.0836  0.0703  0.1402
  429loPI   C4B 6864  10.582   4.207   8.087 -0.2261  0.0930 -0.2080
  430loPI    C1 6865   4.153  12.712   9.982 -0.0411 -0.0352  0.1249
  430loPI    C2 6866   4.163  12.709  10.382 -0.0608  0.2884  0.1301
  430loPI    C3 6867   3.812  12.694  10.190 -0.0387 -0.1877  0.1165
  430loPI   PO4 6868   4.333  12.610   9.912  0.2405 -0.1412  0.1953
  430loPI   GL1 6869   4.422  12.350   9.525  0.2280 -0.1018 -0.2824
  430loPI   GL2 6870   4.454  12.641   9.394  0.2777 -0.1921 -0.0209
  430loPI   C1A 6871   4.523  12.260   9.057 -0.1740 -0.1194 -0.0755
  430loPI   C2A 6872   4.681  12.577   8.646 -0.3484 -0.2735  0.0534
  430loPI   C3A 6873   4.844  12.691   8.334  0.0642 -0.0165 -0.2165
  430loPI   C4A 6874   4.766  12.692   7.935 -0.1750  0.1858 -0.1507
  430loPI   C5A 6875   4.617  12.419   7.631  0.2601 -0.0559  0.2280
  430loPI   C6A 6876   4.229  12.246   7.644  0.2246 -0.3522  0.3550
  430loPI   C1B 6877   4.270  12.702   9.032  0.1634  0.1412 -0.0455
  430loPI   C2B 6878   4.207  12.631   8.557  0.1844 -0.0817 -0.2000
  430loPI   C3B 6879   3.968  12.416   8.265 -0.1842 -0.0445 -0.0420
  430loPI   C4B 6880   3.684  12.265   8.043 -0.0994 -0.0273  0.0530
  431loPI    C1 6881   3.449   9.129   9.994 -0.1221 -0.1235 -0.1504
  431loPI    C2 6882   3.071   9.231  10.078 -0.1392 -0.1938 -0.1406
  431loPI    C3 6883   3.244   8.928  10.273  0.0160  0.0170  0.0547
  431loPI   PO4 6884   3.555   9.062   9.749 -0.1767 -0.1229  0.1383
  431loPI   GL1 6885   4.002   9.102   9.455 -0.0168  0.0357  0.0710
  431loPI   GL2 6886   3.733   8.932   9.346 -0.1933  0.0001 -0.0061
  431loPI   C1A 6887   3.937   9.458   9.225  0.0050  0.3174  0.5128
  431loPI   C2A 6888   3.727   9.418   8.788  0.1405  0.0942  0.0573
  431loPI   C3A 6889   3.787   9.623   8.519  0.2982  0.0530  0.1789
  431loPI   C4A 6890   3.577   9.896   8.193  0.2847  0.0070  0.2887
  431loPI   C5A 6891   3.785  10.051   7.822  0.4554  0.0537 -0.0531
  431loPI   C6A 6892   3.871  10.375   7.507 -0.2693  0.1543 -0.2894
  431loPI   C1B 6893   3.670   8.887   8.946  0.1565  0.1167  0.3066
  431loPI   C2B 6894   3.666   8.900   8.530  0.0397 -0.1264  0.1428
  431loPI   C3B 6895   3.746   9.112   8.256 -0.1215 -0.0364  0.2510
  431loPI   C4B 6896   3.954   9.076   7.802 -0.1715  0.3445  0.3820
  432loPI    C1 6897  11.369   1.623  10.583  0.1544  0.0728  0.0546
  432loPI    C2 6898  11.006   1.554  10.430  0.1420  0.3238 -0.0333
  432loPI    C3 6899  11.238   1.247  10.538 -0.0510  0.1587 -0.0802
  432loPI   PO4 6900  11.518   1.822  10.361  0.2587  0.1301 -0.0697
  432loPI   GL1 6901  11.398   2.021  10.007  0.1678 -0.2198  0.2024
  432loPI   GL2 6902  11.104   2.138   9.693 -0.2068  0.1050  0.1710
  432loPI   C1A 6903  11.599   1.897   9.642  0.4750  0.1931 -0.1852
  432loPI   C2A 6904  12.012   1.760   9.467 -0.1406  0.1875 -0.0934
  432loPI   C3A 6905  11.945   1.764   9.093  0.0223 -0.0276  0.0929
  432loPI   C4A 6906  12.320   1.749   8.839  0.0038 -0.0742  0.0572
  432loPI   C5A 6907  12.726   1.560   8.798 -0.4588  0.1745  0.0770
  432loPI   C6A 6908  13.001   1.780   8.368 -0.0786  0.1312  0.2518
  432loPI   C1B 6909  11.085   2.442   9.283 -0.3600 -0.2663  0.0629
  432loPI   C2B 6910  10.850   2.615   8.956  0.3358  0.1961  0.0915
  432loPI   C3B 6911  10.550   2.727   8.622  0.0242 -0.1176 -0.0022
  432loPI   C4B 6912  10.745   2.784   8.168 -0.1043  0.1580 -0.1521
  433loPI    C1 6913   2.416   5.887   9.737  0.0465  0.0096 -0.0464
  433loPI    C2 6914   2.358   5.791  10.121 -0.2372 -0.0917 -0.1130
  433loPI    C3 6915   2.287   5.521   9.834  0.0108 -0.0286 -0.2357
  433loPI   PO4 6916   2.412   6.213   9.788 -0.1860 -0.0271  0.0757
  433loPI   GL1 6917   2.448   6.605   9.559  0.0021 -0.0172 -0.1849
  433loPI   GL2 6918   2.683   6.655   9.408  0.1041  0.1551  0.1089
  433loPI   C1A 6919   2.213   6.729   9.161 -0.4750  0.0456 -0.2614
  433loPI   C2A 6920   2.097   6.714   8.711 -0.2051 -0.3783 -0.3723
  433loPI   C3A 6921   1.977   7.030   8.433 -0.0893  0.2933 -0.1328
  433loPI   C4A 6922   1.797   6.952   7.996  0.1469  0.0600  0.0573
  433loPI   C5A 6923   1.960   7.133   7.667  0.1093  0.0912 -0.2662
  433loPI   C6A 6924   2.256   6.906   7.463 -0.1414  0.1746 -0.0884
  433loPI   C1B 6925   2.707   6.594   9.030 -0.1465 -0.2176  0.0652
  433loPI   C2B 6926   2.593   6.776   8.787  0.2754 -0.1001  0.1290
  433loPI   C3B 6927   2.493   6.846   8.416  0.2327 -0.1067  0.1920
  433loPI   C4B 6928   2.333   6.935   8.035 -0.0545 -0.1604 -0.1247
  434loPI    C1 6929   0.714   3.235   9.963  0.0125  0.2187 -0.1675
  434loPI    C2 6930   0.421   2.964   9.985  0.1154  0.1045 -0.1941
  434loPI    C3 6931   0.481   3.220  10.287  0.0706  0.0433 -0.1331
  434loPI   PO4 6932   0.643   3.343   9.682  0.2537 -0.1717  0.1531
  434loPI   GL1 6933   0.450   3.132   9.467  0.0206 -0.1219  0.1959
  434loPI   GL2 6934   0.083   3.000   9.447 -0.1073 -0.2541 -0.2131
  434loPI   C1A 6935   0.257   3.362   9.109  0.2031  0.4708  0.0932
  434loPI   C2A 6936   0.278   3.231   8.726 -0.0458  0.0570 -0.0476
  434loPI   C3A 6937   0.495   3.141   8.435  0.3847 -0.1416  0.1412
  434loPI   C4A 6938   0.872   3.357   8.306  0.0950  0.2037 -0.0753
  434loPI   C5A 6939   0.966   3.655   7.988 -0.2701  0.1156 -0.2494
  434loPI   C6A 6940   0.948   3.794   7.609  0.0427  0.2913  0.1616
  434loPI   C1B 6941  -0.166   2.875   9.131  0.2881 -0.1606  0.1641
  434loPI   C2B 6942  -0.190   2.955   8.654 -0.1040  0.0236 -0.1258
  434loPI   C3B 6943  -0.428   2.966   8.247  0.0481  0.0131  0.0422
  434loPI   C4B 6944  -0.767   2.813   7.907  0.0418 -0.0937 -0.3361
  435loPI    C1 6945  14.606   0.489  10.420 -0.1356  0.0827 -0.2633
  435loPI    C2 6946  14.777   0.850  10.404 -0.0927  0.0736 -0.0417
  435loPI    C3 6947  14.615   0.721  10.746  0.1037 -0.2130 -0.0541
  435loPI   PO4 6948  14.232   0.486  10.311 -0.1617  0.0561  0.1079
  435loPI   GL1 6949  13.907   0.472   9.934  0.0013  0.3093  0.1564
  435loPI   GL2 6950  14.083   0.646   9.757  0.0442  0.0286  0.0861
  435loPI   C1A 6951  13.731   0.024   9.784 -0.1456  0.0040  0.2669
  435loPI   C2A 6952  13.678  -0.331   9.462 -0.0979  0.1790  0.0540
  435loPI   C3A 6953  13.642  -0.305   9.014  0.1978  0.2321 -0.1993
  435loPI   C4A 6954  13.616  -0.302   8.676 -0.0467 -0.3984  0.1116
  435loPI   C5A 6955  13.877  -0.191   8.239 -0.2092 -0.1313 -0.1135
  435loPI   C6A 6956  14.260  -0.464   8.143  0.0054 -0.1909 -0.1781
  435loPI   C1B 6957  14.311   0.516   9.497 -0.0108  0.0858 -0.1721
  435loPI   C2B 6958  14.424   0.206   9.148 -0.0700  0.2673 -0.1864
  435loPI   C3B 6959  14.565  -0.176   8.829 -0.4376 -0.2838 -0.0482
  435loPI   C4B 6960  14.633  -0.498   8.542 -0.1490  0.1361 -0.1112
  436loPI    C1 6961  17.723   1.033  10.050  0.2749 -0.1758 -0.0912
  436loPI    C2 6962  17.612   1.197  10.397 -0.2829 -0.3658 -0.1698
  436loPI    C3 6963  17.947   0.979  10.377  0.1961  0.3153  0.0516
  436loPI   PO4 6964  17.651   1.138   9.862  0.1406 -0.0724  0.1867
  436loPI   GL1 6965  17.461   1.474   9.546  0.1391  0.2125 -0.2072
  436loPI   GL2 6966  17.174   1.185   9.650  0.2273 -0.2689  0.0820
  436loPI   C1A 6967  17.579   1.466   9.174 -0.0396 -0.0162 -0.2639
  436loPI   C2A 6968  17.494   1.463   8.794 -0.2543 -0.0815  0.1571
  436loPI   C3A 6969  17.218   1.341   8.622 -0.0390 -0.0283 -0.2570
  436loPI   C4A 6970  17.202   1.214   8.228  0.0606  0.1354  0.2556
  436loPI   C5A 6971  17.328   1.106   7.779  0.1991  0.0140  0.0043
  436loPI   C6A 6972  17.234   1.170   7.356 -0.3916  0.1287 -0.0090
  436loPI   C1B 6973  17.160   1.194   9.118 -0.0701  0.2594 -0.0313
  436loPI   C2B 6974  16.973   0.926   8.731 -0.1617  0.2646  0.0307
  436loPI   C3B 6975  16.848   0.637   8.327  0.1911  0.0927  0.0727
  436loPI   C4B 6976  16.976   0.201   8.162  0.4301 -0.3427  0.0456
  437loPI    C1 6977   7.888   1.011  10.321  0.2053  0.0877 -0.1861
  437loPI    C2 6978   8.005   1.394  10.320  0.0819  0.1270  0.0013
  437loPI    C3 6979   7.973   1.195  10.666  0.2208 -0.0769 -0.1011
  437loPI   PO4 6980   7.848   0.971  10.048  0.1174 -0.1226  0.1934
  437loPI   GL1 6981   8.058   0.862   9.629  0.0802 -0.2559  0.1936
  437loPI   GL2 6982   8.212   1.177   9.471  0.2735  0.0084 -0.2674
  437loPI   C1A 6983   7.853   0.925   9.249 -0.0301  0.1424  0.1907
  437loPI   C2A 6984   7.952   1.054   8.817  0.1563 -0.0610 -0.2605
  437loPI   C3A 6985   7.910   0.891   8.478 -0.0616 -0.1362  0.0382
  437loPI   C4A 6986   7.836   0.710   8.108  0.0964 -0.0413 -0.1365
  437loPI   C5A 6987   7.485   0.635   7.851 -0.0166  0.2635 -0.0319
  437loPI   C6A 6988   7.483   0.421   7.457 -0.3490  0.4594  0.0164
  437loPI   C1B 6989   8.601   1.253   9.320 -0.0121 -0.1105  0.2356
  437loPI   C2B 6990   8.744   1.338   8.931  0.0179 -0.1052  0.3698
  437loPI   C3B 6991   8.877   1.363   8.561 -0.1999  0.0299  0.0115
  437loPI   C4B 6992   9.080   1.194   8.224  0.1982  0.1051  0.1637
  438loPI    C1 6993   3.127  15.421   9.593  0.0026  0.0332  0.0371
  438loPI    C2 6994   2.961  15.667   9.862  0.1020 -0.0604  0.1851
  438loPI    C3 6995   3.293  15.464   9.954  0.4003  0.2534 -0.1652
  438loPI   PO4 6996   2.933  15.321   9.478  0.0819  0.0639 -0.0088
  438loPI   GL1 6997   2.813  15.167   9.120 -0.0091 -0.0427 -0.0530
  438loPI   GL2 6998   2.552  14.985   8.869  0.0223 -0.2860  0.4931
  438loPI   C1A 6999   2.828  15.314   8.626 -0.0333  0.0556 -0.1239
  438loPI   C2A 7000   2.675  15.178   8.228  0.1951 -0.0035 -0.0918
  438loPI   C3A 7001   2.507  14.856   8.054  0.1230 -0.0588  0.0418
  438loPI   C4A 7002   2.576  14.532   7.818  0.1371 -0.1818 -0.0205
  438loPI   C5A 7003   2.911  14.323   7.716  0.2656  0.0512 -0.0827
  438loPI   C6A 7004   3.247  14.072   7.527 -0.2618 -0.0290 -0.0444
  438loPI   C1B 7005   2.654  14.814   8.605 -0.6392  0.1483 -0.0991
  438loPI   C2B 7006   2.553  14.394   8.342  0.0400  0.0015  0.2779
  438loPI   C3B 7007   2.438  14.101   7.971 -0.0501  0.2046  0.0813
  438loPI   C4B 7008   2.525  13.633   7.975  0.0767 -0.1837 -0.0265
  439loPI    C1 7009  17.640  13.367  10.384  0.1414  0.0486  0.2021
  439loPI    C2 7010  17.534  13.749  10.435  0.2465  0.1213 -0.1024
  439loPI    C3 7011  17.867  13.609  10.607  0.0988  0.1093  0.1795
  439loPI   PO4 7012  17.731  13.384  10.075 -0.1614 -0.1579 -0.1411
  439loPI   GL1 7013  17.680  13.216   9.686 -0.1293  0.2793 -0.2126
  439loPI   GL2 7014  17.868  13.021   9.477  0.0269 -0.2982 -0.1389
  439loPI   C1A 7015  17.661  13.410   9.245  0.1080  0.0302  0.1295
  439loPI   C2A 7016  17.556  13.278   8.934 -0.1943 -0.1661 -0.1733
  439loPI   C3A 7017  17.658  13.210   8.390 -0.1347  0.2003 -0.2385
  439loPI   C4A 7018  17.517  13.401   8.001 -0.5180 -0.4104  0.0616
  439loPI   C5A 7019  17.240  13.668   7.904 -0.4541  0.0316  0.2251
  439loPI   C6A 7020  16.847  13.520   7.773  0.0410  0.1000  0.3299
  439loPI   C1B 7021  17.995  13.064   9.131  0.1113 -0.1046  0.0070
  439loPI   C2B 7022  18.041  13.062   8.729 -0.2009  0.2580  0.1718
  439loPI   C3B 7023  18.093  13.076   8.285  0.2275 -0.2071 -0.0560
  439loPI   C4B 7024  17.804  12.965   8.015 -0.4389  0.0977 -0.0617
  440loPI    C1 7025   1.821   1.708   9.782  0.0885  0.1597 -0.2190
  440loPI    C2 7026   2.066   1.928  10.009  0.1502 -0.0115 -0.1174
  440loPI    C3 7027   2.164   1.552   9.916 -0.0179 -0.0415 -0.1771
  440loPI   PO4 7028   1.690   1.963   9.535 -0.2591  0.1614 -0.0347
  440loPI   GL1 7029   1.996   2.066   9.173  0.2339 -0.2026  0.0514
  440loPI   GL2 7030   2.112   2.008   8.817  0.3208 -0.1954  0.0453
  440loPI   C1A 7031   1.578   2.038   8.930  0.1094  0.1932  0.0904
  440loPI   C2A 7032   1.611   1.931   8.478 -0.0614  0.0831 -0.2255
  440loPI   C3A 7033   1.600   1.742   8.060  0.1121 -0.0529 -0.3637
  440loPI   C4A 7034   1.748   1.396   7.832  0.0038  0.0666  0.3788
  440loPI   C5A 7035   2.002   1.082   7.712 -0.1640  0.1154 -0.0817
  440loPI   C6A 7036   1.972   0.679   7.524  0.0589 -0.0693 -0.3327
  440loPI   C1B 7037   2.161   1.957   8.386 -0.0604  0.0256  0.1048
  440loPI   C2B 7038   2.080   1.916   8.029  0.1976  0.2087 -0.2265
  440loPI   C3B 7039   1.945   2.134   7.627 -0.0081 -0.2429  0.0834
  440loPI   C4B 7040   1.838   2.152   7.195  0.0630  0.0958 -0.0806
  441loPI    C1 7041  16.156   1.209  10.477 -0.0434 -0.1559 -0.2862
  441loPI    C2 7042  16.107   1.284  10.867  0.2552 -0.0698 -0.2630
  441loPI    C3 7043  15.952   0.952  10.706  0.0051 -0.0332 -0.1033
  441loPI   PO4 7044  16.188   1.441  10.327  0.2091 -0.0494  0.0204
  441loPI   GL1 7045  16.147   1.196   9.922 -0.1559 -0.0580 -0.0194
  441loPI   GL2 7046  15.802   1.412   9.944  0.0599  0.3195  0.0977
  441loPI   C1A 7047  16.104   1.098   9.481  0.4793  0.2100 -0.2351
  441loPI   C2A 7048  16.010   1.187   9.113  0.0270 -0.2228  0.2441
  441loPI   C3A 7049  16.101   1.380   8.768  0.1583  0.1228 -0.0946
  441loPI   C4A 7050  15.997   1.667   8.477 -0.1245  0.0537 -0.2868
  441loPI   C5A 7051  15.720   1.898   8.155 -0.1637 -0.2133 -0.1689
  441loPI   C6A 7052  15.579   2.138   7.772 -0.1534 -0.2803  0.1411
  441loPI   C1B 7053  15.834   1.526   9.482  0.0034 -0.3102  0.0829
  441loPI   C2B 7054  15.794   1.679   9.074  0.2058  0.1352 -0.1184
  441loPI   C3B 7055  15.651   1.932   8.641 -0.1829 -0.0286 -0.2350
  441loPI   C4B 7056  15.540   2.372   8.258 -0.0570 -0.0095  0.1967
  442loPI    C1 7057  14.522   4.394  10.725 -0.1572  0.0175  0.0103
  442loPI    C2 7058  14.825   4.633  10.618 -0.0268 -0.1253  0.0565
  442loPI    C3 7059  14.496   4.788  10.784 -0.0453  0.0484 -0.1397
  442loPI   PO4 7060  14.530   4.224  10.447 -0.0960  0.0692  0.2298
  442loPI   GL1 7061  14.539   4.314  10.061 -0.0281  0.1689 -0.2241
  442loPI   GL2 7062  14.687   3.998   9.904  0.1023 -0.2559  0.1252
  442loPI   C1A 7063  14.442   4.274   9.599  0.1427 -0.3379 -0.3518
  442loPI   C2A 7064  14.333   4.133   9.218 -0.0178  0.0987 -0.0240
  442loPI   C3A 7065  14.060   4.146   8.773  0.0773  0.1792 -0.0565
  442loPI   C4A 7066  14.264   3.823   8.402  0.1010  0.1078 -0.1261
  442loPI   C5A 7067  14.344   3.693   7.983 -0.4073  0.0374  0.0046
  442loPI   C6A 7068  14.568   3.695   7.597  0.2664 -0.1192  0.1205
  442loPI   C1B 7069  15.030   3.995   9.703 -0.4599  0.2635  0.0152
  442loPI   C2B 7070  15.396   4.174   9.563 -0.0490 -0.1665 -0.0287
  442loPI   C3B 7071  15.697   4.345   9.250  0.1326  0.0091 -0.0681
  442loPI   C4B 7072  15.701   4.181   8.942  0.0775  0.2986  0.4392
  443loPI    C1 7073   9.645   1.462  10.334 -0.2412  0.0317 -0.2271
  443loPI    C2 7074   9.356   1.685  10.498 -0.2250 -0.0999 -0.0165
  443loPI    C3 7075   9.655   1.547  10.724 -0.0700 -0.0797 -0.2065
  443loPI   PO4 7076   9.674   1.513  10.103  0.6587  0.0331 -0.1968
  443loPI   GL1 7077   9.671   1.402   9.732 -0.0301  0.4698 -0.0811
  443loPI   GL2 7078   9.377   1.239   9.742  0.0314  0.0837  0.2858
  443loPI   C1A 7079   9.660   1.527   9.316 -0.0280  0.0954 -0.0573
  443loPI   C2A 7080   9.674   1.667   8.901  0.0905 -0.2468  0.1742
  443loPI   C3A 7081   9.731   1.801   8.447  0.1505  0.1542  0.0246
  443loPI   C4A 7082   9.792   1.855   7.978  0.0662 -0.0790 -0.0217
  443loPI   C5A 7083   9.948   1.992   7.651  0.1168  0.4651  0.2633
  443loPI   C6A 7084   9.832   2.258   7.452  0.0120 -0.1364 -0.2465
  443loPI   C1B 7085   9.166   1.367   9.311 -0.1004  0.1270 -0.0497
  443loPI   C2B 7086   9.257   1.397   8.870 -0.1954 -0.3336  0.0163
  443loPI   C3B 7087   9.447   1.320   8.483 -0.1128  0.1152 -0.0665
  443loPI   C4B 7088   9.702   1.366   8.113 -0.1018  0.2162 -0.1950
  444loPI    C1 7089   5.688  14.139   9.650 -0.0424 -0.0508 -0.0688
  444loPI    C2 7090   5.570  14.025  10.014  0.2190 -0.2880 -0.0553
  444loPI    C3 7091   5.734  14.386   9.961 -0.0441 -0.1556  0.0150
  444loPI   PO4 7092   5.521  13.997   9.547 -0.1618 -0.1415  0.0138
  444loPI   GL1 7093   5.191  14.026   9.241 -0.1107  0.1832 -0.1574
  444loPI   GL2 7094   5.049  14.199   8.983 -0.0876 -0.2356  0.0527
  444loPI   C1A 7095   5.237  13.796   8.851 -0.2786  0.3180  0.3204
  444loPI   C2A 7096   5.369  13.526   8.581 -0.2983  0.1553 -0.2086
  444loPI   C3A 7097   5.252  13.262   8.283  0.1338  0.2261 -0.0160
  444loPI   C4A 7098   4.823  13.165   8.141 -0.4743  0.2572  0.2713
  444loPI   C5A 7099   4.524  13.145   7.761 -0.1087  0.2073  0.1137
  444loPI   C6A 7100   4.573  12.869   7.432 -0.1142 -0.1288  0.0326
  444loPI   C1B 7101   4.781  13.964   8.709  0.0054  0.0100  0.0221
  444loPI   C2B 7102   4.573  13.911   8.286  0.1868  0.0892 -0.1607
  444loPI   C3B 7103   4.708  13.606   7.986  0.0870 -0.1403 -0.2003
  444loPI   C4B 7104   4.860  13.440   7.532  0.0420  0.0111 -0.2426
  445loPI    C1 7105   4.969  18.744  10.060  0.1174  0.1219 -0.1334
  445loPI    C2 7106   4.782  18.588  10.377  0.3808 -0.2635 -0.1605
  445loPI    C3 7107   4.899  18.971  10.383  0.1069 -0.1789  0.0796
  445loPI   PO4 7108   4.920  18.583   9.868 -0.1244  0.1150  0.2989
  445loPI   GL1 7109   4.935  18.500   9.509  0.2166  0.2284 -0.0500
  445loPI   GL2 7110   4.995  18.220   9.352  0.0056 -0.2062 -0.1426
  445loPI   C1A 7111   4.934  18.847   9.232 -0.0455  0.3891  0.1889
  445loPI   C2A 7112   4.917  19.264   8.916 -0.0956  0.0604 -0.0118
  445loPI   C3A 7113   5.075  19.297   8.530  0.0152  0.2151  0.3955
  445loPI   C4A 7114   5.135  19.294   8.081  0.4096  0.1327 -0.1068
  445loPI   C5A 7115   5.475  19.014   7.612  0.1219  0.1701  0.2707
  445loPI   C6A 7116   5.651  19.136   7.237 -0.0929  0.0200  0.1742
  445loPI   C1B 7117   4.950  18.429   8.949 -0.1304 -0.2206  0.2891
  445loPI   C2B 7118   4.821  18.480   8.510 -0.2570 -0.1012  0.0694
  445loPI   C3B 7119   4.900  18.619   8.089  0.3418  0.0233 -0.2078
  445loPI   C4B 7120   5.029  18.883   7.733 -0.0399 -0.0353  0.0270
  446loPI    C1 7121   1.079  16.614  10.379  0.0917 -0.0842  0.0104
  446loPI    C2 7122   0.796  16.717  10.643  0.2073 -0.3238  0.2315
  446loPI    C3 7123   1.002  16.377  10.692  0.5017 -0.1762  0.0468
  446loPI   PO4 7124   0.955  16.695  10.074  0.4262  0.2893  0.2250
  446loPI   GL1 7125   1.036  16.502   9.644  0.1422 -0.0421  0.0561
  446loPI   GL2 7126   0.804  16.265   9.470  0.0293  0.0586  0.0864
  446loPI   C1A 7127   0.994  16.856   9.399 -0.2342  0.0569 -0.0577
  446loPI   C2A 7128   1.069  16.979   9.069 -0.4646  0.2472 -0.1963
  446loPI   C3A 7129   1.172  17.112   8.667  0.3576 -0.1217  0.1415
  446loPI   C4A 7130   1.239  17.117   8.250 -0.0617 -0.2781 -0.2214
  446loPI   C5A 7131   1.202  16.928   7.899  0.0373  0.0968 -0.2123
  446loPI   C6A 7132   1.090  16.613   7.602  0.0898  0.0564 -0.0163
  446loPI   C1B 7133   0.827  16.456   9.106 -0.0549  0.0061 -0.2252
  446loPI   C2B 7134   0.871  16.719   8.709 -0.0463 -0.1903 -0.1055
  446loPI   C3B 7135   0.872  16.739   8.296  0.0203 -0.0691  0.3585
  446loPI   C4B 7136   0.696  16.926   7.951 -0.0269 -0.0111  0.0386
  447loPI    C1 7137  11.896  10.879   9.966  0.0884 -0.0865  0.1222
  447loPI    C2 7138  12.181  10.739   9.723 -0.0042 -0.0704  0.0036
  447loPI    C3 7139  12.015  10.498   9.995  0.1583 -0.0659  0.1082
  447loPI   PO4 7140  11.723  11.101   9.767 -0.4750  0.0853 -0.0284
  447loPI   GL1 7141  11.896  11.229   9.352 -0.4076 -0.0563  0.4385
  447loPI   GL2 7142  11.654  11.367   9.212  0.0968  0.2165  0.0105
  447loPI   C1A 7143  12.086  11.384   8.912 -0.0985 -0.1175  0.3122
  447loPI   C2A 7144  12.291  11.559   8.635  0.0943  0.0148 -0.2136
  447loPI   C3A 7145  12.652  11.564   8.359  0.1879  0.1700 -0.2207
  447loPI   C4A 7146  12.663  11.606   7.957 -0.0490 -0.1567  0.0158
  447loPI   C5A 7147  12.599  11.921   7.621  0.0235  0.1532  0.1672
  447loPI   C6A 7148  12.792  12.307   7.548 -0.0101  0.1990 -0.0718
  447loPI   C1B 7149  11.487  11.274   8.810  0.0215  0.1938 -0.0807
  447loPI   C2B 7150  11.504  11.222   8.324 -0.1973 -0.0283  0.1577
  447loPI   C3B 7151  11.802  11.336   7.944  0.0859 -0.0662 -0.3202
  447loPI   C4B 7152  11.919  11.408   7.538  0.0076  0.0421  0.2373
  448loPI    C1 7153   1.041  12.865  10.048 -0.1214 -0.0289  0.0441
  448loPI    C2 7154   1.408  12.731  10.135 -0.0360  0.1065 -0.1023
  448loPI    C3 7155   1.206  12.950  10.402 -0.1280 -0.2082  0.0911
  448loPI   PO4 7156   1.059  12.666   9.804  0.1005  0.0363  0.0120
  448loPI   GL1 7157   1.102  12.731   9.398 -0.2812  0.0653  0.2497
  448loPI   GL2 7158   0.830  12.746   9.108 -0.0335 -0.0225  0.1586
  448loPI   C1A 7159   1.362  12.842   9.024 -0.0612  0.1256  0.6776
  448loPI   C2A 7160   1.534  12.669   8.754  0.1037 -0.1039  0.1983
  448loPI   C3A 7161   1.715  12.712   8.354  0.0109 -0.2787  0.1261
  448loPI   C4A 7162   1.536  12.747   7.882 -0.3448 -0.0625  0.0965
  448loPI   C5A 7163   1.281  12.893   7.555 -0.0915  0.2460  0.0786
  448loPI   C6A 7164   1.007  13.228   7.381  0.0160 -0.0281 -0.1449
  448loPI   C1B 7165   0.642  13.048   8.871 -0.3220 -0.0487 -0.0820
  448loPI   C2B 7166   0.631  13.135   8.404 -0.0852  0.1597 -0.1026
  448loPI   C3B 7167   0.513  13.303   7.983  0.0437 -0.4744 -0.0579
  448loPI   C4B 7168   0.595  13.571   7.596 -0.2437  0.1641 -0.2546
  449loPI    C1 7169   2.433   3.279  10.124  0.0278  0.1636  0.0210
  449loPI    C2 7170   2.417   2.896  10.239 -0.0781  0.1247 -0.1211
  449loPI    C3 7171   2.409   3.188  10.513  0.1023  0.0238 -0.0065
  449loPI   PO4 7172   2.664   3.241  10.015  0.1635 -0.0769  0.0634
  449loPI   GL1 7173   2.860   3.136   9.633  0.0350 -0.2284  0.1958
  449loPI   GL2 7174   2.899   3.491   9.634  0.2014  0.0733  0.0933
  449loPI   C1A 7175   2.564   3.159   9.280  0.2273  0.1999 -0.1844
  449loPI   C2A 7176   2.443   3.298   8.933 -0.0692  0.0753 -0.1315
  449loPI   C3A 7177   2.186   3.282   8.582 -0.0142 -0.0250  0.1604
  449loPI   C4A 7178   2.345   3.417   8.210  0.1775 -0.1290  0.0422
  449loPI   C5A 7179   2.227   3.420   7.779 -0.0302 -0.0893  0.1488
  449loPI   C6A 7180   2.040   3.704   7.695 -0.1830 -0.2600 -0.1140
  449loPI   C1B 7181   2.758   3.625   9.265 -0.1802 -0.1635  0.0963
  449loPI   C2B 7182   2.702   3.746   8.823 -0.0076  0.1734  0.1436
  449loPI   C3B 7183   2.245   3.760   8.671 -0.1417 -0.1130  0.3347
  449loPI   C4B 7184   1.967   3.828   8.423  0.1443  0.1783  0.0679
  450loPI    C1 7185  14.540  14.815  10.388  0.1913  0.0182 -0.3091
  450loPI    C2 7186  14.496  14.498  10.148  0.1547 -0.3503  0.1670
  450loPI    C3 7187  14.349  14.489  10.519  0.2067  0.2087  0.2104
  450loPI   PO4 7188  14.573  15.048  10.196 -0.0145  0.0276 -0.4174
  450loPI   GL1 7189  14.827  15.140   9.887  0.0921 -0.3498 -0.1705
  450loPI   GL2 7190  14.836  15.427   9.954 -0.1665 -0.1695 -0.0343
  450loPI   C1A 7191  14.525  15.010   9.583  0.0810 -0.1755 -0.0260
  450loPI   C2A 7192  14.206  15.223   9.372  0.0306  0.0341 -0.0106
  450loPI   C3A 7193  14.048  15.612   9.265  0.1696  0.1053  0.0412
  450loPI   C4A 7194  14.079  15.859   9.028  0.1523 -0.1579 -0.0908
  450loPI   C5A 7195  14.164  15.628   8.619 -0.1293 -0.1544 -0.1037
  450loPI   C6A 7196  14.426  15.504   8.223 -0.1398 -0.3427 -0.1777
  450loPI   C1B 7197  14.642  15.591   9.557 -0.0398  0.2674 -0.2304
  450loPI   C2B 7198  14.582  15.405   9.056 -0.0265 -0.1814 -0.0642
  450loPI   C3B 7199  14.644  15.603   8.680 -0.0991 -0.3705 -0.1790
  450loPI   C4B 7200  14.960  15.433   8.285 -0.0063  0.0784  0.1450
  451loPI    C1 7201   6.129   3.715  10.087  0.1111 -0.0127  0.0900
  451loPI    C2 7202   5.962   3.505  10.384 -0.1432 -0.2176 -0.1918
  451loPI    C3 7203   5.748   3.781  10.189  0.0267 -0.0737 -0.1774
  451loPI   PO4 7204   6.357   3.793  10.122  0.1095  0.0331  0.2587
  451loPI   GL1 7205   6.524   4.045   9.854 -0.1268 -0.0613  0.2353
  451loPI   GL2 7206   6.762   4.002   9.774  0.1586 -0.0587  0.2366
  451loPI   C1A 7207   6.216   3.944   9.505  0.0038 -0.2480  0.1023
  451loPI   C2A 7208   6.265   3.823   9.064 -0.0324  0.0530 -0.1845
  451loPI   C3A 7209   6.281   3.900   8.645 -0.1046 -0.4074 -0.1320
  451loPI   C4A 7210   6.198   4.121   8.285 -0.0129  0.2016 -0.1025
  451loPI   C5A 7211   6.203   4.166   7.821 -0.0795 -0.1977 -0.4177
  451loPI   C6A 7212   6.421   4.426   7.711 -0.0961 -0.1940  0.2433
  451loPI   C1B 7213   6.699   3.886   9.425 -0.3251  0.3071 -0.1313
  451loPI   C2B 7214   6.760   3.840   8.958 -0.2626  0.3570 -0.0307
  451loPI   C3B 7215   6.765   3.769   8.543 -0.1908 -0.1167 -0.1181
  451loPI   C4B 7216   6.693   3.306   8.335 -0.2839  0.3215  0.1436
  452loPI    C1 7217   6.006   6.136  10.453  0.0502  0.4640  0.0963
  452loPI    C2 7218   6.299   5.927  10.628 -0.0864  0.0169 -0.1919
  452loPI    C3 7219   5.924   5.897  10.763 -0.0693  0.2744 -0.0797
  452loPI   PO4 7220   6.054   6.063  10.233 -0.4050  0.0522 -0.1798
  452loPI   GL1 7221   5.932   6.083   9.791 -0.2211 -0.0218  0.0924
  452loPI   GL2 7222   6.116   5.778   9.802 -0.1251 -0.0830  0.0675
  452loPI   C1A 7223   5.913   5.925   9.402  0.0403 -0.1596  0.2006
  452loPI   C2A 7224   6.063   5.856   8.991  0.0312 -0.2939  0.1706
  452loPI   C3A 7225   6.437   5.990   8.740  0.0904 -0.0351 -0.0088
  452loPI   C4A 7226   6.425   6.118   8.196  0.2363 -0.1186 -0.1663
  452loPI   C5A 7227   6.740   6.263   7.996  0.2560  0.1569  0.2510
  452loPI   C6A 7228   6.899   6.679   7.778 -0.3595 -0.0481  0.0928
  452loPI   C1B 7229   6.351   5.785   9.428  0.0611 -0.3463 -0.3079
  452loPI   C2B 7230   6.663   5.672   9.121 -0.1417 -0.2903  0.0800
  452loPI   C3B 7231   6.889   5.709   8.813  0.2877  0.2680  0.2760
  452loPI   C4B 7232   7.103   5.671   8.495  0.1620  0.2478  0.2479
  453loPI    C1 7233  17.419   5.097  10.458  0.2618 -0.1996 -0.3109
  453loPI    C2 7234  17.465   5.353  10.154  0.4403 -0.1169 -0.2155
  453loPI    C3 7235  17.596   5.450  10.520 -0.1625 -0.0306 -0.0111
  453loPI   PO4 7236  17.507   4.885  10.342  0.1634 -0.5493  0.0932
  453loPI   GL1 7237  17.557   4.930   9.871 -0.0079 -0.0405  0.1123
  453loPI   GL2 7238  17.747   5.131   9.779  0.1187  0.1131  0.0020
  453loPI   C1A 7239  17.301   5.049   9.407  0.1001  0.4414  0.2321
  453loPI   C2A 7240  17.351   5.099   8.987 -0.1344  0.1108 -0.2975
  453loPI   C3A 7241  17.518   5.297   8.625  0.0710  0.3004  0.3205
  453loPI   C4A 7242  17.472   5.483   8.186  0.0103  0.1123 -0.0476
  453loPI   C5A 7243  16.992   5.536   7.919 -0.2456 -0.1491 -0.2093
  453loPI   C6A 7244  16.804   5.567   7.499 -0.0662  0.0806 -0.0634
  453loPI   C1B 7245  17.717   5.334   9.305 -0.0607  0.1144 -0.0966
  453loPI   C2B 7246  17.905   5.191   8.897 -0.1282 -0.0694  0.1020
  453loPI   C3B 7247  17.918   5.501   8.664 -0.1143 -0.0694 -0.0034
  453loPI   C4B 7248  18.028   5.859   8.594 -0.2206  0.2491  0.0859
  454loPI    C1 7249  18.092  17.057  10.417  0.0681  0.1122  0.1264
  454loPI    C2 7250  17.916  17.415  10.436  0.0447  0.1122 -0.0693
  454loPI    C3 7251  17.865  17.151  10.732  0.2272  0.3448  0.1740
  454loPI   PO4 7252  18.044  16.988  10.130  0.2307 -0.0418  0.0397
  454loPI   GL1 7253  18.036  16.951   9.670 -0.0202 -0.1299 -0.0540
  454loPI   GL2 7254  18.198  17.161   9.430  0.0075  0.4797 -0.1037
  454loPI   C1A 7255  17.761  17.150   9.301 -0.1571  0.0071  0.0615
  454loPI   C2A 7256  17.473  17.252   8.983  0.3360 -0.0933 -0.2373
  454loPI   C3A 7257  17.504  17.131   8.594  0.1407  0.0670 -0.1110
  454loPI   C4A 7258  17.424  16.864   8.196  0.2959 -0.3486  0.0495
  454loPI   C5A 7259  17.299  16.472   8.086 -0.1574 -0.1833 -0.3337
  454loPI   C6A 7260  16.949  16.300   7.974 -0.1784 -0.1772 -0.0825
  454loPI   C1B 7261  18.398  17.051   9.044 -0.2311  0.0667  0.0407
  454loPI   C2B 7262  18.498  17.081   8.673  0.0443  0.0889 -0.3294
  454loPI   C3B 7263  18.425  16.961   8.231  0.1068 -0.0160  0.0592
  454loPI   C4B 7264  18.687  17.088   7.845 -0.1877  0.0636  0.3348
  455loPI    C1 7265   3.072  17.767   9.923 -0.1120  0.0014 -0.0320
  455loPI    C2 7266   3.035  17.679  10.311  0.3206 -0.2429 -0.0390
  455loPI    C3 7267   3.324  17.928  10.189  0.1545 -0.1271 -0.2017
  455loPI   PO4 7268   3.052  17.419   9.813  0.0632 -0.0140  0.3470
  455loPI   GL1 7269   2.944  17.222   9.411 -0.0734 -0.0439  0.1593
  455loPI   GL2 7270   2.698  17.026   9.333  0.0698  0.0458  0.1267
  455loPI   C1A 7271   3.008  17.403   9.028  0.0095 -0.2645  0.0203
  455loPI   C2A 7272   3.050  17.265   8.583  0.1390  0.0446  0.1212
  455loPI   C3A 7273   3.237  17.455   8.232 -0.1878  0.1396  0.1170
  455loPI   C4A 7274   3.177  17.526   7.694  0.1225 -0.3142  0.2525
  455loPI   C5A 7275   2.837  17.601   7.424 -0.1551  0.1157  0.1017
  455loPI   C6A 7276   2.497  17.638   7.219 -0.1848  0.1070 -0.0934
  455loPI   C1B 7277   2.700  17.032   8.879 -0.1634 -0.1142 -0.0742
  455loPI   C2B 7278   2.826  16.684   8.568  0.4672 -0.2327 -0.2506
  455loPI   C3B 7279   2.957  16.391   8.218  0.2554 -0.1741 -0.1745
  455loPI   C4B 7280   3.119  16.213   7.914 -0.0149 -0.0521 -0.1928
  456loPI    C1 7281  15.518   4.820  10.354 -0.0247 -0.0496  0.1720
  456loPI    C2 7282  15.645   4.771  10.730  0.0332 -0.0046  0.1583
  456loPI    C3 7283  15.379   4.517  10.575  0.1191 -0.1096  0.1814
  456loPI   PO4 7284  15.778   4.795  10.201  0.0095  0.1318 -0.0191
  456loPI   GL1 7285  15.999   4.832   9.868 -0.1796 -0.2040  0.2005
  456loPI   GL2 7286  16.122   5.041   9.653  0.0110  0.3698 -0.0390
  456loPI   C1A 7287  15.748   4.875   9.458  0.2359  0.1251 -0.0431
  456loPI   C2A 7288  15.833   5.113   9.074 -0.0093 -0.0644  0.2406
  456loPI   C3A 7289  15.994   5.341   8.719 -0.2504  0.3757  0.2532
  456loPI   C4A 7290  16.152   5.115   8.261  0.2291 -0.2687 -0.2261
  456loPI   C5A 7291  16.140   4.957   7.827 -0.0846 -0.0339  0.2835
  456loPI   C6A 7292  16.457   4.628   7.709  0.0088  0.1063 -0.0425
  456loPI   C1B 7293  16.070   5.419   9.482  0.1254  0.0332  0.1183
  456loPI   C2B 7294  15.953   5.670   9.159  0.1348  0.0609 -0.1316
  456loPI   C3B 7295  15.794   5.810   8.721  0.0864  0.1415 -0.0793
  456loPI   C4B 7296  15.715   5.901   8.252 -0.0228 -0.0053 -0.0449
  457loPI    C1 7297   8.415  16.130  10.242 -0.0399  0.1174  0.1532
  457loPI    C2 7298   8.505  15.885  10.546 -0.0280  0.0016  0.0570
  457loPI    C3 7299   8.195  16.136  10.576  0.0205  0.0457  0.1946
  457loPI   PO4 7300   8.490  15.952   9.977  0.0226 -0.2001  0.1320
  457loPI   GL1 7301   8.130  15.732   9.815 -0.3011  0.0361  0.1300
  457loPI   GL2 7302   8.099  15.994   9.576 -0.0765  0.0836  0.2434
  457loPI   C1A 7303   7.809  15.533   9.463 -0.2335 -0.1630 -0.0574
  457loPI   C2A 7304   7.801  15.561   9.145  0.0824 -0.4391 -0.1044
  457loPI   C3A 7305   7.671  15.437   8.759  0.2249 -0.2720  0.1602
  457loPI   C4A 7306   7.753  15.489   8.423 -0.2167  0.0701  0.4398
  457loPI   C5A 7307   7.746  15.577   7.965  0.0930  0.0164  0.1411
  457loPI   C6A 7308   7.953  15.830   7.551 -0.2017 -0.1669  0.4225
  457loPI   C1B 7309   7.991  16.012   9.179  0.0557 -0.2237 -0.2899
  457loPI   C2B 7310   7.803  15.929   8.788 -0.0006  0.3401 -0.0220
  457loPI   C3B 7311   7.811  15.972   8.370  0.1956 -0.0558  0.0722
  457loPI   C4B 7312   7.957  16.283   7.902  0.1248 -0.0291 -0.1867
  458loPI    C1 7313   5.329   3.067   9.869  0.1417 -0.0528 -0.0470
  458loPI    C2 7314   5.557   2.742   9.819  0.0383 -0.1064 -0.1776
  458loPI    C3 7315   5.366   2.801  10.166  0.0438 -0.1938 -0.1594
  458loPI   PO4 7316   5.155   3.046   9.642 -0.0456  0.2502  0.2909
  458loPI   GL1 7317   5.087   2.749   9.311 -0.0685  0.4015 -0.1014
  458loPI   GL2 7318   4.859   2.571   9.291  0.1855  0.1033 -0.0234
  458loPI   C1A 7319   5.123   2.956   8.898  0.0732  0.2379  0.1668
  458loPI   C2A 7320   4.995   2.830   8.504  0.1700 -0.2143  0.1486
  458loPI   C3A 7321   4.891   2.813   8.127 -0.3288 -0.1649  0.0020
  458loPI   C4A 7322   5.083   3.142   7.969  0.4356 -0.0146  0.2826
  458loPI   C5A 7323   5.047   3.354   7.603 -0.0322 -0.0810 -0.0697
  458loPI   C6A 7324   4.917   3.374   7.221  0.1327  0.0422 -0.1941
  458loPI   C1B 7325   4.897   2.322   8.941  0.0456 -0.0200  0.2151
  458loPI   C2B 7326   4.844   2.336   8.458  0.0979  0.1444  0.0171
  458loPI   C3B 7327   4.887   2.313   8.096  0.2048  0.1530 -0.1394
  458loPI   C4B 7328   5.027   2.527   7.737  0.2709 -0.1725 -0.6130
  459loPI    C1 7329  17.887  12.324  10.059  0.2121 -0.1684  0.1954
  459loPI    C2 7330  17.609  12.079  10.209 -0.1239  0.0415 -0.0688
  459loPI    C3 7331  17.612  12.465  10.314 -0.0404  0.0774 -0.2014
  459loPI   PO4 7332  17.883  12.354   9.783 -0.0889  0.0041  0.1443
  459loPI   GL1 7333  17.881  12.110   9.298  0.0765 -0.1552  0.1294
  459loPI   GL2 7334  17.838  12.496   9.301 -0.1983  0.0303  0.2653
  459loPI   C1A 7335  17.934  11.996   8.857  0.1247  0.1870 -0.0438
  459loPI   C2A 7336  17.810  11.916   8.488  0.1955 -0.1442  0.0772
  459loPI   C3A 7337  17.825  11.866   8.117  0.2230 -0.0944 -0.3226
  459loPI   C4A 7338  17.877  11.802   7.692 -0.1666 -0.0733  0.2246
  459loPI   C5A 7339  17.640  12.015   7.510  0.3592  0.1883  0.3241
  459loPI   C6A 7340  17.405  12.141   7.143  0.0222  0.1758  0.3595
  459loPI   C1B 7341  17.939  12.490   8.860  0.0904  0.1149 -0.1804
  459loPI   C2B 7342  17.965  12.613   8.516  0.1226  0.1390 -0.2082
  459loPI   C3B 7343  17.736  12.489   8.173  0.2731  0.4096  0.0519
  459loPI   C4B 7344  17.756  12.571   7.762 -0.1012  0.1621  0.1306
  460loPI    C1 7345   0.385  13.665   9.777  0.2914 -0.1180 -0.0741
  460loPI    C2 7346   0.411  13.561  10.162  0.1205  0.0292 -0.0218
  460loPI    C3 7347   0.165  13.856  10.050  0.0824 -0.0901 -0.2589
  460loPI   PO4 7348   0.298  13.417   9.661 -0.3115 -0.0999  0.1912
  460loPI   GL1 7349   0.186  13.254   9.292  0.0591 -0.1163 -0.1893
  460loPI   GL2 7350   0.599  13.395   9.239 -0.0433 -0.3166  0.1172
  460loPI   C1A 7351   0.179  13.267   8.747 -0.2450 -0.1540 -0.2986
  460loPI   C2A 7352   0.143  13.464   8.431 -0.3225  0.0377 -0.0270
  460loPI   C3A 7353   0.044  13.588   8.053 -0.0905 -0.1482  0.2070
  460loPI   C4A 7354   0.109  13.441   7.675 -0.3259 -0.1964  0.0800
  460loPI   C5A 7355   0.291  13.363   7.246  0.0726  0.2093 -0.0640
  460loPI   C6A 7356   0.379  13.232   6.755 -0.1487  0.1443  0.0960
  460loPI   C1B 7357   0.561  13.645   8.842  0.0580 -0.0304 -0.1799
  460loPI   C2B 7358   0.486  13.845   8.574  0.0852 -0.1358  0.2426
  460loPI   C3B 7359   0.509  13.841   8.019  0.3308  0.2574 -0.0051
  460loPI   C4B 7360   0.167  14.054   7.791  0.1413  0.1372 -0.3421
  461loPI    C1 7361   6.036   6.856  10.375 -0.2822 -0.1546 -0.1000
  461loPI    C2 7362   6.099   7.090  10.056  0.0174  0.0061  0.0721
  461loPI    C3 7363   5.826   7.194  10.330  0.1420  0.1511  0.1425
  461loPI   PO4 7364   6.146   6.624  10.279 -0.2913  0.2133  0.1534
  461loPI   GL1 7365   6.240   6.459   9.914 -0.3571  0.3809 -0.1753
  461loPI   GL2 7366   6.419   6.192   9.774 -0.1731 -0.1515  0.3024
  461loPI   C1A 7367   5.924   6.653   9.692  0.0727  0.1283 -0.2027
  461loPI   C2A 7368   5.703   6.825   9.450  0.0986 -0.0761 -0.0123
  461loPI   C3A 7369   5.731   6.919   9.012  0.1994  0.0761  0.0796
  461loPI   C4A 7370   5.871   6.919   8.547 -0.1235 -0.0064  0.0241
  461loPI   C5A 7371   5.886   6.874   8.072  0.0034  0.2408  0.0751
  461loPI   C6A 7372   6.243   7.068   7.916 -0.3088  0.0494  0.1797
  461loPI   C1B 7373   6.290   6.488   9.399  0.1335  0.1326  0.0410
  461loPI   C2B 7374   6.336   6.434   8.980 -0.3422 -0.0510 -0.1224
  461loPI   C3B 7375   6.579   6.577   8.592  0.1093 -0.1216  0.1866
  461loPI   C4B 7376   6.541   6.724   8.174  0.1474  0.2494 -0.0747
  462loPI    C1 7377  10.358   8.243  10.654 -0.1124  0.1527 -0.4820
  462loPI    C2 7378  10.253   7.860  10.608  0.1089  0.0101  0.1055
  462loPI    C3 7379  10.092   8.078  10.902  0.3531  0.2224  0.0859
  462loPI   PO4 7380  10.341   8.367  10.422 -0.1468  0.0647 -0.1598
  462loPI   GL1 7381  10.078   8.333  10.092 -0.2972 -0.0323  0.0149
  462loPI   GL2 7382  10.074   8.484   9.817  0.0368  0.1393 -0.3299
  462loPI   C1A 7383   9.858   8.047   9.739  0.1646 -0.0588 -0.3392
  462loPI   C2A 7384   9.698   7.777   9.352 -0.2538  0.3861  0.2604
  462loPI   C3A 7385   9.448   7.888   9.113  0.1607  0.0227  0.1436
  462loPI   C4A 7386   9.436   8.169   8.814  0.0283  0.1469 -0.0714
  462loPI   C5A 7387   9.197   8.320   8.400  0.1003 -0.1883 -0.1253
  462loPI   C6A 7388   8.764   8.391   8.346  0.3174 -0.1302  0.1176
  462loPI   C1B 7389   9.698   8.537   9.695  0.2239  0.1676 -0.0039
  462loPI   C2B 7390   9.529   8.409   9.316  0.0551  0.2763 -0.4414
  462loPI   C3B 7391   9.209   8.341   9.232 -0.1081  0.0073 -0.0295
  462loPI   C4B 7392   9.132   8.430   9.680 -0.1274  0.0533 -0.1483
  463loPI    C1 7393  10.030   1.848  10.196  0.2720  0.1660  0.1467
  463loPI    C2 7394   9.816   1.976  10.509  0.0542  0.1751 -0.0034
  463loPI    C3 7395  10.140   1.748  10.568 -0.1901 -0.1249  0.2131
  463loPI   PO4 7396  10.163   2.055  10.055  0.3844 -0.0045 -0.0662
  463loPI   GL1 7397   9.974   2.187   9.702  0.0297  0.2383  0.2436
  463loPI   GL2 7398   9.928   1.835   9.661  0.2057  0.0014 -0.2985
  463loPI   C1A 7399  10.112   2.375   9.399 -0.1589 -0.0761  0.3018
  463loPI   C2A 7400  10.405   2.304   9.115 -0.2125  0.0069 -0.0078
  463loPI   C3A 7401  10.464   2.261   8.778 -0.3337  0.0909  0.2196
  463loPI   C4A 7402  10.708   2.315   8.395  0.1237  0.3502 -0.1275
  463loPI   C5A 7403  10.678   2.178   8.038 -0.0283 -0.0729  0.3872
  463loPI   C6A 7404  10.918   2.252   7.657  0.2612 -0.2079 -0.0932
  463loPI   C1B 7405  10.197   1.847   9.281  0.1871 -0.0786  0.0577
  463loPI   C2B 7406  10.286   1.785   8.883  0.2079 -0.2376 -0.0408
  463loPI   C3B 7407  10.589   1.821   8.605 -0.1554 -0.1387  0.0081
  463loPI   C4B 7408  11.024   1.981   8.407 -0.0592 -0.0223  0.2540
  464loPI    C1 7409   5.686   0.565  10.059  0.0307 -0.1559  0.0176
  464loPI    C2 7410   5.654   0.239  10.289  0.0384 -0.1365  0.0463
  464loPI    C3 7411   5.329   0.391  10.112  0.0169 -0.0970  0.1192
  464loPI   PO4 7412   6.060   0.615   9.938  0.0400  0.2668 -0.0773
  464loPI   GL1 7413   6.248   0.691   9.507  0.2602  0.0081 -0.0060
  464loPI   GL2 7414   5.988   0.482   9.425  0.2451 -0.0018 -0.0613
  464loPI   C1A 7415   6.219   0.824   9.124  0.3901  0.0417 -0.2059
  464loPI   C2A 7416   6.422   0.870   8.745 -0.1343  0.1115  0.0838
  464loPI   C3A 7417   6.329   0.869   8.269  0.0312  0.1328 -0.0700
  464loPI   C4A 7418   6.342   1.120   7.869 -0.1867  0.0672 -0.2364
  464loPI   C5A 7419   6.394   1.526   7.535  0.0556  0.1791 -0.0814
  464loPI   C6A 7420   6.243   1.935   7.387  0.0632 -0.1612 -0.2940
  464loPI   C1B 7421   5.982   0.425   9.049 -0.1250 -0.0384  0.0335
  464loPI   C2B 7422   6.022   0.539   8.593 -0.3420 -0.0835  0.3340
  464loPI   C3B 7423   6.456   0.399   8.347  0.4156 -0.1564 -0.0762
  464loPI   C4B 7424   6.800   0.565   8.171  0.3081 -0.2125 -0.0766
  465loPI    C1 7425  16.006   7.354  10.409 -0.3637  0.0100  0.1869
  465loPI    C2 7426  15.750   7.661  10.422 -0.2333  0.1174  0.2406
  465loPI    C3 7427  16.002   7.597  10.726 -0.0738  0.1191  0.1103
  465loPI   PO4 7428  15.986   7.259  10.155 -0.2822  0.3851  0.0241
  465loPI   GL1 7429  15.992   7.258   9.659  0.0696  0.1387  0.0982
  465loPI   GL2 7430  15.883   7.551   9.510  0.2227  0.1179 -0.1745
  465loPI   C1A 7431  15.881   7.078   9.307  0.1445  0.2069  0.0930
  465loPI   C2A 7432  15.994   7.113   8.919  0.0474  0.0956 -0.1949
  465loPI   C3A 7433  16.140   7.135   8.521  0.0536  0.1475 -0.3039
  465loPI   C4A 7434  16.104   7.390   8.160 -0.2722  0.1249 -0.1080
  465loPI   C5A 7435  16.064   7.600   7.771 -0.0117  0.1671 -0.0108
  465loPI   C6A 7436  15.769   7.831   7.499  0.0114  0.2129 -0.1972
  465loPI   C1B 7437  15.583   7.879   9.313  0.0441  0.0935 -0.0470
  465loPI   C2B 7438  15.562   7.963   8.987  0.2224 -0.1167 -0.2049
  465loPI   C3B 7439  15.598   7.903   8.508 -0.1674  0.3202  0.0331
  465loPI   C4B 7440  15.597   7.699   8.058  0.0301 -0.1367 -0.1314
  466loPI    C1 7441  14.965   4.915  10.231 -0.0510  0.2452 -0.1439
  466loPI    C2 7442  14.747   5.137  10.482  0.1495  0.2305  0.0458
  466loPI    C3 7443  15.121   5.032  10.580  0.1989  0.1493 -0.2208
  466loPI   PO4 7444  14.880   4.663  10.142 -0.1395  0.3749  0.1803
  466loPI   GL1 7445  15.011   4.457   9.825 -0.1080 -0.2189 -0.0511
  466loPI   GL2 7446  15.364   4.551   9.890  0.2963 -0.2674 -0.0936
  466loPI   C1A 7447  14.907   4.342   9.303 -0.2813  0.5960 -0.1665
  466loPI   C2A 7448  15.013   4.405   8.915 -0.0891  0.1706 -0.0268
  466loPI   C3A 7449  15.015   4.427   8.531  0.2279 -0.0717 -0.2563
  466loPI   C4A 7450  15.023   4.238   8.102  0.1371  0.2781 -0.0838
  466loPI   C5A 7451  14.865   4.104   7.692 -0.1688 -0.0318  0.0117
  466loPI   C6A 7452  14.622   4.057   7.240 -0.1398 -0.2146 -0.2474
  466loPI   C1B 7453  15.287   4.688   9.386  0.1458 -0.0503  0.0348
  466loPI   C2B 7454  15.462   4.722   8.925  0.1120  0.2043  0.2550
  466loPI   C3B 7455  15.483   4.432   8.628  0.3199 -0.4524  0.1882
  466loPI   C4B 7456  15.594   4.419   8.119  0.0396  0.0151 -0.0012
  467loPI    C1 7457  11.499  18.670  10.614  0.1209  0.1632  0.0964
  467loPI    C2 7458  11.895  18.655  10.670  0.1095 -0.0907  0.1181
  467loPI    C3 7459  11.646  18.585  10.976  0.0474 -0.0320  0.0814
  467loPI   PO4 7460  11.454  18.860  10.437 -0.0125 -0.0225  0.1445
  467loPI   GL1 7461  11.427  18.774  10.049 -0.1946 -0.4140  0.2175
  467loPI   GL2 7462  11.168  18.595   9.943  0.1601  0.1140 -0.2529
  467loPI   C1A 7463  11.674  18.690   9.723  0.1068  0.2178 -0.0530
  467loPI   C2A 7464  11.852  18.509   9.352  0.0636  0.0413 -0.2073
  467loPI   C3A 7465  11.729  18.120   9.149  0.1359 -0.1040 -0.3638
  467loPI   C4A 7466  11.980  17.783   8.890  0.1627 -0.2556 -0.0484
  467loPI   C5A 7467  12.117  17.609   8.530 -0.0290  0.0255  0.1279
  467loPI   C6A 7468  12.102  17.966   8.283 -0.1035  0.2264  0.0293
  467loPI   C1B 7469  10.933  18.609   9.523 -0.2724 -0.0248  0.2004
  467loPI   C2B 7470  10.856  18.721   9.008 -0.0209 -0.1118 -0.2534
  467loPI   C3B 7471  10.891  18.787   8.580 -0.0334  0.3298 -0.0220
  467loPI   C4B 7472  11.032  18.863   8.182 -0.1842  0.0418 -0.2772
  468loPI    C1 7473  10.286  10.435  10.101  0.1172  0.1702 -0.3588
  468loPI    C2 7474  10.599  10.674  10.030  0.1826  0.3051  0.3105
  468loPI    C3 7475  10.455  10.638  10.401 -0.4620  0.0694  0.0534
  468loPI   PO4 7476  10.043  10.531   9.976  0.2829  0.0516  0.2063
  468loPI   GL1 7477   9.769  10.217   9.736 -0.0853 -0.1659 -0.1005
  468loPI   GL2 7478   9.390  10.318   9.726  0.0617  0.1819  0.2260
  468loPI   C1A 7479   9.941  10.265   9.345 -0.1636  0.1377  0.1451
  468loPI   C2A 7480  10.085  10.560   9.147 -0.2149 -0.0580  0.1910
  468loPI   C3A 7481  10.204  10.806   8.743  0.1329 -0.0210 -0.0978
  468loPI   C4A 7482  10.235  11.189   8.694 -0.2173 -0.0004  0.2558
  468loPI   C5A 7483  10.270  11.349   9.096  0.2582 -0.1272 -0.1262
  468loPI   C6A 7484  10.136  11.556   9.410  0.0513 -0.0729 -0.0982
  468loPI   C1B 7485   9.404  10.599   9.338 -0.1770  0.0073 -0.2309
  468loPI   C2B 7486   9.328  10.537   8.947  0.0517 -0.0180  0.1369
  468loPI   C3B 7487   9.424  10.397   8.516 -0.1625  0.0513  0.3128
  468loPI   C4B 7488   9.560  10.509   8.142 -0.0896 -0.0691 -0.2097
  469loPI    C1 7489   3.573   4.765   9.676 -0.2730 -0.2128 -0.1138
  469loPI    C2 7490   3.624   5.036   9.966 -0.0501 -0.1972 -0.1654
  469loPI    C3 7491   3.384   4.721  10.026  0.1989 -0.3362  0.1357
  469loPI   PO4 7492   3.704   4.903   9.451 -0.1146  0.1253 -0.0715
  469loPI   GL1 7493   4.090   4.953   9.247  0.0918  0.0442 -0.0994
  469loPI   GL2 7494   3.940   5.214   9.140 -0.1632  0.0424  0.0107
  469loPI   C1A 7495   4.045   4.827   8.816  0.1818  0.0041  0.0633
  469loPI   C2A 7496   4.231   4.955   8.375 -0.1657  0.0335 -0.1486
  469loPI   C3A 7497   4.249   5.385   8.292 -0.0534 -0.3388  0.0765
  469loPI   C4A 7498   4.609   5.620   7.968 -0.0853  0.1597  0.3112
  469loPI   C5A 7499   4.758   5.650   7.558  0.0667  0.0934 -0.0525
  469loPI   C6A 7500   4.918   5.833   7.061 -0.2971 -0.2323 -0.1275
  469loPI   C1B 7501   3.753   5.255   8.762  0.0238  0.4260  0.2458
  469loPI   C2B 7502   3.795   5.262   8.357  0.1405 -0.0252 -0.0908
  469loPI   C3B 7503   3.910   5.110   7.950 -0.0624 -0.1258  0.0618
  469loPI   C4B 7504   4.001   5.147   7.521 -0.2425  0.2616 -0.1381
  470loPI    C1 7505  11.634  13.210   9.893 -0.1210 -0.2184  0.1696
  470loPI    C2 7506  11.253  13.104   9.952 -0.1796 -0.0716  0.0610
  470loPI    C3 7507  11.460  13.279  10.246 -0.1661 -0.2369  0.1511
  470loPI   PO4 7508  11.742  13.341   9.569 -0.3522  0.1587 -0.0379
  470loPI   GL1 7509  11.998  13.126   9.246 -0.1246 -0.2839 -0.0314
  470loPI   GL2 7510  12.321  13.033   9.433  0.3739  0.1483  0.2485
  470loPI   C1A 7511  12.168  12.914   8.844  0.3480 -0.2069  0.0896
  470loPI   C2A 7512  12.354  12.784   8.454  0.1031  0.2073  0.1301
  470loPI   C3A 7513  12.379  12.865   8.037  0.2360 -0.1624  0.0892
  470loPI   C4A 7514  12.412  12.671   7.629 -0.0884 -0.1583  0.0211
  470loPI   C5A 7515  12.114  12.218   7.585 -0.0662 -0.1798 -0.1795
  470loPI   C6A 7516  12.138  11.807   7.371 -0.0985 -0.2430  0.4036
  470loPI   C1B 7517  12.378  12.671   9.204 -0.6391 -0.3588  0.3996
  470loPI   C2B 7518  12.611  12.490   8.789  0.0475 -0.0098 -0.0788
  470loPI   C3B 7519  12.749  12.416   8.400  0.0853 -0.0058  0.0277
  470loPI   C4B 7520  12.462  12.366   7.993  0.0902  0.0964  0.4359
  471loPI    C1 7521   4.955   6.133  10.409 -0.1758 -0.1258  0.2769
  471loPI    C2 7522   4.878   6.491  10.571 -0.0028  0.0369  0.0084
  471loPI    C3 7523   4.725   6.160  10.736 -0.2377  0.2400  0.2083
  471loPI   PO4 7524   5.168   6.247  10.196  0.2545 -0.0542  0.3130
  471loPI   GL1 7525   5.338   6.364   9.847  0.1993  0.1667  0.1452
  471loPI   GL2 7526   5.014   6.413   9.678  0.0152 -0.0852 -0.1875
  471loPI   C1A 7527   5.546   6.295   9.441  0.1020  0.1105 -0.3302
  471loPI   C2A 7528   5.870   6.418   9.180  0.0436  0.0783 -0.0239
  471loPI   C3A 7529   5.892   6.482   8.826 -0.1565 -0.1232  0.2958
  471loPI   C4A 7530   6.077   6.454   8.354 -0.3691  0.3028 -0.0321
  471loPI   C5A 7531   5.986   6.292   7.942  0.0718 -0.0701 -0.2799
  471loPI   C6A 7532   5.714   6.021   7.663 -0.0301  0.0612  0.1796
  471loPI   C1B 7533   5.056   6.254   9.132 -0.2029  0.1120 -0.0579
  471loPI   C2B 7534   5.469   6.162   8.945 -0.0375  0.4256 -0.0982
  471loPI   C3B 7535   5.704   6.107   8.571 -0.1203  0.3242  0.1756
  471loPI   C4B 7536   6.059   5.860   8.393  0.0142 -0.3042 -0.1366
  472loPI    C1 7537  14.936   8.728  10.349  0.2869  0.0285 -0.2100
  472loPI    C2 7538  15.223   8.970  10.488  0.1116  0.0354  0.1534
  472loPI    C3 7539  14.947   8.823  10.738 -0.3343  0.2049 -0.2251
  472loPI   PO4 7540  14.745   8.817  10.099  0.3960 -0.1152  0.1005
  472loPI   GL1 7541  14.795   8.964   9.757 -0.0135  0.2004 -0.1537
  472loPI   GL2 7542  14.607   8.828   9.511 -0.0052 -0.0967  0.1001
  472loPI   C1A 7543  14.913   9.239   9.339  0.3436  0.0338 -0.2326
  472loPI   C2A 7544  14.889   9.103   8.886  0.2154  0.0691 -0.1432
  472loPI   C3A 7545  15.031   8.765   8.731 -0.0288 -0.1184  0.0396
  472loPI   C4A 7546  14.922   8.570   8.397 -0.0890 -0.0188  0.0547
  472loPI   C5A 7547  15.012   8.344   8.068 -0.0068  0.0897  0.0816
  472loPI   C6A 7548  14.704   8.141   7.858  0.2068  0.1112 -0.1946
  472loPI   C1B 7549  14.641   8.515   9.159  0.0831 -0.1994 -0.0290
  472loPI   C2B 7550  14.737   8.226   8.808 -0.1299  0.0442  0.1385
  472loPI   C3B 7551  14.890   7.918   8.417  0.2760 -0.3082  0.0696
  472loPI   C4B 7552  15.125   7.832   8.154 -0.0363 -0.2394  0.2665
  473loPI    C1 7553   3.433   8.466  10.534  0.0187  0.0797 -0.1625
  473loPI    C2 7554   3.821   8.374  10.571 -0.0843 -0.3434 -0.0717
  473loPI    C3 7555   3.581   8.362  10.891 -0.1506  0.0450 -0.1014
  473loPI   PO4 7556   3.448   8.405  10.234  0.0181 -0.2378  0.3442
  473loPI   GL1 7557   3.594   8.546   9.816  0.3811 -0.0583 -0.1301
  473loPI   GL2 7558   3.333   8.588   9.584  0.3036 -0.1753 -0.1621
  473loPI   C1A 7559   3.629   8.231   9.438  0.2335  0.1554  0.1913
  473loPI   C2A 7560   3.459   8.326   9.080 -0.4481 -0.1499 -0.1949
  473loPI   C3A 7561   3.317   8.437   8.684  0.3208  0.2250 -0.1720
  473loPI   C4A 7562   3.335   8.515   8.281 -0.1645  0.2051  0.0289
  473loPI   C5A 7563   3.489   8.618   7.818  0.0851 -0.0464 -0.0288
  473loPI   C6A 7564   3.651   8.842   7.447  0.2968 -0.1179 -0.0636
  473loPI   C1B 7565   3.095   8.701   9.359 -0.0195  0.3504  0.1144
  473loPI   C2B 7566   3.084   8.953   9.011 -0.0565 -0.1539  0.0748
  473loPI   C3B 7567   3.098   9.127   8.697 -0.0807 -0.0419  0.1693
  473loPI   C4B 7568   3.229   9.014   8.273 -0.1260 -0.3373  0.2562
  474POPI    C1 7569  14.033  15.383  10.320 -0.0279  0.1166  0.0815
  474POPI    C2 7570  13.850  15.146  10.585 -0.0090  0.1244  0.1015
  474POPI    C3 7571  14.017  15.489  10.706  0.1118  0.0660  0.1016
  474POPI   PO4 7572  13.816  15.313  10.115  0.0914 -0.2290  0.2668
  474POPI   GL1 7573  13.747  15.293   9.669 -0.3264 -0.0124  0.1910
  474POPI   GL2 7574  13.912  15.663   9.728 -0.0116  0.1034  0.0173
  474POPI   C1A 7575  13.845  14.878   9.403  0.6092 -0.1274 -0.1077
  474POPI   D2A 7576  14.017  14.680   9.057  0.0452  0.0182  0.0428
  474POPI   C3A 7577  14.192  14.753   8.645  0.0175  0.4988  0.0336
  474POPI   C4A 7578  14.276  14.931   8.189 -0.0257 -0.2100  0.0369
  474POPI   C1B 7579  13.848  16.040   9.441 -0.1418 -0.0292 -0.0716
  474POPI   C2B 7580  14.063  16.328   9.198  0.2772  0.2040 -0.2993
  474POPI   C3B 7581  14.158  16.502   8.887  0.1912  0.1881 -0.3397
  474POPI   C4B 7582  14.138  16.848   8.654  0.1708  0.1576 -0.1395
  475POPI    C1 7583  11.808   1.021  10.471  0.2513 -0.0156 -0.1794
  475POPI    C2 7584  11.706   1.218  10.804  0.3056 -0.0425 -0.1467
  475POPI    C3 7585  11.880   1.413  10.501 -0.0466  0.0501 -0.2940
  475POPI   PO4 7586  11.550   0.915  10.326  0.1672  0.0131 -0.1597
  475POPI   GL1 7587  11.533   0.882   9.866  0.3012 -0.1400 -0.3483
  475POPI   GL2 7588  11.639   0.594   9.686 -0.0168 -0.1352  0.1751
  475POPI   C1A 7589  11.431   1.227   9.546 -0.2992 -0.2013 -0.1574
  475POPI   D2A 7590  11.533   1.569   9.284 -0.4919  0.0682  0.1348
  475POPI   C3A 7591  11.502   1.681   8.840  0.1080  0.1157 -0.1983
  475POPI   C4A 7592  11.480   1.965   8.625  0.0983  0.4874  0.3636
  475POPI   C1B 7593  11.645   0.721   9.332 -0.3458 -0.0711 -0.0585
  475POPI   C2B 7594  11.877   0.744   9.014 -0.0999  0.3384  0.1241
  475POPI   C3B 7595  12.080   0.904   8.618 -0.0879  0.1933  0.1869
  475POPI   C4B 7596  11.879   0.765   8.200 -0.1405 -0.1244  0.2731
  476POPI    C1 7597  17.792   8.030   9.920 -0.2270 -0.3320 -0.0290
  476POPI    C2 7598  17.982   8.030  10.272  0.0118  0.0535 -0.1522
  476POPI    C3 7599  17.586   8.084  10.259  0.0210  0.1787  0.0494
  476POPI   PO4 7600  18.068   8.077   9.754  0.2902  0.1089 -0.0287
  476POPI   GL1 7601  18.125   8.033   9.396 -0.1955  0.1617  0.2321
  476POPI   GL2 7602  17.786   8.116   9.378  0.1042 -0.4205 -0.0733
  476POPI   C1A 7603  18.170   8.125   8.942 -0.0968  0.0588  0.2778
  476POPI   D2A 7604  17.961   7.973   8.579 -0.1957 -0.0006 -0.1613
  476POPI   C3A 7605  18.210   7.732   8.276 -0.1832  0.0850 -0.0610
  476POPI   C4A 7606  18.255   7.454   7.955 -0.1562 -0.4795 -0.0583
  476POPI   C1B 7607  17.640   7.913   8.972  0.2499 -0.0173 -0.0532
  476POPI   C2B 7608  17.248   7.953   8.876  0.1231  0.1786 -0.1890
  476POPI   C3B 7609  16.919   7.922   8.535 -0.1599 -0.0047 -0.0796
  476POPI   C4B 7610  16.900   7.934   8.175 -0.1309  0.2076 -0.0016
  477POPI    C1 7611  12.818   4.272  10.291  0.0225 -0.1860 -0.0659
  477POPI    C2 7612  12.972   3.923  10.412 -0.1306 -0.2266  0.0149
  477POPI    C3 7613  12.782   4.159  10.673  0.1528  0.0157  0.0072
  477POPI   PO4 7614  13.050   4.349  10.089 -0.5052 -0.1610 -0.0408
  477POPI   GL1 7615  13.068   4.258   9.656 -0.0455 -0.0285  0.0575
  477POPI   GL2 7616  13.187   4.625   9.691  0.1550 -0.1070  0.2104
  477POPI   C1A 7617  12.978   4.129   9.246  0.0047  0.3187 -0.0303
  477POPI   D2A 7618  13.164   3.812   9.002  0.0124  0.0522  0.2193
  477POPI   C3A 7619  13.147   3.971   8.648 -0.1446  0.0819 -0.0133
  477POPI   C4A 7620  13.261   3.903   8.186 -0.0921  0.1132 -0.1997
  477POPI   C1B 7621  13.197   4.592   9.239  0.1045 -0.0775  0.0179
  477POPI   C2B 7622  13.455   4.440   8.905  0.1160 -0.0576  0.3496
  477POPI   C3B 7623  13.792   4.571   8.685 -0.1377  0.0078  0.2210
  477POPI   C4B 7624  13.878   4.557   8.271  0.2003  0.1234 -0.3993
  478POPI    C1 7625  18.063   9.411  10.076  0.0592  0.1341  0.0897
  478POPI    C2 7626  17.865   9.319  10.411 -0.1495  0.0146 -0.0641
  478POPI    C3 7627  18.185   9.105  10.304 -0.1358 -0.0035  0.0125
  478POPI   PO4 7628  17.936   9.491   9.882  0.1935  0.3161 -0.0863
  478POPI   GL1 7629  18.068   9.628   9.446  0.0377 -0.1787  0.0134
  478POPI   GL2 7630  17.648   9.757   9.514  0.1295  0.2631  0.3186
  478POPI   C1A 7631  18.054   9.540   9.089  0.0186 -0.0944 -0.2660
  478POPI   D2A 7632  18.181   9.600   8.704 -0.2894 -0.0159  0.1479
  478POPI   C3A 7633  18.272   9.509   8.276 -0.0166 -0.1542 -0.1820
  478POPI   C4A 7634  18.270   9.452   7.779 -0.0463 -0.1660  0.2892
  478POPI   C1B 7635  17.690   9.929   9.065  0.3057 -0.1530  0.0618
  478POPI   C2B 7636  17.806   9.966   8.725 -0.3070 -0.0513  0.1117
  478POPI   C3B 7637  18.094  10.040   8.348  0.0377 -0.1250 -0.1147
  478POPI   C4B 7638  18.178  10.174   7.935 -0.2028  0.0073 -0.3401
  479POPI    C1 7639   4.969   4.721   9.880 -0.0197  0.0050 -0.1055
  479POPI    C2 7640   5.034   4.379   9.683  0.0578 -0.0606  0.0324
  479POPI    C3 7641   4.731   4.406   9.943  0.1282 -0.0649  0.1154
  479POPI   PO4 7642   5.170   4.813   9.952  0.2579 -0.1266  0.0731
  479POPI   GL1 7643   5.402   4.838   9.747  0.0392  0.1268  0.2402
  479POPI   GL2 7644   5.696   4.783   9.763 -0.0957 -0.0220 -0.0234
  479POPI   C1A 7645   4.970   4.827   9.343 -0.0173 -0.1281  0.0631
  479POPI   D2A 7646   4.959   4.825   8.875  0.1175 -0.0968 -0.0938
  479POPI   C3A 7647   5.079   4.768   8.428  0.1214 -0.4170  0.2917
  479POPI   C4A 7648   4.910   4.850   8.064  0.0291 -0.0225 -0.2832
  479POPI   C1B 7649   5.855   4.943   9.279  0.2831  0.1099 -0.0445
  479POPI   C2B 7650   5.855   5.028   8.873  0.1162 -0.1405  0.0279
  479POPI   C3B 7651   5.762   5.012   8.461 -0.4718 -0.3015  0.2621
  479POPI   C4B 7652   5.432   5.051   8.027 -0.1664  0.1866 -0.2210
  480POPI    C1 7653   4.405   8.540  10.120 -0.1129 -0.0050 -0.1189
  480POPI    C2 7654   4.664   8.626  10.413 -0.2323  0.0076 -0.0162
  480POPI    C3 7655   4.289   8.519  10.502 -0.2039 -0.2151 -0.1565
  480POPI   PO4 7656   4.673   8.694   9.852 -0.0817  0.1311 -0.1236
  480POPI   GL1 7657   4.908   8.413   9.614  0.2266  0.0702  0.0567
  480POPI   GL2 7658   5.209   8.654   9.630 -0.1325 -0.3659 -0.1764
  480POPI   C1A 7659   4.872   8.582   9.311 -0.2994  0.1481  0.2107
  480POPI   D2A 7660   4.581   8.565   8.975 -0.2782  0.2871 -0.2778
  480POPI   C3A 7661   4.500   8.801   8.545  0.1046 -0.4593 -0.0655
  480POPI   C4A 7662   4.222   8.994   8.264  0.0591  0.3823 -0.2669
  480POPI   C1B 7663   5.369   8.460   9.198  0.0157  0.2603  0.0671
  480POPI   C2B 7664   5.439   8.309   8.709 -0.3962 -0.0530  0.2818
  480POPI   C3B 7665   5.401   8.083   8.295 -0.3845  0.2041  0.0082
  480POPI   C4B 7666   5.574   8.211   7.921 -0.1318 -0.0508 -0.2523
  481POPI    C1 7667  18.555  11.755   9.685  0.2838 -0.2432  0.0722
  481POPI    C2 7668  18.726  12.028   9.921  0.0012  0.0729 -0.0806
  481POPI    C3 7669  18.642  11.665  10.065 -0.0085  0.2036  0.2526
  481POPI   PO4 7670  18.729  11.709   9.454  0.1043 -0.4905 -0.1636
  481POPI   GL1 7671  18.766  11.855   9.043  0.2028 -0.0873  0.0003
  481POPI   GL2 7672  19.097  11.981   9.053 -0.1219  0.0785 -0.1700
  481POPI   C1A 7673  18.338  11.675   8.840 -0.0259 -0.0476 -0.0012
  481POPI   D2A 7674  18.245  11.678   8.457 -0.0572  0.2478 -0.0186
  481POPI   C3A 7675  18.436  11.413   8.144  0.2770 -0.0622  0.0133
  481POPI   C4A 7676  18.750  11.219   8.306 -0.2053  0.3451  0.0005
  481POPI   C1B 7677  19.243  11.927   8.571 -0.0877 -0.1834 -0.2595
  481POPI   C2B 7678  19.265  11.941   8.129 -0.1263  0.0755  0.1464
  481POPI   C3B 7679  19.411  11.711   7.661 -0.0128 -0.1595 -0.2056
  481POPI   C4B 7680  19.510  11.540   7.239  0.1291  0.1084  0.1221
  482POPI    C1 7681   0.279   3.666  10.160  0.1958 -0.1146 -0.1850
  482POPI    C2 7682   0.557   3.932  10.269  0.0093 -0.0857  0.2382
  482POPI    C3 7683   0.421   3.665  10.534 -0.2196 -0.2326 -0.0222
  482POPI   PO4 7684   0.102   3.871   9.918  0.0217 -0.1182 -0.0890
  482POPI   GL1 7685   0.204   4.144   9.499 -0.0314 -0.2330  0.1544
  482POPI   GL2 7686   0.046   3.835   9.383 -0.4072 -0.1165  0.1528
  482POPI   C1A 7687   0.112   4.237   9.109  0.1751  0.2669 -0.0498
  482POPI   D2A 7688   0.252   4.264   8.667 -0.0587 -0.1691 -0.0836
  482POPI   C3A 7689   0.338   4.307   8.247 -0.2387  0.1586  0.3453
  482POPI   C4A 7690   0.132   4.384   7.970  0.0421 -0.1803  0.2711
  482POPI   C1B 7691  -0.369   3.854   9.095  0.2561 -0.2579  0.2424
  482POPI   C2B 7692  -0.596   3.706   8.744  0.0208  0.1428  0.1634
  482POPI   C3B 7693  -0.606   3.640   8.327 -0.2937 -0.2122  0.2307
  482POPI   C4B 7694  -0.414   3.491   7.961 -0.1067 -0.0721  0.0375
  483POPI    C1 7695   6.951   5.911  10.193 -0.1157  0.0132  0.0709
  483POPI    C2 7696   7.186   5.933  10.516  0.0533  0.1006 -0.0564
  483POPI    C3 7697   6.790   5.903  10.559  0.0832 -0.0056  0.1596
  483POPI   PO4 7698   7.185   5.725  10.035  0.1826  0.2143 -0.1906
  483POPI   GL1 7699   7.275   5.886   9.609  0.2513 -0.0294 -0.2509
  483POPI   GL2 7700   7.027   6.090   9.668  0.1457 -0.1661 -0.0314
  483POPI   C1A 7701   7.313   5.693   9.188 -0.0807 -0.1404 -0.3021
  483POPI   D2A 7702   7.614   5.610   8.975  0.1609  0.0817 -0.2668
  483POPI   C3A 7703   7.572   5.544   8.608  0.3658  0.0234  0.1962
  483POPI   C4A 7704   7.837   5.535   8.262  0.0362  0.1600 -0.0945
  483POPI   C1B 7705   6.820   6.175   9.287  0.1402  0.1096  0.1469
  483POPI   C2B 7706   6.866   6.221   8.882  0.3646 -0.1636 -0.3998
  483POPI   C3B 7707   6.835   6.143   8.431  0.1081 -0.1650 -0.1866
  483POPI   C4B 7708   7.021   5.860   8.057 -0.1128  0.5465 -0.2605
  484POPI    C1 7709  18.097   7.071  10.138  0.0673 -0.3188  0.0918
  484POPI    C2 7710  17.806   6.906  10.358 -0.2311  0.1445  0.0584
  484POPI    C3 7711  18.011   7.218  10.500  0.1301 -0.0619  0.0038
  484POPI   PO4 7712  17.923   7.080   9.887  0.2804 -0.1527 -0.0215
  484POPI   GL1 7713  18.060   7.183   9.448 -0.1576 -0.0445  0.0955
  484POPI   GL2 7714  18.260   7.426   9.458  0.0334 -0.1688 -0.3191
  484POPI   C1A 7715  18.076   7.058   9.044  0.2054 -0.0086  0.1220
  484POPI   D2A 7716  17.939   6.812   8.676  0.1081  0.1441 -0.0429
  484POPI   C3A 7717  17.733   6.887   8.408 -0.1775 -0.0515  0.3336
  484POPI   C4A 7718  17.424   7.188   8.356  0.2494  0.1373 -0.0534
  484POPI   C1B 7719  17.943   7.608   9.214 -0.1470 -0.0227 -0.2743
  484POPI   C2B 7720  17.759   7.491   8.744 -0.0792 -0.0634  0.0737
  484POPI   C3B 7721  17.705   7.580   8.334 -0.1395 -0.0554 -0.2498
  484POPI   C4B 7722  17.427   7.982   8.358 -0.0145  0.3123 -0.2957
  485POPI    C1 7723   6.062  10.879   9.651  0.0014 -0.0957 -0.0594
  485POPI    C2 7724   6.094  11.064  10.004  0.0174  0.0014 -0.1114
  485POPI    C3 7725   5.741  10.919   9.886 -0.0237  0.1138 -0.1275
  485POPI   PO4 7726   6.284  10.746   9.660 -0.1966  0.1946 -0.0139
  485POPI   GL1 7727   6.584  10.690   9.356 -0.1452  0.1918  0.0365
  485POPI   GL2 7728   6.399  10.411   9.191  0.0442 -0.0085 -0.1520
  485POPI   C1A 7729   6.617  11.018   8.961 -0.0206  0.3604 -0.0289
  485POPI   D2A 7730   6.720  11.064   8.473 -0.2835 -0.1696 -0.0287
  485POPI   C3A 7731   6.819  11.407   8.227 -0.1448 -0.0062  0.1765
  485POPI   C4A 7732   7.083  11.803   8.100  0.0440  0.1074 -0.1700
  485POPI   C1B 7733   6.354  10.571   8.810 -0.1402 -0.1493  0.0334
  485POPI   C2B 7734   6.293  10.690   8.341 -0.0864  0.0075  0.1630
  485POPI   C3B 7735   6.618  10.782   8.077  0.0342 -0.2095  0.1496
  485POPI   C4B 7736   7.016  11.045   7.938 -0.1086 -0.0302  0.0871
  486POPI    C1 7737  16.532   6.290  10.541  0.0221 -0.2216 -0.1754
  486POPI    C2 7738  16.313   6.000  10.708  0.0174  0.1302  0.4620
  486POPI    C3 7739  16.690   6.059  10.827  0.1902  0.0698 -0.0291
  486POPI   PO4 7740  16.421   6.210  10.261  0.3433  0.1577 -0.0143
  486POPI   GL1 7741  16.543   6.026   9.952 -0.1305 -0.3722 -0.0015
  486POPI   GL2 7742  16.376   5.800   9.745  0.1977  0.1037  0.1002
  486POPI   C1A 7743  16.323   6.332   9.627 -0.0046  0.1722  0.1844
  486POPI   D2A 7744  16.075   6.618   9.510 -0.0481  0.1240  0.0347
  486POPI   C3A 7745  16.341   6.728   9.069 -0.3277 -0.0459  0.2642
  486POPI   C4A 7746  16.640   6.800   8.723  0.1691 -0.0674  0.1413
  486POPI   C1B 7747  16.686   5.972   9.412 -0.0833 -0.0132  0.2209
  486POPI   C2B 7748  16.865   5.839   9.082  0.1406  0.2688 -0.1136
  486POPI   C3B 7749  17.153   5.551   8.817  0.1522 -0.2564 -0.1131
  486POPI   C4B 7750  17.078   5.656   8.418 -0.2719 -0.0332  0.1398
  487POPI    C1 7751   3.195   5.226   9.798 -0.0745 -0.0536  0.0752
  487POPI    C2 7752   2.982   5.003  10.053  0.0138 -0.2064  0.0160
  487POPI    C3 7753   3.236   5.278  10.193  0.0127 -0.2440  0.0925
  487POPI   PO4 7754   3.145   5.117   9.584 -0.1130 -0.1491  0.0534
  487POPI   GL1 7755   2.876   5.048   9.252 -0.3569 -0.0419  0.0461
  487POPI   GL2 7756   2.631   4.875   9.114 -0.0612  0.2857  0.1324
  487POPI   C1A 7757   2.756   5.300   8.986 -0.1353  0.0294  0.0886
  487POPI   D2A 7758   2.653   5.389   8.537 -0.0852 -0.2798  0.2042
  487POPI   C3A 7759   2.700   5.262   8.151 -0.3026  0.2042 -0.1615
  487POPI   C4A 7760   2.545   5.446   7.764  0.0788  0.0792 -0.1891
  487POPI   C1B 7761   2.639   4.736   8.658 -0.1086  0.1161 -0.0640
  487POPI   C2B 7762   2.533   4.769   8.315  0.1177 -0.1227  0.3345
  487POPI   C3B 7763   2.531   4.515   7.942  0.1766  0.0132 -0.1816
  487POPI   C4B 7764   2.569   4.236   7.654 -0.1185 -0.1027  0.0652
  488POPI    C1 7765   3.876   4.644  10.165  0.0300  0.0148 -0.0476
  488POPI    C2 7766   4.253   4.545  10.253 -0.0630 -0.1083  0.2242
  488POPI    C3 7767   4.130   4.923  10.297  0.0472 -0.0520  0.0613
  488POPI   PO4 7768   3.789   4.402   9.943  0.1476  0.1810 -0.2481
  488POPI   GL1 7769   3.791   4.371   9.445 -0.3784 -0.0222  0.0996
  488POPI   GL2 7770   4.004   4.440   9.295 -0.2369  0.0188  0.0500
  488POPI   C1A 7771   3.470   4.220   9.084 -0.3057  0.3037 -0.0269
  488POPI   D2A 7772   3.433   4.267   8.653 -0.1326 -0.4181  0.2370
  488POPI   C3A 7773   3.301   4.181   8.392 -0.0533 -0.4932  0.2981
  488POPI   C4A 7774   2.949   4.272   8.021 -0.0618  0.2906 -0.3859
  488POPI   C1B 7775   3.908   4.303   8.818 -0.2173  0.0312  0.1358
  488POPI   C2B 7776   4.006   4.353   8.399 -0.0011  0.3566  0.0535
  488POPI   C3B 7777   4.102   4.522   8.082 -0.1537 -0.0852  0.0629
  488POPI   C4B 7778   4.450   4.599   7.924 -0.0257  0.0081  0.0056
  489POPI    C1 7779  12.517  18.494  11.023 -0.0548  0.1913  0.1889
  489POPI    C2 7780  12.662  18.133  11.117 -0.0189  0.1403 -0.0554
  489POPI    C3 7781  12.911  18.442  11.067 -0.0385  0.1693  0.0250
  489POPI   PO4 7782  12.343  18.537  10.843 -0.3099  0.1891  0.3488
  489POPI   GL1 7783  12.279  18.518  10.410 -0.0218  0.0792 -0.1327
  489POPI   GL2 7784  12.427  18.813  10.384  0.1682  0.0095 -0.1324
  489POPI   C1A 7785  12.361  18.540   9.957  0.0990  0.2000 -0.1461
  489POPI   D2A 7786  12.191  18.762   9.643 -0.0037  0.0618  0.2738
  489POPI   C3A 7787  12.368  18.671   9.253 -0.4888 -0.0979 -0.0067
  489POPI   C4A 7788  12.362  18.644   8.866 -0.0114  0.2142 -0.1343
  489POPI   C1B 7789  12.522  19.043   9.959  0.1539 -0.1159 -0.0498
  489POPI   C2B 7790  12.604  19.167   9.537  0.1221 -0.0890  0.0487
  489POPI   C3B 7791  12.674  19.478   9.187 -0.0594 -0.0435  0.0051
  489POPI   C4B 7792  12.602  19.535   8.789  0.1334  0.0387  0.0085
  490POPI    C1 7793   9.408   0.188  10.575  0.2587  0.0932 -0.2094
  490POPI    C2 7794   9.807   0.172  10.600  0.2369  0.0336  0.1463
  490POPI    C3 7795   9.594   0.341  10.894 -0.0158 -0.1596  0.0781
  490POPI   PO4 7796   9.368   0.271  10.307 -0.1519  0.1523 -0.1403
  490POPI   GL1 7797   9.490   0.328   9.918 -0.4431 -0.1175  0.1941
  490POPI   GL2 7798   9.750   0.240   9.710 -0.0593 -0.1260 -0.1173
  490POPI   C1A 7799   9.159   0.399   9.513  0.3579  0.2140  0.0311
  490POPI   D2A 7800   9.212   0.519   9.068 -0.2620  0.4083  0.0033
  490POPI   C3A 7801   9.332   0.331   8.711  0.2084  0.1992  0.1704
  490POPI   C4A 7802   9.480  -0.067   8.516  0.0434 -0.1201 -0.1104
  490POPI   C1B 7803   9.736   0.395   9.253 -0.0549  0.0344  0.1277
  490POPI   C2B 7804   9.754   0.489   8.808 -0.2076 -0.0571 -0.4046
  490POPI   C3B 7805   9.779   0.380   8.443 -0.2603 -0.1772  0.0452
  490POPI   C4B 7806  10.085   0.500   8.192 -0.2996 -0.0478 -0.1639
  491POPI    C1 7807   3.749   8.819  10.302 -0.0398 -0.3010  0.1360
  491POPI    C2 7808   3.679   9.193  10.426 -0.2917 -0.2086 -0.2645
  491POPI    C3 7809   3.715   8.897  10.692 -0.2391  0.0739  0.0487
  491POPI   PO4 7810   3.949   8.783  10.096  0.4253 -0.2109 -0.3538
  491POPI   GL1 7811   4.153   8.653   9.648  0.1063 -0.0361 -0.4537
  491POPI   GL2 7812   4.412   8.456   9.475 -0.1543  0.3924 -0.1769
  491POPI   C1A 7813   4.004   8.565   9.245  0.0364 -0.0381  0.1780
  491POPI   D2A 7814   4.109   8.329   8.963 -0.0389  0.3844 -0.0218
  491POPI   C3A 7815   3.868   8.371   8.629  0.1613 -0.0009  0.1347
  491POPI   C4A 7816   3.841   8.546   8.191 -0.2085 -0.0545  0.1826
  491POPI   C1B 7817   4.500   8.131   9.247 -0.1461 -0.4433  0.2294
  491POPI   C2B 7818   4.368   7.906   8.828 -0.1667  0.1717 -0.0460
  491POPI   C3B 7819   4.514   7.790   8.400  0.0097  0.1417  0.0672
  491POPI   C4B 7820   4.627   7.416   8.122 -0.1518  0.0642  0.0967
  492POPI    C1 7821  12.178   5.250  10.138  0.0112 -0.2152 -0.0328
  492POPI    C2 7822  12.554   5.335  10.244 -0.0173  0.0947 -0.1691
  492POPI    C3 7823  12.268   5.311  10.523  0.0761 -0.0012 -0.0805
  492POPI   PO4 7824  12.015   5.326   9.867 -0.3863  0.0958 -0.2017
  492POPI   GL1 7825  12.006   5.229   9.353  0.1128 -0.0475 -0.1680
  492POPI   GL2 7826  12.332   5.255   9.304 -0.3478 -0.0522  0.3272
  492POPI   C1A 7827  12.061   5.067   8.917  0.2382  0.0659  0.0898
  492POPI   D2A 7828  12.232   4.823   8.688 -0.2981 -0.0901 -0.3459
  492POPI   C3A 7829  12.351   4.998   8.296  0.0563 -0.1549 -0.2839
  492POPI   C4A 7830  12.692   5.210   8.236 -0.3838  0.1044  0.0367
  492POPI   C1B 7831  12.432   4.829   9.184 -0.1224  0.4641 -0.1800
  492POPI   C2B 7832  12.715   4.549   9.145  0.1687 -0.0816  0.0695
  492POPI   C3B 7833  12.830   4.407   8.876  0.2018  0.0110 -0.0093
  492POPI   C4B 7834  12.897   4.317   8.420 -0.3707 -0.0116  0.2733
  493POPI    C1 7835  13.413   2.435  10.750 -0.0913  0.0231 -0.0985
  493POPI    C2 7836  13.605   2.098  10.653 -0.1784 -0.1803  0.4043
  493POPI    C3 7837  13.402   2.120  10.997 -0.1960  0.3802  0.3664
  493POPI   PO4 7838  13.347   2.509  10.496  0.0222 -0.0803 -0.0421
  493POPI   GL1 7839  13.496   2.733  10.067  0.0781  0.0350  0.1181
  493POPI   GL2 7840  13.251   2.651  10.056 -0.1138  0.0342 -0.2137
  493POPI   C1A 7841  13.531   2.669   9.594  0.0339  0.0555  0.0539
  493POPI   D2A 7842  13.673   2.626   9.092 -0.0164 -0.0398  0.0420
  493POPI   C3A 7843  13.541   2.966   8.877  0.1578  0.1248 -0.2147
  493POPI   C4A 7844  13.768   3.109   8.443 -0.0518  0.4612 -0.0141
  493POPI   C1B 7845  13.051   2.633   9.725  0.1689 -0.4169  0.0708
  493POPI   C2B 7846  13.153   2.763   9.300  0.2103  0.0212 -0.0952
  493POPI   C3B 7847  12.965   2.925   8.900 -0.0732  0.3568  0.3643
  493POPI   C4B 7848  13.049   2.832   8.391  0.3282 -0.0219  0.0464
  494POPI    C1 7849  10.084   9.540  10.115  0.3552 -0.1775 -0.1416
  494POPI    C2 7850  10.049   9.938  10.140  0.1146 -0.2013 -0.0737
  494POPI    C3 7851  10.216   9.732  10.440  0.0541 -0.1711 -0.0189
  494POPI   PO4 7852  10.028   9.545   9.847  0.2686 -0.2619  0.1482
  494POPI   GL1 7853   9.878   9.626   9.472  0.2238  0.3541 -0.2440
  494POPI   GL2 7854  10.245   9.726   9.373  0.2349 -0.2320 -0.0372
  494POPI   C1A 7855   9.721   9.651   9.050 -0.0747  0.0751  0.2534
  494POPI   D2A 7856   9.720   9.721   8.656 -0.1213 -0.3283 -0.0310
  494POPI   C3A 7857   9.657   9.993   8.373 -0.2165 -0.0516 -0.0214
  494POPI   C4A 7858   9.737  10.123   7.941 -0.1216  0.3260 -0.1089
  494POPI   C1B 7859  10.116   9.890   8.998 -0.0830  0.0021  0.0192
  494POPI   C2B 7860  10.153   9.925   8.562  0.1526 -0.3316 -0.2569
  494POPI   C3B 7861  10.169  10.080   8.135  0.3893  0.1742 -0.2656
  494POPI   C4B 7862  10.113  10.434   7.932 -0.1756 -0.2348  0.2935
  495POPI    C1 7863  15.949   8.840  10.177 -0.4412  0.3219 -0.1243
  495POPI    C2 7864  15.680   8.584  10.324 -0.2138  0.0462 -0.1794
  495POPI    C3 7865  15.771   8.916  10.527 -0.1368 -0.1713  0.1501
  495POPI   PO4 7866  15.965   8.855   9.960 -0.1890 -0.0915 -0.1421
  495POPI   GL1 7867  16.106   9.000   9.645 -0.0725  0.0160  0.1322
  495POPI   GL2 7868  16.409   9.063   9.531  0.0457 -0.1963 -0.0244
  495POPI   C1A 7869  16.055   8.958   9.191 -0.0565  0.1130 -0.2031
  495POPI   D2A 7870  16.021   9.081   8.816 -0.1778 -0.0189  0.0089
  495POPI   C3A 7871  16.142   9.518   8.617  0.0142  0.1661 -0.1450
  495POPI   C4A 7872  16.315   9.805   8.536  0.2345 -0.1153  0.2228
  495POPI   C1B 7873  16.562   8.953   9.154 -0.4529 -0.0385  0.0877
  495POPI   C2B 7874  16.792   8.814   8.884  0.1270 -0.0604  0.1970
  495POPI   C3B 7875  16.894   8.941   8.549  0.0855  0.0929  0.1437
  495POPI   C4B 7876  16.633   8.924   8.109  0.3572  0.2745 -0.1637
  496POPI    C1 7877  14.187   2.188  10.343 -0.0926 -0.1177  0.2625
  496POPI    C2 7878  14.487   1.935  10.423  0.0501  0.0620  0.3031
  496POPI    C3 7879  14.335   2.163  10.714 -0.2102 -0.1161  0.3096
  496POPI   PO4 7880  13.946   2.043  10.239  0.2685  0.2536 -0.1889
  496POPI   GL1 7881  13.843   1.809   9.881  0.2991 -0.0193 -0.5858
  496POPI   GL2 7882  13.796   1.461   9.972  0.2320 -0.1502 -0.3509
  496POPI   C1A 7883  14.015   1.857   9.450 -0.1498 -0.0448  0.1627
  496POPI   D2A 7884  14.383   1.878   9.135 -0.1250  0.1155  0.2010
  496POPI   C3A 7885  14.505   1.532   8.887  0.2122  0.0248 -0.1046
  496POPI   C4A 7886  14.310   1.569   8.494  0.1781  0.0483 -0.1746
  496POPI   C1B 7887  13.902   1.196   9.628 -0.2439 -0.2899 -0.0659
  496POPI   C2B 7888  14.103   0.973   9.309  0.0705  0.2004 -0.0755
  496POPI   C3B 7889  14.086   0.616   9.051 -0.0461 -0.2004 -0.2943
  496POPI   C4B 7890  14.253   0.378   8.714 -0.0874 -0.0254  0.1037
  497POPI    C1 7891  16.603  17.725  10.232 -0.1509 -0.0559 -0.1327
  497POPI    C2 7892  16.633  18.118  10.168 -0.0762 -0.0248  0.0823
  497POPI    C3 7893  16.953  17.883  10.119 -0.0074  0.0050  0.3698
  497POPI   PO4 7894  16.258  17.741  10.255  0.3827 -0.0689  0.2425
  497POPI   GL1 7895  16.012  18.115  10.066 -0.1735 -0.0802  0.4167
  497POPI   GL2 7896  15.711  17.852  10.256 -0.2502 -0.3098  0.4570
  497POPI   C1A 7897  15.876  18.161   9.672 -0.1344  0.0903 -0.0084
  497POPI   D2A 7898  15.524  18.000   9.482 -0.2326  0.0413  0.0037
  497POPI   C3A 7899  15.471  18.370   9.236 -0.1854  0.3435 -0.1660
  497POPI   C4A 7900  15.435  18.798   8.949 -0.1785  0.2659 -0.3628
  497POPI   C1B 7901  15.432  18.097  10.052  0.0381  0.0229 -0.2230
  497POPI   C2B 7902  15.510  18.473   9.828 -0.0124 -0.2620 -0.1173
  497POPI   C3B 7903  15.561  18.844   9.714  0.2243  0.4039  0.1682
  497POPI   C4B 7904  15.457  19.100   9.408 -0.2543 -0.1645 -0.0504
  498POPI    C1 7905  12.744  13.078  10.324 -0.2602  0.1888 -0.0142
  498POPI    C2 7906  12.657  12.875  10.657  0.0228  0.0682 -0.0110
  498POPI    C3 7907  12.685  13.274  10.667 -0.1039  0.0755  0.0784
  498POPI   PO4 7908  12.965  12.898  10.157 -0.1603  0.0152  0.1530
  498POPI   GL1 7909  13.091  12.774   9.729  0.0538 -0.0501 -0.0359
  498POPI   GL2 7910  12.845  12.513   9.633  0.1326  0.1805 -0.3703
  498POPI   C1A 7911  12.790  13.033   9.387  0.3104 -0.1193 -0.2695
  498POPI   D2A 7912  12.646  13.030   8.905 -0.1207 -0.2682 -0.1970
  498POPI   C3A 7913  12.792  12.928   8.453 -0.0527 -0.0732 -0.0395
  498POPI   C4A 7914  13.000  12.983   8.070  0.0034  0.0279 -0.2665
  498POPI   C1B 7915  12.932  12.581   9.217 -0.1072 -0.1268  0.0514
  498POPI   C2B 7916  13.125  12.739   8.846 -0.0414  0.2119 -0.3739
  498POPI   C3B 7917  13.240  12.694   8.413  0.0222  0.0868  0.0207
  498POPI   C4B 7918  13.040  12.504   7.977 -0.0575 -0.2515 -0.1526
  499POPI    C1 7919  18.353  17.684  10.435  0.2606  0.0706  0.0197
  499POPI    C2 7920  18.422  17.338  10.622 -0.3399 -0.1762 -0.1917
  499POPI    C3 7921  18.184  17.611  10.790 -0.2593 -0.0714 -0.2469
  499POPI   PO4 7922  18.312  17.542  10.116 -0.0769 -0.0398  0.0635
  499POPI   GL1 7923  18.262  17.762   9.679 -0.0442 -0.0648  0.3493
  499POPI   GL2 7924  17.977  17.581   9.470 -0.1853 -0.3333  0.1982
  499POPI   C1A 7925  18.442  17.534   9.333  0.0372 -0.1445  0.0808
  499POPI   D2A 7926  18.582  17.533   8.969  0.2424 -0.2804 -0.0027
  499POPI   C3A 7927  18.377  17.583   8.611  0.0217  0.0619 -0.3166
  499POPI   C4A 7928  18.365  17.918   8.335 -0.0426  0.2499 -0.0214
  499POPI   C1B 7929  18.066  17.443   8.997  0.2815  0.2079 -0.0886
  499POPI   C2B 7930  17.957  17.323   8.728 -0.0372 -0.2280  0.2410
  499POPI   C3B 7931  17.986  17.011   8.513  0.1425  0.1822 -0.2558
  499POPI   C4B 7932  17.948  16.782   8.134  0.1824 -0.0873 -0.1377
  500POPI    C1 7933   0.037  14.444   9.713 -0.1144 -0.3563  0.0766
  500POPI    C2 7934  -0.179  14.536  10.037 -0.0941  0.2504 -0.0706
  500POPI    C3 7935   0.211  14.625  10.024 -0.0213 -0.0672 -0.1391
  500POPI   PO4 7936   0.051  14.158   9.665 -0.4114  0.1557  0.0157
  500POPI   GL1 7937   0.038  13.771   9.406 -0.0392  0.1260 -0.5003
  500POPI   GL2 7938   0.280  13.792   9.240 -0.0859  0.1037 -0.2013
  500POPI   C1A 7939  -0.314  13.588   9.126 -0.2869 -0.1768 -0.0412
  500POPI   D2A 7940  -0.724  13.494   8.934 -0.0286  0.0265  0.1960
  500POPI   C3A 7941  -0.827  13.552   8.614  0.1370  0.3797 -0.1850
  500POPI   C4A 7942  -0.926  13.656   8.281 -0.1663  0.0563 -0.1307
  500POPI   C1B 7943   0.082  13.803   8.850 -0.0478 -0.2660  0.0974
  500POPI   C2B 7944  -0.223  13.791   8.551 -0.0221  0.2122  0.0690
  500POPI   C3B 7945  -0.394  13.992   8.146 -0.0170  0.2262  0.2927
  500POPI   C4B 7946  -0.802  14.010   7.916 -0.1198  0.5201 -0.0090
  501POPI    C1 7947   4.517  14.634   9.756 -0.4242  0.0006 -0.2190
  501POPI    C2 7948   4.668  14.265   9.794  0.1609  0.2670  0.1899
  501POPI    C3 7949   4.455  14.425  10.092 -0.2044  0.2177 -0.0394
  501POPI   PO4 7950   4.380  14.674   9.569 -0.3012 -0.1735  0.4650
  501POPI   GL1 7951   4.235  14.831   9.125 -0.0564 -0.0133  0.0293
  501POPI   GL2 7952   4.164  15.158   9.146  0.1635 -0.1074  0.1324
  501POPI   C1A 7953   4.171  14.569   8.762  0.0818 -0.2227  0.0412
  501POPI   D2A 7954   4.142  14.619   8.354 -0.1514  0.0854  0.0332
  501POPI   C3A 7955   3.855  14.604   8.049  0.1876  0.1375  0.2774
  501POPI   C4A 7956   3.660  14.728   7.672  0.1046  0.2694  0.1647
  501POPI   C1B 7957   3.977  15.032   8.710  0.0726 -0.2828  0.0486
  501POPI   C2B 7958   3.953  15.091   8.230 -0.1343 -0.1477 -0.0261
  501POPI   C3B 7959   4.024  15.067   7.801  0.1195  0.1911  0.1293
  501POPI   C4B 7960   3.987  15.389   7.367 -0.0077 -0.0989 -0.1983
  502POPI    C1 7961  13.973   4.762  10.469 -0.1605 -0.1135 -0.2047
  502POPI    C2 7962  13.596   4.700  10.588 -0.0516  0.0132  0.2217
  502POPI    C3 7963  13.901   4.588  10.822  0.1748  0.0743 -0.0389
  502POPI   PO4 7964  13.934   4.938  10.205 -0.1079 -0.1830  0.3993
  502POPI   GL1 7965  14.029   5.180   9.750 -0.1187  0.0809  0.1542
  502POPI   GL2 7966  13.885   5.527   9.834  0.0065 -0.0145  0.0615
  502POPI   C1A 7967  14.047   5.167   9.286 -0.0252  0.3481 -0.0483
  502POPI   D2A 7968  13.898   5.056   8.883 -0.1347  0.5176  0.0493
  502POPI   C3A 7969  13.759   5.043   8.518 -0.1741  0.0773 -0.1996
  502POPI   C4A 7970  13.596   5.062   8.122  0.0957  0.1693  0.1550
  502POPI   C1B 7971  13.967   5.587   9.378 -0.1033 -0.2378 -0.0483
  502POPI   C2B 7972  14.028   5.726   8.972 -0.1354 -0.2095  0.0903
  502POPI   C3B 7973  14.044   5.503   8.573 -0.0216 -0.2452 -0.0721
  502POPI   C4B 7974  14.282   5.776   8.213  0.0154  0.0454  0.0268
  503POPI    C1 7975   0.213  17.117  10.025 -0.0935  0.0485 -0.0073
  503POPI    C2 7976   0.597  17.048  10.113 -0.1477 -0.0138  0.1866
  503POPI    C3 7977   0.335  17.123  10.406 -0.2704  0.0996  0.0499
  503POPI   PO4 7978   0.081  16.944   9.765 -0.0414 -0.0658  0.0054
  503POPI   GL1 7979  -0.066  17.102   9.387  0.0433 -0.2810  0.0635
  503POPI   GL2 7980  -0.141  16.749   9.341  0.0991 -0.0870 -0.0896
  503POPI   C1A 7981   0.201  17.255   9.116  0.0462  0.1869  0.1229
  503POPI   D2A 7982   0.191  17.390   8.674  0.4425  0.0342  0.2073
  503POPI   C3A 7983  -0.100  17.399   8.296  0.2672 -0.1902  0.2738
  503POPI   C4A 7984  -0.523  17.390   8.168  0.0564 -0.1767 -0.0532
  503POPI   C1B 7985   0.034  16.762   8.958  0.0052 -0.1815 -0.0086
  503POPI   C2B 7986  -0.050  16.619   8.579 -0.1480 -0.3443  0.4038
  503POPI   C3B 7987   0.054  16.739   8.237 -0.0595 -0.1525  0.0035
  503POPI   C4B 7988   0.214  16.737   7.821 -0.2280 -0.2851 -0.4305
  504POPI    C1 7989  15.789  16.956  10.847 -0.1655 -0.2200 -0.0889
  504POPI    C2 7990  16.180  17.016  10.906 -0.1332  0.1115 -0.5826
  504POPI    C3 7991  15.998  16.704  11.077  0.2736  0.1322 -0.0877
  504POPI   PO4 7992  15.755  16.929  10.576 -0.1024 -0.0286  0.2307
  504POPI   GL1 7993  15.520  17.031  10.278 -0.2980 -0.3578 -0.0830
  504POPI   GL2 7994  15.787  17.151  10.075 -0.1798 -0.1722 -0.2477
  504POPI   C1A 7995  15.127  16.872  10.186 -0.0539 -0.1775  0.2592
  504POPI   D2A 7996  14.698  16.858  10.251  0.3505  0.0008 -0.0092
  504POPI   C3A 7997  14.483  17.287  10.276 -0.1814  0.3424  0.2415
  504POPI   C4A 7998  14.443  17.574   9.960  0.1674  0.1989  0.2426
  504POPI   C1B 7999  15.880  17.152   9.614 -0.0667  0.0811  0.1400
  504POPI   C2B 8000  15.811  17.096   9.155  0.0770  0.0141  0.1190
  504POPI   C3B 8001  15.664  16.841   8.820  0.1268 -0.1494  0.1492
  504POPI   C4B 8002  15.388  16.881   8.441  0.1169  0.3183  0.1407
  505POPI    C1 8003  12.001   2.744  10.452  0.0052  0.1103  0.0047
  505POPI    C2 8004  12.368   2.588  10.434 -0.0681 -0.0555 -0.0719
  505POPI    C3 8005  12.275   2.848  10.724  0.0135 -0.2638  0.1452
  505POPI   PO4 8006  11.964   2.825  10.210  0.1582  0.1325  0.0648
  505POPI   GL1 8007  12.097   3.060   9.802  0.0522 -0.2180 -0.0353
  505POPI   GL2 8008  12.400   3.349   9.823  0.0386 -0.2648  0.0389
  505POPI   C1A 8009  12.164   2.867   9.411 -0.2652 -0.0545  0.0130
  505POPI   D2A 8010  12.232   2.605   9.102  0.1432 -0.0424 -0.1289
  505POPI   C3A 8011  12.222   2.607   8.589  0.0857 -0.2847  0.0820
  505POPI   C4A 8012  12.033   2.603   8.167  0.3216 -0.2552  0.0188
  505POPI   C1B 8013  12.402   3.436   9.399 -0.0954  0.2213 -0.2201
  505POPI   C2B 8014  12.259   3.501   8.959 -0.0204 -0.0556  0.4211
  505POPI   C3B 8015  11.940   3.498   8.574 -0.1007  0.0366 -0.4532
  505POPI   C4B 8016  11.706   3.457   8.109  0.0447  0.0254  0.1190
  506POPI    C1 8017   3.812  10.103   9.985 -0.0884 -0.1515  0.1585
  506POPI    C2 8018   3.445  10.041   9.836  0.0362 -0.3408 -0.0766
  506POPI    C3 8019   3.692  10.302   9.660 -0.1061  0.0511  0.2873
  506POPI   PO4 8020   3.955   9.875   9.951  0.0369  0.0893 -0.0947
  506POPI   GL1 8021   4.289   9.922   9.729  0.0265  0.2353 -0.0840
  506POPI   GL2 8022   4.267   9.553   9.628  0.3166  0.1654  0.2191
  506POPI   C1A 8023   4.328   9.858   9.274 -0.0662  0.0563  0.0979
  506POPI   D2A 8024   4.207   9.711   8.875  0.3028 -0.0235  0.3920
  506POPI   C3A 8025   4.203   9.289   8.789 -0.0811  0.2042  0.2413
  506POPI   C4A 8026   4.200   8.901   8.951  0.1713 -0.1572  0.1743
  506POPI   C1B 8027   4.398   9.334   9.257 -0.0911  0.1856  0.2954
  506POPI   C2B 8028   4.676   9.020   8.996  0.2574 -0.3936  0.0191
  506POPI   C3B 8029   4.813   9.163   8.526 -0.0366 -0.0164 -0.0302
  506POPI   C4B 8030   4.917   8.957   8.183  0.1453  0.0556 -0.1983
  507POPI    C1 8031  14.789   6.300  10.420  0.2706  0.1654 -0.0755
  507POPI    C2 8032  14.851   5.943  10.590 -0.2333  0.1717  0.1389
  507POPI    C3 8033  14.920   6.277  10.798  0.2135  0.2054 -0.0531
  507POPI   PO4 8034  14.553   6.310  10.320 -0.0731  0.1640 -0.1030
  507POPI   GL1 8035  14.510   6.102   9.936  0.2270  0.3250  0.1379
  507POPI   GL2 8036  14.698   6.198   9.615 -0.2147 -0.1529 -0.0106
  507POPI   C1A 8037  14.260   6.024   9.638  0.2954 -0.1460  0.1178
  507POPI   D2A 8038  13.943   6.115   9.314 -0.4867 -0.0075  0.1223
  507POPI   C3A 8039  14.145   6.150   8.898 -0.1555 -0.3034  0.3562
  507POPI   C4A 8040  14.308   6.197   8.543 -0.1347  0.3282  0.2249
  507POPI   C1B 8041  14.556   6.185   9.209  0.2230 -0.0215 -0.0164
  507POPI   C2B 8042  14.708   6.302   8.791  0.1771  0.0363 -0.0506
  507POPI   C3B 8043  14.989   6.320   8.433  0.1123 -0.0330 -0.1556
  507POPI   C4B 8044  15.320   6.423   8.199 -0.0420  0.0143 -0.3590
  508POPI    C1 8045   7.346   9.903  10.020 -0.1606 -0.2218 -0.4411
  508POPI    C2 8046   7.247  10.156  10.314  0.1789 -0.0160 -0.4986
  508POPI    C3 8047   6.996   9.863  10.210  0.0948 -0.1551  0.0618
  508POPI   PO4 8048   7.430  10.074   9.811  0.0151 -0.1234 -0.1062
  508POPI   GL1 8049   7.428  10.097   9.447 -0.1990 -0.1966 -0.1426
  508POPI   GL2 8050   7.214  10.028   9.243 -0.0058  0.0871  0.0834
  508POPI   C1A 8051   7.583  10.300   9.017 -0.2211  0.0019 -0.1647
  508POPI   D2A 8052   7.489  10.427   8.642  0.0821  0.2006 -0.0049
  508POPI   C3A 8053   7.477  10.270   8.235  0.2287  0.3718 -0.2259
  508POPI   C4A 8054   7.427  10.101   7.737 -0.0549 -0.1267 -0.0331
  508POPI   C1B 8055   7.200  10.037   8.855  0.1002 -0.2125 -0.0896
  508POPI   C2B 8056   7.089   9.971   8.451  0.0045  0.1448  0.0894
  508POPI   C3B 8057   7.017  10.065   8.005  0.0622  0.2213 -0.1698
  508POPI   C4B 8058   6.955  10.115   7.613  0.0044 -0.0477 -0.1731
  509POPI    C1 8059  13.145  14.823  10.315  0.1430  0.0052  0.2244
  509POPI    C2 8060  13.398  15.133  10.310 -0.0855  0.1937 -0.0688
  509POPI    C3 8061  13.154  15.079  10.623  0.0644  0.2169  0.0537
  509POPI   PO4 8062  13.141  14.814  10.030 -0.0368  0.3890 -0.0154
  509POPI   GL1 8063  13.221  15.130   9.768 -0.0591 -0.1087 -0.1739
  509POPI   GL2 8064  13.135  14.844   9.514 -0.0249 -0.1962 -0.2952
  509POPI   C1A 8065  13.388  15.237   9.385 -0.0986  0.0931  0.2465
  509POPI   D2A 8066  13.740  15.278   9.121  0.0339 -0.1244 -0.2787
  509POPI   C3A 8067  13.676  15.502   8.845 -0.2336 -0.1943  0.0701
  509POPI   C4A 8068  13.717  15.771   8.480  0.1803  0.1319 -0.1673
  509POPI   C1B 8069  13.075  14.980   9.099  0.0510 -0.0643  0.2200
  509POPI   C2B 8070  13.035  15.009   8.641 -0.1970  0.0312  0.2204
  509POPI   C3B 8071  13.231  14.784   8.427 -0.0909 -0.2863 -0.0062
  509POPI   C4B 8072  13.690  14.556   8.536  0.1154 -0.2476  0.0032
  510POPI    C1 8073  16.242  18.728  10.740  0.0500  0.0331  0.0801
  510POPI    C2 8074  16.056  18.491  11.004  0.1035 -0.0104  0.0789
  510POPI    C3 8075  16.021  18.888  11.032 -0.0067 -0.0191  0.0660
  510POPI   PO4 8076  16.121  18.678  10.445 -0.4130 -0.1077  0.1736
  510POPI   GL1 8077  16.283  18.497  10.154 -0.0003  0.1340  0.0766
  510POPI   GL2 8078  16.010  18.595   9.915  0.4277 -0.1145 -0.4509
  510POPI   C1A 8079  16.424  18.304   9.769  0.1223 -0.2388 -0.0632
  510POPI   D2A 8080  16.291  18.262   9.364  0.1607  0.0073 -0.0623
  510POPI   C3A 8081  16.385  18.144   8.898  0.0813  0.0106 -0.0816
  510POPI   C4A 8082  16.154  17.750   8.614  0.0505  0.0180  0.2014
  510POPI   C1B 8083  15.945  18.608   9.405 -0.1270  0.1395  0.0258
  510POPI   C2B 8084  15.892  18.564   8.997  0.1816  0.1227 -0.1574
  510POPI   C3B 8085  15.659  18.651   8.533  0.1259  0.4046  0.0883
  510POPI   C4B 8086  15.819  18.620   8.158  0.2027  0.1089  0.4875
  511POPI    C1 8087   3.717   5.555   9.964  0.1489  0.1436  0.1661
  511POPI    C2 8088   3.638   5.619  10.351 -0.1515 -0.1119  0.1508
  511POPI    C3 8089   3.933   5.371  10.245 -0.2378 -0.2454  0.2200
  511POPI   PO4 8090   3.696   5.892   9.886  0.1206 -0.0706 -0.0069
  511POPI   GL1 8091   3.671   6.158   9.524  0.0289  0.0842  0.2927
  511POPI   GL2 8092   3.350   6.406   9.434 -0.2751  0.0070 -0.1961
  511POPI   C1A 8093   3.416   6.080   9.123 -0.2664  0.1331 -0.1540
  511POPI   D2A 8094   3.405   6.124   8.685 -0.0615 -0.0436  0.0907
  511POPI   C3A 8095   3.177   6.103   8.262  0.0701  0.1828 -0.1558
  511POPI   C4A 8096   2.948   6.200   7.923 -0.2037  0.2667 -0.0378
  511POPI   C1B 8097   3.229   6.702   9.241 -0.0355  0.1777 -0.1527
  511POPI   C2B 8098   3.168   6.618   8.832  0.1787  0.0730  0.2836
  511POPI   C3B 8099   2.830   6.439   8.410 -0.2425 -0.0705 -0.1976
  511POPI   C4B 8100   2.552   6.403   8.123 -0.0561 -0.1988  0.0110
  512POPI    C1 8101  17.094   8.087  10.085  0.0669 -0.3529  0.0533
  512POPI    C2 8102  16.810   7.919  10.311 -0.1679  0.2762  0.2483
  512POPI    C3 8103  17.100   8.135  10.482  0.1375  0.0680  0.0058
  512POPI   PO4 8104  16.961   7.898   9.835  0.0108 -0.1928 -0.1543
  512POPI   GL1 8105  16.936   7.636   9.493 -0.0122  0.1373  0.3943
  512POPI   GL2 8106  17.058   7.304   9.445 -0.2449 -0.0528 -0.1943
  512POPI   C1A 8107  16.822   7.824   9.113 -0.1211  0.0841 -0.3823
  512POPI   D2A 8108  16.467   7.960   8.815  0.1074 -0.0156 -0.1605
  512POPI   C3A 8109  16.528   8.187   8.432  0.0346 -0.0455 -0.0708
  512POPI   C4A 8110  16.343   8.423   8.086  0.0063  0.2828 -0.1663
  512POPI   C1B 8111  16.780   7.356   9.007 -0.2657  0.3048 -0.2255
  512POPI   C2B 8112  16.557   7.492   8.562 -0.1798  0.0697  0.0690
  512POPI   C3B 8113  16.500   7.685   8.146 -0.2121 -0.1653 -0.0076
  512POPI   C4B 8114  16.377   7.972   7.928 -0.1929  0.4153 -0.1071
  513POPI    C1 8115  11.568  14.237  10.154  0.0483 -0.1073 -0.0284
  513POPI    C2 8116  11.253  14.437  10.298  0.0777  0.1211 -0.2721
  513POPI    C3 8117  11.203  14.073  10.141 -0.0586  0.1407 -0.2760
  513POPI   PO4 8118  11.787  14.422  10.073 -0.2408  0.1629  0.1948
  513POPI   GL1 8119  11.966  14.831   9.916  0.0167 -0.0521 -0.2999
  513POPI   GL2 8120  12.217  14.510   9.908 -0.0714  0.0267 -0.1223
  513POPI   C1A 8121  12.207  14.995   9.577 -0.2862 -0.0280 -0.0967
  513POPI   D2A 8122  12.030  15.182   9.241 -0.1651 -0.0407  0.2665
  513POPI   C3A 8123  12.095  15.381   8.945  0.0387 -0.0426 -0.1136
  513POPI   C4A 8124  11.930  15.341   8.525 -0.1745  0.1541  0.1899
  513POPI   C1B 8125  12.101  14.549   9.505  0.0176 -0.1246  0.4511
  513POPI   C2B 8126  12.132  14.685   9.109  0.1716 -0.1861 -0.0317
  513POPI   C3B 8127  12.152  14.920   8.712 -0.0705 -0.1179 -0.0501
  513POPI   C4B 8128  12.117  14.735   8.382  0.0123  0.2675 -0.0764
  514POPI    C1 8129  10.849   9.629   9.997 -0.0948 -0.0142  0.1413
  514POPI    C2 8130  10.572   9.374   9.861  0.0291 -0.0652 -0.0186
  514POPI    C3 8131  10.481   9.760   9.912 -0.1490 -0.1323  0.1904
  514POPI   PO4 8132  11.018   9.585   9.921 -0.1571  0.0221  0.0938
  514POPI   GL1 8133  11.070   9.403   9.514 -0.0602  0.2092  0.1202
  514POPI   GL2 8134  11.272   9.446   9.305 -0.1900  0.3740 -0.0496
  514POPI   C1A 8135  10.944   8.943   9.305 -0.3613 -0.0639 -0.1143
  514POPI   D2A 8136  10.957   8.628   9.103  0.3869 -0.0456 -0.2459
  514POPI   C3A 8137  10.531   8.404   9.053 -0.1617 -0.0582  0.0104
  514POPI   C4A 8138  10.282   7.993   8.841 -0.1029  0.1786 -0.1506
  514POPI   C1B 8139  11.028   9.544   8.914 -0.0865  0.2434 -0.0916
  514POPI   C2B 8140  11.080   9.753   8.522 -0.0027 -0.0484 -0.0254
  514POPI   C3B 8141  11.361   9.861   8.150  0.1406  0.1858 -0.0260
  514POPI   C4B 8142  11.410   9.792   7.767 -0.0087 -0.0092  0.1701
  515POPI    C1 8143   0.718  15.376   9.944  0.1099  0.0096  0.0574
  515POPI    C2 8144   0.630  15.673  10.197  0.0883 -0.0979  0.1768
  515POPI    C3 8145   1.004  15.532  10.176  0.0878 -0.0963  0.1570
  515POPI   PO4 8146   0.597  15.505   9.722 -0.2453 -0.0678  0.2836
  515POPI   GL1 8147   0.692  15.609   9.285  0.3762 -0.0021 -0.0636
  515POPI   GL2 8148   0.501  15.329   9.282  0.2308 -0.1851  0.0214
  515POPI   C1A 8149   0.958  15.607   8.945  0.0730  0.2140  0.1811
  515POPI   D2A 8150   1.188  15.697   8.580 -0.1959  0.1031  0.1569
  515POPI   C3A 8151   1.080  15.478   8.201 -0.0007  0.4023 -0.3004
  515POPI   C4A 8152   0.716  15.367   7.990 -0.0446 -0.1250  0.1558
  515POPI   C1B 8153   0.380  15.260   8.895  0.0442  0.2060  0.1842
  515POPI   C2B 8154   0.308  15.303   8.479  0.0129  0.2122 -0.3174
  515POPI   C3B 8155   0.215  15.307   8.063 -0.0544  0.3065  0.1320
  515POPI   C4B 8156   0.215  15.598   7.802 -0.2267  0.3172 -0.0426
  516POPI    C1 8157   6.697  17.418   9.934  0.3067  0.1019 -0.0673
  516POPI    C2 8158   6.637  17.118  10.191  0.0723  0.1806 -0.0268
  516POPI    C3 8159   6.702  17.488  10.328 -0.0565  0.2236 -0.0800
  516POPI   PO4 8160   6.580  17.282   9.678  0.0517  0.0770 -0.0963
  516POPI   GL1 8161   6.648  17.383   9.349  0.2207 -0.0884  0.0336
  516POPI   GL2 8162   6.473  17.203   9.199 -0.2654  0.0367 -0.2179
  516POPI   C1A 8163   6.704  17.602   8.987  0.2040  0.2830 -0.0541
  516POPI   D2A 8164   6.569  17.629   8.579  0.0540  0.1507 -0.1367
  516POPI   C3A 8165   6.376  17.841   8.293  0.2956 -0.0022  0.0250
  516POPI   C4A 8166   6.164  17.796   7.857  0.0199 -0.2445  0.2475
  516POPI   C1B 8167   6.204  17.265   8.763 -0.0066  0.1494 -0.0443
  516POPI   C2B 8168   6.000  17.590   8.498 -0.0715 -0.1288 -0.3429
  516POPI   C3B 8169   5.875  17.914   8.254 -0.3437  0.0367 -0.0511
  516POPI   C4B 8170   5.729  18.186   8.003  0.0309 -0.1029 -0.0861
  517POPI    C1 8171   4.875   3.024  10.068 -0.0780 -0.1630  0.1024
  517POPI    C2 8172   5.004   3.382  10.192  0.0587 -0.1174 -0.1640
  517POPI    C3 8173   4.996   3.073  10.447 -0.1125  0.0856  0.0824
  517POPI   PO4 8174   4.660   3.093   9.956 -0.0835 -0.0102  0.1322
  517POPI   GL1 8175   4.674   3.019   9.557  0.1210 -0.1442  0.1133
  517POPI   GL2 8176   4.741   3.077   9.189  0.0824 -0.0683  0.2594
  517POPI   C1A 8177   4.275   3.168   9.297 -0.2673  0.0760  0.0940
  517POPI   D2A 8178   4.087   3.449   8.935  0.2083 -0.2655 -0.0985
  517POPI   C3A 8179   4.208   3.392   8.566 -0.0173 -0.3368  0.1738
  517POPI   C4A 8180   4.257   3.610   8.046 -0.0414  0.5386 -0.1665
  517POPI   C1B 8181   4.607   3.159   8.821  0.2814 -0.0929 -0.1560
  517POPI   C2B 8182   4.612   3.224   8.309  0.0201 -0.0649  0.1159
  517POPI   C3B 8183   4.571   3.229   7.925 -0.5452  0.2503  0.2887
  517POPI   C4B 8184   4.698   2.930   7.581  0.2293  0.0281  0.1678
  518POPI    C1 8185  16.990  10.043  10.015 -0.0625 -0.4317 -0.0388
  518POPI    C2 8186  16.857  10.157   9.656  0.0084 -0.1587  0.0199
  518POPI    C3 8187  16.631   9.922   9.888 -0.1204 -0.1767 -0.1225
  518POPI   PO4 8188  17.243  10.144  10.010 -0.1065 -0.3272  0.2112
  518POPI   GL1 8189  17.560  10.189   9.693 -0.0704 -0.2419 -0.0796
  518POPI   GL2 8190  17.626  10.479   9.600  0.2267 -0.0303 -0.3882
  518POPI   C1A 8191  17.378  10.132   9.360  0.6987 -0.1853  0.3506
  518POPI   D2A 8192  16.974  10.290   9.192 -0.2045  0.0172  0.1631
  518POPI   C3A 8193  16.927  10.364   8.753  0.1629 -0.3059  0.0789
  518POPI   C4A 8194  17.154  10.558   8.431 -0.2260  0.1928 -0.0539
  518POPI   C1B 8195  17.323  10.672   9.269 -0.0996 -0.3196 -0.0149
  518POPI   C2B 8196  17.214  10.827   8.919  0.0569  0.0131 -0.5445
  518POPI   C3B 8197  16.907  10.957   8.646  0.1028 -0.4270 -0.2629
  518POPI   C4B 8198  16.579  10.714   8.670 -0.2055  0.2766 -0.0033
  519POPI    C1 8199  15.590  17.465  10.626 -0.1246  0.0822 -0.1437
  519POPI    C2 8200  15.694  17.822  10.773 -0.2627  0.0049  0.1492
  519POPI    C3 8201  15.871  17.490  10.910  0.0700 -0.0229 -0.3237
  519POPI   PO4 8202  15.396  17.546  10.507  0.1846  0.3332 -0.1716
  519POPI   GL1 8203  15.320  17.563  10.096 -0.1322  0.0380  0.1297
  519POPI   GL2 8204  15.002  17.899  10.160  0.2497  0.0600  0.3095
  519POPI   C1A 8205  15.688  17.583   9.758  0.4136  0.1209  0.0981
  519POPI   D2A 8206  16.020  17.693   9.512  0.2313 -0.0543 -0.0243
  519POPI   C3A 8207  15.911  17.994   9.064  0.0115 -0.0297  0.0144
  519POPI   C4A 8208  15.781  18.175   8.627  0.0792 -0.1839 -0.2060
  519POPI   C1B 8209  15.159  17.781   9.748 -0.0490  0.3595  0.2601
  519POPI   C2B 8210  15.068  17.421   9.458  0.1088 -0.1081 -0.1542
  519POPI   C3B 8211  14.873  17.414   9.129 -0.1262  0.1182 -0.0833
  519POPI   C4B 8212  14.774  17.519   8.768 -0.1760  0.1053 -0.0556
  520POPI    C1 8213   2.557   8.939  10.136 -0.0498  0.1379 -0.0823
  520POPI    C2 8214   2.479   8.791  10.499  0.1880 -0.4069 -0.2425
  520POPI    C3 8215   2.774   9.058  10.451  0.0585 -0.2186 -0.0183
  520POPI   PO4 8216   2.459   8.713   9.993 -0.0706 -0.1671  0.2562
  520POPI   GL1 8217   2.542   8.639   9.594  0.1091  0.2480  0.1005
  520POPI   GL2 8218   2.353   8.297   9.724  0.2072  0.3041  0.0252
  520POPI   C1A 8219   2.592   8.533   9.238  0.0485 -0.1448  0.2477
  520POPI   D2A 8220   2.884   8.530   8.854  0.2801  0.0363  0.2794
  520POPI   C3A 8221   2.812   8.610   8.414 -0.0680  0.1559  0.0865
  520POPI   C4A 8222   2.986   8.716   7.991 -0.2890  0.0920 -0.2729
  520POPI   C1B 8223   2.318   8.083   9.288  0.0790  0.1786  0.0502
  520POPI   C2B 8224   2.477   7.963   8.886  0.1422  0.2743 -0.1308
  520POPI   C3B 8225   2.502   7.730   8.620  0.0480  0.1998  0.1918
  520POPI   C4B 8226   2.616   7.853   8.134  0.0046  0.0577 -0.0595
  521POPI    C1 8227   7.398   7.960  10.325 -0.1270 -0.1057  0.0680
  521POPI    C2 8228   7.268   7.652  10.106  0.2242  0.0101 -0.3165
  521POPI    C3 8229   7.619   7.628  10.295  0.0154 -0.0128  0.0794
  521POPI   PO4 8230   7.510   8.166  10.239 -0.1216  0.2130  0.1709
  521POPI   GL1 8231   7.649   8.345   9.820 -0.4012  0.1449 -0.1998
  521POPI   GL2 8232   8.004   8.336   9.849 -0.0487  0.0558 -0.2495
  521POPI   C1A 8233   7.647   8.121   9.418  0.1160  0.0743 -0.3263
  521POPI   D2A 8234   7.675   7.880   9.023 -0.0589  0.2706 -0.1368
  521POPI   C3A 8235   7.622   7.753   8.614  0.1442 -0.1692 -0.0105
  521POPI   C4A 8236   7.665   7.381   8.268 -0.0755  0.1257 -0.0877
  521POPI   C1B 8237   8.086   8.262   9.449  0.1371 -0.0657 -0.0213
  521POPI   C2B 8238   8.037   8.274   9.040 -0.0351 -0.0272 -0.2579
  521POPI   C3B 8239   7.912   8.172   8.725 -0.0305 -0.1562 -0.1039
  521POPI   C4B 8240   7.728   8.272   8.305  0.2009 -0.1216 -0.2418
  522POPI    C1 8241  11.624   6.898  10.128  0.2108  0.0304 -0.0492
  522POPI    C2 8242  11.710   6.551   9.949  0.1109 -0.0205  0.0007
  522POPI    C3 8243  11.927   6.674  10.262  0.1881 -0.0057 -0.0582
  522POPI   PO4 8244  11.436   7.011   9.928 -0.2329 -0.2507  0.1475
  522POPI   GL1 8245  11.632   7.144   9.548  0.3894  0.0919  0.3120
  522POPI   GL2 8246  11.278   7.106   9.485 -0.0232  0.3274  0.1059
  522POPI   C1A 8247  11.626   7.111   9.159  0.0115  0.0519  0.0102
  522POPI   D2A 8248  11.553   6.986   8.716 -0.0815  0.2011  0.1025
  522POPI   C3A 8249  11.084   6.985   8.586 -0.1946 -0.0209 -0.1409
  522POPI   C4A 8250  10.891   6.696   8.242 -0.2738 -0.0258  0.3947
  522POPI   C1B 8251  11.114   7.085   9.087 -0.0382 -0.0003 -0.1638
  522POPI   C2B 8252  10.762   7.259   8.883  0.0495  0.1040  0.1944
  522POPI   C3B 8253  10.411   7.447   8.726  0.0167  0.4051  0.1554
  522POPI   C4B 8254  10.246   7.783   8.419 -0.2407 -0.1819 -0.0970
  523POPI    C1 8255  17.733  15.105  10.239  0.2808  0.1268 -0.0053
  523POPI    C2 8256  17.934  15.450  10.233  0.0812  0.2487  0.1626
  523POPI    C3 8257  17.588  15.424  10.431  0.1218 -0.0642  0.1976
  523POPI   PO4 8258  17.699  14.977   9.927 -0.0933 -0.1411  0.1250
  523POPI   GL1 8259  17.643  15.209   9.496 -0.1897  0.2177 -0.0361
  523POPI   GL2 8260  17.878  15.433   9.687  0.0679  0.1723 -0.0417
  523POPI   C1A 8261  17.732  15.050   9.076  0.0645 -0.0859 -0.1422
  523POPI   D2A 8262  17.829  14.709   8.834 -0.0780  0.0882  0.0247
  523POPI   C3A 8263  17.567  14.468   8.830 -0.0357  0.0393 -0.1774
  523POPI   C4A 8264  17.312  14.224   8.623 -0.1587  0.2773  0.1499
  523POPI   C1B 8265  18.234  15.269   9.359  0.2528  0.1784  0.1802
  523POPI   C2B 8266  18.173  15.133   8.894  0.3839 -0.0603  0.1557
  523POPI   C3B 8267  18.061  14.970   8.489 -0.0930 -0.0739  0.1338
  523POPI   C4B 8268  17.880  14.611   8.352  0.0359  0.0932  0.1131
  524DPPI    C1 8269  15.415   6.675  10.168  0.1330  0.1390 -0.1332
  524DPPI    C2 8270  15.749   6.597  10.374  0.0125  0.3114  0.1321
  524DPPI    C3 8271  15.594   6.966  10.375 -0.1947  0.2266  0.0331
  524DPPI   PO4 8272  15.478   6.464   9.961 -0.0100  0.0159  0.1063
  524DPPI   GL1 8273  15.576   6.301   9.534 -0.2662 -0.0816 -0.0238
  524DPPI   GL2 8274  15.195   6.285   9.596  0.3208 -0.2004 -0.0462
  524DPPI   C1A 8275  15.487   6.097   9.136 -0.1811  0.1252  0.2166
  524DPPI   C2A 8276  15.418   5.583   9.079  0.0037 -0.1665  0.3895
  524DPPI   C3A 8277  15.416   5.215   8.799  0.0402 -0.0350 -0.1787
  524DPPI   C4A 8278  15.098   4.927   8.561 -0.1194  0.2156  0.3315
  524DPPI   C1B 8279  15.020   5.993   9.338 -0.0607  0.0307  0.0966
  524DPPI   C2B 8280  15.099   5.899   8.970  0.1763  0.2182  0.1149
  524DPPI   C3B 8281  15.306   5.884   8.614 -0.0703  0.2125 -0.1511
  524DPPI   C4B 8282  15.218   5.820   8.200 -0.2331 -0.3709 -0.1609
  525DPPI    C1 8283   7.633   9.106  10.486  0.2069 -0.0976  0.1870
  525DPPI    C2 8284   7.890   9.361  10.655  0.0466  0.1180  0.1085
  525DPPI    C3 8285   7.546   9.273  10.839  0.0646  0.0220  0.0962
  525DPPI   PO4 8286   7.783   9.096  10.249 -0.1142 -0.0640  0.1726
  525DPPI   GL1 8287   8.097   8.814  10.020 -0.1622 -0.3489  0.1117
  525DPPI   GL2 8288   8.045   9.149   9.799 -0.2060 -0.2072  0.2021
  525DPPI   C1A 8289   7.813   8.738   9.613  0.2086  0.2631 -0.0323
  525DPPI   C2A 8290   7.744   8.617   9.199 -0.0779 -0.0846 -0.1429
  525DPPI   C3A 8291   7.726   8.597   8.789  0.0401 -0.0194 -0.1192
  525DPPI   C4A 8292   7.987   8.758   8.487  0.1721 -0.1728  0.2762
  525DPPI   C1B 8293   7.905   9.210   9.352 -0.0770  0.1753 -0.0215
  525DPPI   C2B 8294   8.010   9.124   8.873  0.1520 -0.3200  0.0587
  525DPPI   C3B 8295   8.316   9.235   8.570  0.0304 -0.4314 -0.2955
  525DPPI   C4B 8296   8.598   9.343   8.148  0.2221 -0.0494  0.1136
  526DPPI    C1 8297   0.933  14.460  10.111  0.0978  0.1163 -0.2473
  526DPPI    C2 8298   1.292  14.625  10.168  0.1809 -0.1678  0.0873
  526DPPI    C3 8299   1.071  14.514  10.483 -0.1959 -0.0102 -0.1160
  526DPPI   PO4 8300   0.747  14.714   9.961  0.0467 -0.3183  0.1707
  526DPPI   GL1 8301   0.517  14.607   9.559 -0.0974 -0.0478  0.1203
  526DPPI   GL2 8302   0.340  14.402   9.269 -0.3074 -0.0572 -0.2322
  526DPPI   C1A 8303   0.735  14.716   9.141  0.1250 -0.1348  0.0748
  526DPPI   C2A 8304   0.640  14.834   8.670 -0.2385  0.0949  0.1745
  526DPPI   C3A 8305   0.522  14.926   8.217  0.2259  0.1864  0.3145
  526DPPI   C4A 8306   0.517  14.893   7.759  0.0178 -0.3182  0.1058
  526DPPI   C1B 8307   0.205  14.821   8.948  0.1709 -0.0877  0.1534
  526DPPI   C2B 8308   0.061  14.780   8.513 -0.0160 -0.1049  0.2938
  526DPPI   C3B 8309  -0.233  15.072   8.244  0.1595 -0.1916 -0.0137
  526DPPI   C4B 8310  -0.439  15.373   7.834  0.1796 -0.0782 -0.1348
  527DPPI    C1 8311   2.950  16.749   9.950 -0.2652  0.2660 -0.1613
  527DPPI    C2 8312   2.609  16.548  10.002 -0.1413  0.0626 -0.1223
  527DPPI    C3 8313   2.958  16.375  10.091 -0.0451  0.3737  0.1224
  527DPPI   PO4 8314   2.968  16.726   9.667 -0.0363 -0.1574 -0.1677
  527DPPI   GL1 8315   3.070  16.738   9.201  0.0123  0.2347 -0.0866
  527DPPI   GL2 8316   2.980  16.467   9.043 -0.0534  0.0346  0.0112
  527DPPI   C1A 8317   3.286  16.865   8.852  0.0410  0.1825 -0.1823
  527DPPI   C2A 8318   3.248  16.816   8.404  0.2648 -0.1457  0.3774
  527DPPI   C3A 8319   3.055  16.861   8.021 -0.4048  0.1169  0.3422
  527DPPI   C4A 8320   2.892  17.082   7.719 -0.0445  0.1854 -0.0494
  527DPPI   C1B 8321   2.817  16.253   8.717  0.0761  0.0109 -0.3295
  527DPPI   C2B 8322   2.561  15.967   8.463  0.2653 -0.0240  0.2990
  527DPPI   C3B 8323   2.466  15.888   8.005  0.2679 -0.0550 -0.1512
  527DPPI   C4B 8324   2.565  16.079   7.701 -0.1466 -0.1592  0.1701
  528DPPI    C1 8325   4.712   9.250  10.350 -0.0110 -0.0517 -0.0750
  528DPPI    C2 8326   4.966   9.229  10.658 -0.0444  0.0069 -0.0433
  528DPPI    C3 8327   4.611   9.047  10.679 -0.0314 -0.0208 -0.0622
  528DPPI   PO4 8328   4.785   9.186  10.177  0.4449  0.1880 -0.0092
  528DPPI   GL1 8329   4.743   9.371   9.760  0.0617 -0.3119 -0.1938
  528DPPI   GL2 8330   5.080   9.211   9.670  0.1401 -0.2149 -0.0441
  528DPPI   C1A 8331   4.784   9.547   9.392 -0.7835  0.0915 -0.0541
  528DPPI   C2A 8332   4.700   9.528   8.922  0.0921  0.0698 -0.0863
  528DPPI   C3A 8333   4.534   9.582   8.481  0.0207 -0.0354  0.1062
  528DPPI   C4A 8334   4.793   9.511   8.067 -0.2641 -0.0928  0.0445
  528DPPI   C1B 8335   5.111   9.161   9.283 -0.1033 -0.0387  0.0177
  528DPPI   C2B 8336   5.112   8.845   8.902 -0.0102  0.2026  0.5402
  528DPPI   C3B 8337   5.039   8.668   8.522  0.0132  0.0956 -0.1984
  528DPPI   C4B 8338   4.893   8.410   8.131  0.0423 -0.0519 -0.1260
  529DPPI    C1 8339  13.008  18.623  10.608  0.1365 -0.1728  0.0315
  529DPPI    C2 8340  12.950  18.921  10.347 -0.0115 -0.1580  0.0804
  529DPPI    C3 8341  13.303  18.735  10.363  0.1233  0.0986  0.1358
  529DPPI   PO4 8342  12.784  18.491  10.545 -0.0819  0.4609  0.3294
  529DPPI   GL1 8343  12.807  18.536  10.101  0.0314 -0.1174  0.0686
  529DPPI   GL2 8344  13.107  18.271  10.198 -0.1059  0.1328 -0.2631
  529DPPI   C1A 8345  13.038  18.849   9.883  0.1952 -0.1634 -0.0704
  529DPPI   C2A 8346  13.282  18.743   9.548 -0.0670 -0.0728 -0.2996
  529DPPI   C3A 8347  13.525  18.916   9.303 -0.2816  0.0219  0.3947
  529DPPI   C4A 8348  13.870  19.032   9.383  0.0673  0.1422  0.0940
  529DPPI   C1B 8349  13.383  18.399   9.888 -0.2957  0.2022  0.0139
  529DPPI   C2B 8350  13.188  18.191   9.530  0.0957  0.1187 -0.0462
  529DPPI   C3B 8351  13.195  18.316   9.123  0.0098 -0.1264  0.0703
  529DPPI   C4B 8352  13.077  18.614   8.705 -0.0051 -0.2732  0.0961
  530DPPI    C1 8353   9.985   7.562  10.253 -0.0334 -0.0068 -0.1726
  530DPPI    C2 8354  10.202   7.864  10.105  0.0190  0.0213 -0.0399
  530DPPI    C3 8355   9.860   7.940  10.297 -0.0720 -0.0182 -0.1849
  530DPPI   PO4 8356  10.059   7.375  10.069 -0.3266  0.0501 -0.1298
  530DPPI   GL1 8357   9.989   6.971   9.871  0.0209 -0.2029  0.1716
  530DPPI   GL2 8358  10.104   6.665   9.811 -0.1688 -0.2041 -0.3478
  530DPPI   C1A 8359   9.771   7.046   9.519  0.2382 -0.0747  0.2391
  530DPPI   C2A 8360   9.797   7.232   9.017  0.1651  0.0503 -0.0811
  530DPPI   C3A 8361   9.898   7.046   8.645 -0.0131 -0.4920 -0.0254
  530DPPI   C4A 8362  10.175   7.202   8.287  0.0376  0.0861 -0.0156
  530DPPI   C1B 8363  10.174   6.828   9.287 -0.0237 -0.0398  0.2259
  530DPPI   C2B 8364  10.237   7.001   8.945 -0.0388  0.2237  0.1530
  530DPPI   C3B 8365  10.559   6.909   8.517  0.2880  0.3132 -0.0755
  530DPPI   C4B 8366  10.418   6.697   8.121  0.0068 -0.2021  0.0736
  531DPPI    C1 8367  11.544  11.842   9.986  0.0991 -0.0652 -0.1216
  531DPPI    C2 8368  11.891  11.796  10.181  0.1525  0.0176 -0.1965
  531DPPI    C3 8369  11.647  11.483  10.128  0.2944 -0.0780 -0.2911
  531DPPI   PO4 8370  11.614  11.952   9.643  0.1298  0.2836  0.3054
  531DPPI   GL1 8371  11.538  12.006   9.260  0.1292  0.3469  0.2388
  531DPPI   GL2 8372  11.561  12.336   9.248  0.2038 -0.3268  0.0278
  531DPPI   C1A 8373  11.754  11.783   8.960  0.1460  0.1068  0.0960
  531DPPI   C2A 8374  11.850  11.548   8.496 -0.1998  0.0771  0.0289
  531DPPI   C3A 8375  12.218  11.248   8.230 -0.1067 -0.0304 -0.2618
  531DPPI   C4A 8376  12.220  11.088   7.864 -0.2042 -0.1452 -0.1608
  531DPPI   C1B 8377  11.585  12.262   8.700  0.4073  0.2276 -0.1399
  531DPPI   C2B 8378  11.492  12.326   8.289 -0.0319 -0.1372 -0.0633
  531DPPI   C3B 8379  11.495  12.436   7.802 -0.0573 -0.5539  0.0384
  531DPPI   C4B 8380  11.222  12.281   7.512  0.0181  0.1201 -0.1541
  532DPPI    C1 8381   7.787   1.728  10.051 -0.1575  0.0950  0.1673
  532DPPI    C2 8382   7.583   1.613   9.727 -0.1039 -0.0905  0.1983
  532DPPI    C3 8383   7.900   1.402   9.850 -0.1204 -0.0180  0.3684
  532DPPI   PO4 8384   7.767   2.019  10.112  0.4012 -0.0180 -0.0913
  532DPPI   GL1 8385   7.990   2.220   9.877 -0.1111 -0.1100 -0.2570
  532DPPI   GL2 8386   7.791   2.501   9.846 -0.0894  0.0283  0.0634
  532DPPI   C1A 8387   7.897   1.973   9.525 -0.3064  0.3507  0.0841
  532DPPI   C2A 8388   7.525   1.917   9.258  0.0602 -0.0132  0.1114
  532DPPI   C3A 8389   7.174   1.827   9.447  0.1100 -0.1522 -0.1025
  532DPPI   C4A 8390   6.849   1.628   9.380  0.3239  0.0050  0.1404
  532DPPI   C1B 8391   8.043   2.463   9.463  0.1802  0.1006  0.4141
  532DPPI   C2B 8392   8.231   2.316   9.077 -0.3213  0.2350  0.0639
  532DPPI   C3B 8393   8.338   1.923   8.876 -0.0184 -0.2409  0.1358
  532DPPI   C4B 8394   8.577   1.738   8.590  0.1872 -0.2045 -0.1135
  533DPPI    C1 8395   1.069   0.056  10.191  0.0275  0.0523  0.1037
  533DPPI    C2 8396   1.268   0.348  10.378  0.1031  0.0393  0.0439
  533DPPI    C3 8397   1.352  -0.035  10.459  0.2070  0.0331 -0.0903
  533DPPI   PO4 8398   1.072   0.081   9.880 -0.0877  0.0963  0.1199
  533DPPI   GL1 8399   1.254   0.401   9.614  0.1144 -0.0507 -0.3283
  533DPPI   GL2 8400   1.023   0.631   9.474 -0.1539 -0.1395 -0.1554
  533DPPI   C1A 8401   1.243   0.317   9.173 -0.0260 -0.0977  0.2785
  533DPPI   C2A 8402   1.210   0.247   8.737 -0.2247 -0.1156  0.0128
  533DPPI   C3A 8403   1.315   0.246   8.366 -0.0274 -0.3087 -0.1543
  533DPPI   C4A 8404   1.268   0.302   7.896  0.0651 -0.1011 -0.0905
  533DPPI   C1B 8405   1.055   0.764   9.004 -0.2017  0.3442 -0.0244
  533DPPI   C2B 8406   1.068   0.670   8.513  0.4052  0.0359  0.0322
  533DPPI   C3B 8407   1.144   0.678   8.160 -0.0819 -0.0282 -0.2423
  533DPPI   C4B 8408   1.091   0.785   7.728 -0.1054 -0.3583  0.1555
  534DPPI    C1 8409  12.664  16.108  10.950 -0.0440 -0.0013  0.1574
  534DPPI    C2 8410  13.038  15.978  10.892 -0.0821  0.0986 -0.3588
  534DPPI    C3 8411  12.959  16.239  11.186  0.2252 -0.0287 -0.1585
  534DPPI   PO4 8412  12.559  16.148  10.602 -0.1477 -0.0720  0.2596
  534DPPI   GL1 8413  12.465  16.347  10.241  0.0245 -0.0714  0.0425
  534DPPI   GL2 8414  12.227  16.291  10.087  0.2449 -0.0389 -0.0008
  534DPPI   C1A 8415  12.658  15.965  10.002 -0.1171  0.2485 -0.1302
  534DPPI   C2A 8416  12.832  16.091   9.579  0.1564 -0.0989  0.2298
  534DPPI   C3A 8417  13.075  16.040   9.196 -0.0592 -0.1030  0.0189
  534DPPI   C4A 8418  13.229  16.353   8.868 -0.0717  0.0745 -0.0320
  534DPPI   C1B 8419  11.984  16.546   9.853  0.0393  0.0533 -0.0225
  534DPPI   C2B 8420  11.803  16.546   9.501 -0.2006 -0.0549  0.0405
  534DPPI   C3B 8421  11.999  16.317   9.166 -0.1668  0.2829  0.0576
  534DPPI   C4B 8422  12.234  16.328   8.762  0.1578 -0.0776  0.1332
  535DPPI    C1 8423  17.120  14.337  10.177  0.1209  0.2752 -0.1209
  535DPPI    C2 8424  16.975  14.302  10.548  0.4276  0.0741 -0.0154
  535DPPI    C3 8425  16.803  14.553  10.288 -0.0485 -0.0918  0.1291
  535DPPI   PO4 8426  17.224  14.119  10.197  0.1172  0.1150  0.0545
  535DPPI   GL1 8427  17.482  14.022   9.963  0.1152 -0.1602  0.2460
  535DPPI   GL2 8428  17.351  14.283   9.709  0.1486  0.2233  0.1805
  535DPPI   C1A 8429  17.489  13.794   9.563 -0.3780 -0.3630  0.1188
  535DPPI   C2A 8430  17.249  13.781   9.067  0.0007  0.2282 -0.0892
  535DPPI   C3A 8431  16.968  13.810   8.772  0.1883 -0.2760  0.2292
  535DPPI   C4A 8432  16.598  13.737   8.571 -0.1186 -0.0434 -0.1676
  535DPPI   C1B 8433  17.312  14.266   9.267 -0.0727  0.1615  0.2130
  535DPPI   C2B 8434  16.979  14.207   9.031 -0.0069 -0.0631  0.2370
  535DPPI   C3B 8435  16.801  14.233   8.478 -0.1901  0.1227 -0.0062
  535DPPI   C4B 8436  16.907  13.948   8.252  0.4845  0.0008 -0.0855
  536DPPI    C1 8437  13.303   3.509  10.687  0.0828 -0.0990  0.2982
  536DPPI    C2 8438  13.439   3.866  10.570 -0.0440 -0.1251  0.0641
  536DPPI    C3 8439  13.171   3.842  10.866 -0.0759 -0.0220  0.0444
  536DPPI   PO4 8440  13.202   3.455  10.426  0.1928 -0.0797 -0.4002
  536DPPI   GL1 8441  13.309   3.179  10.031  0.1678  0.3064 -0.2331
  536DPPI   GL2 8442  13.035   3.257   9.848  0.0846 -0.0776 -0.0243
  536DPPI   C1A 8443  13.692   3.298   9.855  0.0606  0.4222  0.0688
  536DPPI   C2A 8444  13.914   3.163   9.605  0.0695 -0.1192  0.1061
  536DPPI   C3A 8445  13.867   3.062   9.253  0.0198 -0.1128  0.3796
  536DPPI   C4A 8446  13.816   3.342   8.910  0.2415  0.1038  0.3509
  536DPPI   C1B 8447  13.428   3.129   9.491 -0.0930  0.0319  0.1189
  536DPPI   C2B 8448  13.224   3.301   9.107  0.1027 -0.2604 -0.2086
  536DPPI   C3B 8449  13.384   3.473   8.722  0.0572 -0.4994 -0.0290
  536DPPI   C4B 8450  13.291   3.368   8.332 -0.0551  0.2315  0.1554
  537DPPI    C1 8451  16.053  10.566  10.096  0.1862 -0.0111 -0.1984
  537DPPI    C2 8452  16.292  10.831  10.277 -0.0032  0.1560 -0.1887
  537DPPI    C3 8453  15.911  10.792  10.394  0.0092 -0.0867 -0.2238
  537DPPI   PO4 8454  15.979  10.648   9.908 -0.2315 -0.2488 -0.0746
  537DPPI   GL1 8455  16.076  10.504   9.598  0.1255  0.2167 -0.1193
  537DPPI   GL2 8456  16.294  10.232   9.510  0.1555 -0.1286  0.0163
  537DPPI   C1A 8457  16.228  10.929   9.337 -0.2797  0.1005  0.2660
  537DPPI   C2A 8458  16.186  10.996   8.942  0.1397 -0.0091  0.1226
  537DPPI   C3A 8459  16.070  10.911   8.491 -0.0409  0.1656 -0.0844
  537DPPI   C4A 8460  16.183  10.673   8.162  0.0120  0.2225  0.1888
  537DPPI   C1B 8461  16.603   9.964   9.276  0.2454 -0.3960 -0.0029
  537DPPI   C2B 8462  16.725   9.808   8.868 -0.0095 -0.4195  0.2248
  537DPPI   C3B 8463  16.816   9.878   8.482 -0.0046 -0.0008 -0.0205
  537DPPI   C4B 8464  17.071  10.103   8.219 -0.0155 -0.2016 -0.3265
  538DPPI    C1 8465   9.175  10.433  10.249  0.0638 -0.1966  0.0181
  538DPPI    C2 8466   8.992  10.623  10.550 -0.2636 -0.1226 -0.2212
  538DPPI    C3 8467   9.353  10.459  10.606 -0.3133 -0.0979  0.2042
  538DPPI   PO4 8468   9.116  10.523  10.073  0.1822 -0.0846  0.0806
  538DPPI   GL1 8469   8.947  10.573   9.646  0.0480  0.0828  0.3501
  538DPPI   GL2 8470   9.014  10.815   9.615 -0.2071 -0.2174 -0.0104
  538DPPI   C1A 8471   8.948  10.245   9.216  0.1728  0.1446  0.2369
  538DPPI   C2A 8472   8.998  10.176   8.719 -0.1619  0.1657 -0.0985
  538DPPI   C3A 8473   9.049  10.186   8.315 -0.4126 -0.2110  0.2978
  538DPPI   C4A 8474   9.235  10.135   7.920 -0.0580 -0.0192 -0.0531
  538DPPI   C1B 8475   8.927  10.760   9.171 -0.1301 -0.1732 -0.0630
  538DPPI   C2B 8476   8.829  10.716   8.778  0.2169  0.0929  0.1463
  538DPPI   C3B 8477   8.981  10.641   8.404  0.2343 -0.3933 -0.0134
  538DPPI   C4B 8478   8.814  10.500   8.012 -0.1567  0.0511  0.0353
  539DPPI    C1 8479   8.352   5.691  10.364  0.2470  0.1170 -0.1543
  539DPPI    C2 8480   8.388   5.311  10.245  0.1930  0.1723 -0.3503
  539DPPI    C3 8481   8.700   5.499  10.411  0.1767 -0.0021 -0.1175
  539DPPI   PO4 8482   8.125   5.755  10.346  0.0638 -0.4303 -0.1254
  539DPPI   GL1 8483   7.911   5.558   9.975  0.1671  0.1942 -0.0727
  539DPPI   GL2 8484   7.706   5.798  10.071  0.2630  0.2995  0.0229
  539DPPI   C1A 8485   7.985   5.683   9.584 -0.0356  0.0581 -0.0427
  539DPPI   C2A 8486   8.079   5.671   9.161  0.0020 -0.1875  0.0376
  539DPPI   C3A 8487   8.052   5.652   8.703  0.0595  0.1172 -0.2528
  539DPPI   C4A 8488   8.308   5.714   8.334 -0.0249 -0.3754 -0.0834
  539DPPI   C1B 8489   7.697   6.072   9.734  0.3393 -0.2593 -0.0726
  539DPPI   C2B 8490   7.682   6.003   9.300 -0.0597  0.0595  0.0644
  539DPPI   C3B 8491   7.858   6.123   8.839  0.2828  0.0013 -0.0224
  539DPPI   C4B 8492   7.876   6.020   8.452 -0.2149  0.0317 -0.0703
  540DPPI    C1 8493  10.745  13.114   9.835  0.2123 -0.0934 -0.0999
  540DPPI    C2 8494  10.867  13.034  10.207  0.1977  0.0684 -0.0594
  540DPPI    C3 8495  10.497  12.933  10.092  0.2916 -0.2232 -0.1142
  540DPPI   PO4 8496  10.806  13.328   9.803  0.1511  0.0263 -0.2183
  540DPPI   GL1 8497  10.454  13.623   9.588  0.2016  0.2387  0.2407
  540DPPI   GL2 8498  10.568  13.408   9.347  0.2302  0.0551 -0.1209
  540DPPI   C1A 8499  10.597  13.990   9.216  0.1288  0.1272 -0.0010
  540DPPI   C2A 8500  10.635  14.130   8.858 -0.0521 -0.0321  0.3139
  540DPPI   C3A 8501  10.792  14.041   8.447 -0.5010  0.0333  0.1799
  540DPPI   C4A 8502  10.919  13.918   8.024 -0.0693 -0.0969 -0.4384
  540DPPI   C1B 8503  10.426  13.447   8.948  0.0594 -0.0736  0.1084
  540DPPI   C2B 8504  10.317  13.364   8.557  0.1768 -0.2863 -0.2829
  540DPPI   C3B 8505  10.350  13.079   8.158  0.0025 -0.0900 -0.4908
  540DPPI   C4B 8506  10.114  12.802   7.908 -0.3713  0.0632 -0.0614
  541DPPI    C1 8507  13.171  12.345   9.978  0.0024 -0.0241  0.1184
  541DPPI    C2 8508  13.078  12.160  10.320  0.0682  0.0223  0.1617
  541DPPI    C3 8509  13.226  12.531  10.328 -0.0574  0.0748  0.0755
  541DPPI   PO4 8510  13.238  12.188   9.880 -0.4496  0.2093 -0.1216
  541DPPI   GL1 8511  13.200  12.193   9.471 -0.1721  0.1064 -0.0704
  541DPPI   GL2 8512  13.429  12.433   9.505  0.2937  0.0360  0.0228
  541DPPI   C1A 8513  13.062  12.168   8.950 -0.2727  0.5592  0.1737
  541DPPI   C2A 8514  13.178  12.127   8.570 -0.3216  0.0684  0.1367
  541DPPI   C3A 8515  13.481  12.260   8.286 -0.2773  0.1633 -0.2384
  541DPPI   C4A 8516  13.854  12.427   8.118 -0.1217 -0.2222  0.2734
  541DPPI   C1B 8517  13.470  12.412   9.083  0.0390  0.2856 -0.2612
  541DPPI   C2B 8518  13.568  12.440   8.719 -0.0667 -0.3652  0.2140
  541DPPI   C3B 8519  13.772  12.742   8.442  0.1566  0.0273  0.1254
  541DPPI   C4B 8520  13.542  12.872   8.035 -0.1531 -0.1058 -0.0034
  542DPPI    C1 8521  12.887  14.187  10.251  0.0431  0.1534  0.0512
  542DPPI    C2 8522  12.568  13.999  10.403 -0.0931  0.1679 -0.2116
  542DPPI    C3 8523  12.818  14.196  10.645 -0.0653 -0.1716  0.0427
  542DPPI   PO4 8524  12.696  14.313  10.033 -0.3975  0.0036 -0.0808
  542DPPI   GL1 8525  12.674  14.753   9.777  0.0168 -0.1728 -0.1434
  542DPPI   GL2 8526  12.674  15.063   9.831  0.0340 -0.3204  0.1014
  542DPPI   C1A 8527  12.585  14.680   9.344  0.1193  0.1217  0.3312
  542DPPI   C2A 8528  12.636  14.724   8.998 -0.1493 -0.1003  0.2072
  542DPPI   C3A 8529  12.690  14.697   8.613 -0.0898  0.0822  0.1282
  542DPPI   C4A 8530  12.801  14.759   8.226  0.2821 -0.0564  0.0620
  542DPPI   C1B 8531  12.738  15.171   9.460 -0.0671  0.2155 -0.0183
  542DPPI   C2B 8532  12.586  15.218   9.016 -0.0147 -0.1755 -0.2764
  542DPPI   C3B 8533  12.487  15.294   8.587 -0.1491  0.0199 -0.0644
  542DPPI   C4B 8534  12.562  15.261   8.171 -0.4170  0.0081  0.1520
  543DPPI    C1 8535   6.556  16.371   9.767 -0.3747 -0.0034  0.0217
  543DPPI    C2 8536   6.438  16.569  10.094 -0.1964  0.1583 -0.0101
  543DPPI    C3 8537   6.566  16.771   9.774  0.0633 -0.0089 -0.0154
  543DPPI   PO4 8538   6.389  16.140   9.692 -0.0063 -0.3315  0.0067
  543DPPI   GL1 8539   6.230  16.070   9.252 -0.2931 -0.0360  0.0020
  543DPPI   GL2 8540   6.364  15.828   9.333  0.1850 -0.1907  0.0101
  543DPPI   C1A 8541   6.063  16.329   8.974 -0.0274  0.3037  0.0212
  543DPPI   C2A 8542   6.017  16.276   8.527  0.0813  0.0073  0.2246
  543DPPI   C3A 8543   5.868  16.348   8.100  0.1647 -0.3889  0.1514
  543DPPI   C4A 8544   5.745  16.388   7.668  0.0106 -0.0249 -0.1834
  543DPPI   C1B 8545   6.379  15.985   8.823 -0.1440  0.2043 -0.0180
  543DPPI   C2B 8546   6.526  15.962   8.430  0.3013 -0.2420 -0.1460
  543DPPI   C3B 8547   6.503  16.092   7.971  0.0751 -0.1147 -0.0314
  543DPPI   C4B 8548   6.693  16.431   7.747  0.1070 -0.0222  0.0239
  544DPPI    C1 8549   9.876  17.718  10.012 -0.2897  0.0800 -0.2376
  544DPPI    C2 8550   9.608  17.474  10.182 -0.1214  0.1371  0.1183
  544DPPI    C3 8551   9.739  17.796  10.380  0.0551  0.2250 -0.1363
  544DPPI   PO4 8552  10.069  17.493   9.971  0.1897 -0.2156  0.1860
  544DPPI   GL1 8553  10.393  17.403   9.732 -0.2971  0.0784 -0.0804
  544DPPI   GL2 8554  10.660  17.130   9.881 -0.1795  0.1270  0.0072
  544DPPI   C1A 8555  10.230  17.336   9.348  0.0517 -0.1427 -0.1228
  544DPPI   C2A 8556  10.369  17.507   8.896 -0.1585  0.2860 -0.0695
  544DPPI   C3A 8557  10.222  17.359   8.383  0.0058 -0.1915 -0.0020
  544DPPI   C4A 8558  10.338  17.180   8.113 -0.0394  0.1233 -0.1791
  544DPPI   C1B 8559  10.693  17.035   9.444  0.1066  0.1733 -0.0069
  544DPPI   C2B 8560  10.966  16.974   9.075  0.2358  0.1339 -0.0493
  544DPPI   C3B 8561  11.097  16.881   8.703 -0.2321  0.0258 -0.0522
  544DPPI   C4B 8562  11.315  16.708   8.447  0.0422 -0.0381  0.0412
  545DPPI    C1 8563   6.135  12.805   9.710  0.2600  0.0866  0.0847
  545DPPI    C2 8564   6.197  13.171   9.859  0.0771  0.0271  0.3130
  545DPPI    C3 8565   6.319  12.849  10.063  0.2328 -0.0407  0.1154
  545DPPI   PO4 8566   6.217  12.854   9.502 -0.0306  0.0785  0.2002
  545DPPI   GL1 8567   6.261  12.918   9.068 -0.0141  0.3000  0.0239
  545DPPI   GL2 8568   6.475  13.261   8.936 -0.0045 -0.0626 -0.0469
  545DPPI   C1A 8569   6.072  12.746   8.763  0.2357  0.3025 -0.0264
  545DPPI   C2A 8570   5.841  12.495   8.480 -0.1844  0.0588  0.0883
  545DPPI   C3A 8571   5.684  12.360   8.118 -0.0593 -0.0424  0.2830
  545DPPI   C4A 8572   5.742  12.065   7.832 -0.0856 -0.0176 -0.1330
  545DPPI   C1B 8573   6.630  12.853   8.664  0.2683 -0.0611  0.3014
  545DPPI   C2B 8574   6.710  12.680   8.276  0.0328 -0.0337  0.0935
  545DPPI   C3B 8575   6.555  12.620   7.872 -0.0811 -0.0408  0.2063
  545DPPI   C4B 8576   6.604  12.843   7.434  0.0170 -0.1105  0.0723
  546DPPI    C1 8577  14.039   6.772  10.227  0.1421 -0.0686 -0.1072
  546DPPI    C2 8578  14.093   6.381  10.163  0.2285 -0.0596 -0.0911
  546DPPI    C3 8579  13.970   6.510  10.521 -0.0579 -0.0933 -0.1747
  546DPPI   PO4 8580  13.940   6.867  10.007  0.3835 -0.1183  0.0892
  546DPPI   GL1 8581  13.875   6.694   9.682 -0.0881 -0.2006 -0.1701
  546DPPI   GL2 8582  13.861   6.433   9.655 -0.0525  0.2741 -0.1956
  546DPPI   C1A 8583  14.279   6.561   9.459  0.2186  0.3355  0.2993
  546DPPI   C2A 8584  14.404   6.662   9.129 -0.0109  0.0706 -0.2383
  546DPPI   C3A 8585  14.167   6.714   8.852  0.2165  0.1661  0.3204
  546DPPI   C4A 8586  13.903   6.943   8.723  0.0770 -0.1160 -0.1431
  546DPPI   C1B 8587  13.870   6.591   9.205  0.0709 -0.0635  0.2634
  546DPPI   C2B 8588  13.765   6.479   8.777  0.1662  0.0946  0.1990
  546DPPI   C3B 8589  14.053   6.528   8.355 -0.0571 -0.0406 -0.1043
  546DPPI   C4B 8590  14.202   6.265   8.113 -0.1604  0.3436  0.0230
  547DPPI    C1 8591  13.243  10.105  10.119  0.0745 -0.2060  0.1952
  547DPPI    C2 8592  12.863  10.172  10.223  0.0665 -0.0727  0.0840
  547DPPI    C3 8593  13.091   9.929  10.444 -0.1071 -0.2196  0.1045
  547DPPI   PO4 8594  13.232  10.051   9.835  0.1135  0.3130 -0.2091
  547DPPI   GL1 8595  13.328   9.677   9.487  0.1891 -0.1628 -0.1488
  547DPPI   GL2 8596  13.650   9.537   9.429  0.1341  0.0244 -0.0543
  547DPPI   C1A 8597  13.140   9.766   9.083  0.0328 -0.0151 -0.1424
  547DPPI   C2A 8598  13.104   9.689   8.630 -0.1110 -0.2701  0.0316
  547DPPI   C3A 8599  13.237  10.057   8.299 -0.0251  0.1819 -0.1138
  547DPPI   C4A 8600  13.021  10.074   7.876 -0.0665  0.0316 -0.1589
  547DPPI   C1B 8601  13.504   9.195   9.173 -0.1705 -0.0748  0.0954
  547DPPI   C2B 8602  13.353   9.126   8.792  0.1980  0.0400 -0.0081
  547DPPI   C3B 8603  13.400   9.262   8.320 -0.0977  0.2908  0.0318
  547DPPI   C4B 8604  13.314   9.594   7.967  0.0162  0.3143  0.1792
  548DPPI    C1 8605  16.534  10.392  10.004  0.0688 -0.2498 -0.0607
  548DPPI    C2 8606  16.831  10.413  10.271 -0.0741  0.0293  0.0812
  548DPPI    C3 8607  16.457  10.341  10.393 -0.1273  0.0730 -0.0541
  548DPPI   PO4 8608  16.506  10.567   9.912  0.0860  0.1741 -0.0735
  548DPPI   GL1 8609  16.645  10.669   9.600 -0.0151 -0.3121 -0.1146
  548DPPI   GL2 8610  16.871  10.800   9.404  0.1426  0.0604  0.1029
  548DPPI   C1A 8611  16.476  10.541   9.198  0.1233  0.2887  0.0655
  548DPPI   C2A 8612  16.446  10.230   8.815  0.1727  0.1302  0.2610
  548DPPI   C3A 8613  16.570  10.342   8.410 -0.0635 -0.0397  0.0265
  548DPPI   C4A 8614  16.561  10.065   8.042  0.0629  0.0006  0.2756
  548DPPI   C1B 8615  17.083  11.176   9.292 -0.1682  0.0484  0.0830
  548DPPI   C2B 8616  17.036  11.399   8.980  0.1941 -0.0245  0.0623
  548DPPI   C3B 8617  16.980  11.529   8.543 -0.2479 -0.0122  0.0182
  548DPPI   C4B 8618  16.998  11.487   8.119 -0.1640  0.0670  0.1962
  549DPPI    C1 8619  13.576  13.370  10.222 -0.0081 -0.2284  0.2412
  549DPPI    C2 8620  13.357  13.425  10.552 -0.0687  0.0020  0.1641
  549DPPI    C3 8621  13.677  13.656  10.483 -0.0490 -0.0538  0.0680
  549DPPI   PO4 8622  13.446  13.039  10.195  0.4379 -0.4780 -0.0142
  549DPPI   GL1 8623  13.562  12.874   9.752  0.2754 -0.1589  0.0888
  549DPPI   GL2 8624  13.864  12.896   9.662  0.1118  0.3267 -0.2561
  549DPPI   C1A 8625  13.275  13.095   9.343  0.1654 -0.1808 -0.4042
  549DPPI   C2A 8626  13.158  13.261   8.898 -0.2515 -0.1572  0.0891
  549DPPI   C3A 8627  12.795  13.461   8.665 -0.1253 -0.0431 -0.1557
  549DPPI   C4A 8628  12.967  13.518   8.336  0.0106 -0.3539 -0.0499
  549DPPI   C1B 8629  13.781  12.841   9.251 -0.1429 -0.1067 -0.1822
  549DPPI   C2B 8630  13.570  12.952   8.880  0.0783  0.2360  0.0830
  549DPPI   C3B 8631  13.318  13.211   8.456  0.0107  0.1628  0.4880
  549DPPI   C4B 8632  13.363  13.351   7.990  0.0318  0.0196  0.0510
  550DPPI    C1 8633   0.596   6.511  10.023  0.0591 -0.1031  0.0071
  550DPPI    C2 8634   0.859   6.581   9.730 -0.1652  0.2681 -0.1127
  550DPPI    C3 8635   0.817   6.845  10.029 -0.1557  0.0400  0.0932
  550DPPI   PO4 8636   0.377   6.379   9.889  0.1613 -0.0470  0.0049
  550DPPI   GL1 8637   0.095   6.530   9.548 -0.3453  0.0731 -0.0304
  550DPPI   GL2 8638  -0.034   6.776   9.610 -0.5717 -0.1236  0.0561
  550DPPI   C1A 8639   0.151   6.371   9.131 -0.0307 -0.0083  0.1336
  550DPPI   C2A 8640  -0.005   6.326   8.798  0.1962  0.0174 -0.2664
  550DPPI   C3A 8641   0.110   6.300   8.437 -0.1328  0.2154 -0.0589
  550DPPI   C4A 8642   0.104   6.260   7.973 -0.1632 -0.3442 -0.0749
  550DPPI   C1B 8643   0.299   6.927   9.205  0.0685 -0.2184  0.3845
  550DPPI   C2B 8644   0.237   6.728   8.782 -0.0769 -0.0887  0.3577
  550DPPI   C3B 8645   0.329   6.820   8.456  0.2431 -0.2389 -0.0098
  550DPPI   C4B 8646   0.468   6.609   8.141 -0.1685  0.0125  0.0199
  551DPPI    C1 8647  13.542  17.128  10.965 -0.1425 -0.1746  0.1107
  551DPPI    C2 8648  13.661  17.492  10.852 -0.2666 -0.2377 -0.2325
  551DPPI    C3 8649  13.479  17.442  11.204  0.0567 -0.0250 -0.0301
  551DPPI   PO4 8650  13.419  17.000  10.785 -0.0790  0.1239 -0.0173
  551DPPI   GL1 8651  13.340  17.134  10.314  0.0877  0.1553  0.0842
  551DPPI   GL2 8652  13.092  16.953  10.121  0.2809 -0.1285  0.2189
  551DPPI   C1A 8653  13.429  17.257   9.840 -0.1055 -0.3976 -0.3135
  551DPPI   C2A 8654  13.583  17.436   9.466  0.2412  0.2080  0.1495
  551DPPI   C3A 8655  13.516  17.356   9.101  0.1571 -0.0080  0.5292
  551DPPI   C4A 8656  13.469  17.589   8.712 -0.0259 -0.0121 -0.0632
  551DPPI   C1B 8657  12.867  16.981   9.669 -0.1486 -0.1701  0.0939
  551DPPI   C2B 8658  12.964  17.104   9.254  0.2046 -0.0429  0.1598
  551DPPI   C3B 8659  13.087  17.228   8.800 -0.2482 -0.0046  0.0293
  551DPPI   C4B 8660  13.109  17.303   8.381 -0.2435 -0.0565 -0.3641
  552DPPI    C1 8661   4.475   8.077  10.586 -0.0979  0.5007 -0.0195
  552DPPI    C2 8662   4.834   8.247  10.634 -0.0199  0.2180  0.4719
  552DPPI    C3 8663   4.737   7.922  10.846 -0.2559 -0.2187 -0.2663
  552DPPI   PO4 8664   4.358   8.073  10.219  0.1738  0.0983  0.3136
  552DPPI   GL1 8665   4.299   7.950   9.893 -0.1576 -0.1421  0.0902
  552DPPI   GL2 8666   4.572   7.994   9.760 -0.1014  0.0536 -0.2927
  552DPPI   C1A 8667   4.082   8.069   9.527  0.2272 -0.2177  0.0433
  552DPPI   C2A 8668   3.854   7.926   9.048 -0.1592 -0.1073 -0.0761
  552DPPI   C3A 8669   3.923   7.878   8.561 -0.0498  0.0205  0.1830
  552DPPI   C4A 8670   3.656   7.515   8.414  0.0603  0.0879 -0.0702
  552DPPI   C1B 8671   4.636   7.672   9.449 -0.3453  0.1546  0.1588
  552DPPI   C2B 8672   4.924   7.502   9.101  0.1106 -0.1816 -0.0715
  552DPPI   C3B 8673   5.005   7.272   8.713 -0.0384  0.2826  0.1359
  552DPPI   C4B 8674   5.175   7.368   8.236 -0.0883  0.0442  0.1452
  553DPPI    C1 8675  12.746  11.520   9.829 -0.0013  0.3532  0.0376
  553DPPI    C2 8676  12.643  11.507  10.215 -0.0240 -0.0968  0.0224
  553DPPI    C3 8677  12.378  11.630   9.941 -0.1005 -0.0457  0.1184
  553DPPI   PO4 8678  12.990  11.278   9.886 -0.1675 -0.1283  0.0940
  553DPPI   GL1 8679  13.192  10.946   9.672  0.0611 -0.0255 -0.0179
  553DPPI   GL2 8680  13.442  10.857   9.695 -0.0983 -0.0307 -0.0032
  553DPPI   C1A 8681  12.995  11.154   9.258  0.1088 -0.2021  0.0331
  553DPPI   C2A 8682  12.987  11.089   8.833  0.0911 -0.0067 -0.1292
  553DPPI   C3A 8683  13.083  11.170   8.411 -0.2733 -0.0028 -0.0573
  553DPPI   C4A 8684  13.362  10.912   8.104  0.0522  0.0487 -0.2006
  553DPPI   C1B 8685  13.305  10.743   9.228  0.1288 -0.0615 -0.1865
  553DPPI   C2B 8686  13.340  10.744   8.836  0.1534 -0.0022  0.0016
  553DPPI   C3B 8687  13.407  10.527   8.544  0.1417  0.1221  0.2054
  553DPPI   C4B 8688  13.722  10.336   8.273  0.2053  0.1688  0.2723
  554PYPI    C1 8689   0.361  15.915   9.827 -0.0563 -0.0973  0.1617
  554PYPI    C2 8690  -0.024  15.865   9.923 -0.0712 -0.1466  0.0773
  554PYPI    C3 8691   0.212  16.090  10.154 -0.2197  0.1175 -0.0247
  554PYPI   PO4 8692   0.331  15.970   9.575 -0.1010  0.1739 -0.1116
  554PYPI   GL1 8693   0.034  16.200   9.250 -0.1822 -0.0663 -0.1088
  554PYPI   GL2 8694   0.322  16.347   9.270  0.2220  0.1244 -0.1886
  554PYPI   C1A 8695   0.073  16.166   8.757 -0.3412  0.0973  0.1707
  554PYPI   C2A 8696  -0.100  16.012   8.404  0.0014  0.0205 -0.3943
  554PYPI   D3A 8697  -0.085  15.594   8.383  0.1606 -0.0109  0.0684
  554PYPI   C4A 8698  -0.162  15.171   8.707 -0.2238 -0.1011  0.1324
  554PYPI   C1B 8699   0.467  16.421   8.804  0.2050  0.1531  0.1050
  554PYPI   C2B 8700   0.446  16.424   8.367  0.2602  0.1102 -0.0575
  554PYPI   C3B 8701   0.197  16.247   8.014 -0.0635 -0.1701  0.0767
  554PYPI   C4B 8702   0.347  16.110   7.627 -0.3917 -0.1213  0.0240
  555PYPI    C1 8703   1.287   7.087  10.019 -0.0439  0.0230  0.1560
  555PYPI    C2 8704   1.220   7.480   9.985 -0.1617 -0.0148 -0.0647
  555PYPI    C3 8705   1.560   7.349  10.149 -0.0536  0.1792 -0.1303
  555PYPI   PO4 8706   1.233   6.950   9.766 -0.2344 -0.0872  0.0147
  555PYPI   GL1 8707   1.156   7.172   9.343  0.3236  0.1993  0.1780
  555PYPI   GL2 8708   0.939   6.888   9.310  0.0097  0.1346 -0.1954
  555PYPI   C1A 8709   1.166   7.366   8.974 -0.0101  0.0992 -0.1353
  555PYPI   C2A 8710   1.145   7.373   8.507 -0.2635 -0.0287  0.1209
  555PYPI   D3A 8711   1.160   7.648   8.070 -0.0564 -0.0115 -0.1793
  555PYPI   C4A 8712   0.888   7.402   7.795  0.0290  0.1644  0.0565
  555PYPI   C1B 8713   1.008   6.928   8.910  0.0886 -0.0166 -0.1895
  555PYPI   C2B 8714   0.838   6.928   8.519 -0.1408 -0.1247  0.0138
  555PYPI   C3B 8715   0.756   7.057   8.118  0.5864 -0.0986  0.0391
  555PYPI   C4B 8716   0.669   6.846   7.737 -0.1226  0.2237  0.2686
  556PYPI    C1 8717  15.266   3.012  10.179 -0.0318  0.0803 -0.2804
  556PYPI    C2 8718  15.183   2.651  10.027 -0.1002 -0.0109 -0.0298
  556PYPI    C3 8719  15.456   2.689  10.318 -0.1400  0.1304 -0.0098
  556PYPI   PO4 8720  15.412   3.219   9.943 -0.0518  0.1099 -0.0867
  556PYPI   GL1 8721  15.326   3.350   9.470 -0.0539  0.0576  0.3234
  556PYPI   GL2 8722  15.119   3.524   9.486  0.0578 -0.0702 -0.2145
  556PYPI   C1A 8723  15.284   3.365   9.037 -0.1648 -0.0330 -0.0411
  556PYPI   C2A 8724  15.369   3.448   8.599  0.1979 -0.0254  0.1521
  556PYPI   D3A 8725  15.222   3.335   8.197  0.3664 -0.0065 -0.2075
  556PYPI   C4A 8726  14.941   3.638   8.018 -0.3808 -0.0635 -0.0645
  556PYPI   C1B 8727  15.152   3.909   9.171 -0.2022  0.0266 -0.1815
  556PYPI   C2B 8728  15.302   3.970   8.739  0.1727 -0.0895  0.1572
  556PYPI   C3B 8729  15.351   3.870   8.245 -0.1325 -0.3978 -0.0207
  556PYPI   C4B 8730  15.334   3.974   7.867 -0.2319 -0.0975 -0.0979
  557PYPI    C1 8731  10.454  14.403  10.183 -0.1222 -0.0532  0.0804
  557PYPI    C2 8732  10.535  14.341  10.570  0.1501 -0.0744  0.0216
  557PYPI    C3 8733  10.207  14.181  10.407 -0.1666  0.2429  0.3312
  557PYPI   PO4 8734  10.736  14.295  10.004  0.1916  0.1345  0.0174
  557PYPI   GL1 8735  10.833  14.243   9.593 -0.1449 -0.2553  0.2292
  557PYPI   GL2 8736  11.154  14.202   9.639  0.0441 -0.1135 -0.1737
  557PYPI   C1A 8737  10.819  14.467   9.294  0.1750 -0.1505 -0.1447
  557PYPI   C2A 8738  10.708  14.615   8.843  0.1072 -0.0278 -0.0550
  557PYPI   D3A 8739  10.609  14.549   8.413  0.1788  0.1255 -0.0915
  557PYPI   C4A 8740  10.583  14.693   7.996 -0.1000 -0.0380 -0.2709
  557PYPI   C1B 8741  11.125  14.026   9.214 -0.0772  0.0952 -0.0321
  557PYPI   C2B 8742  11.257  13.913   8.849  0.1307  0.1222  0.1134
  557PYPI   C3B 8743  11.374  14.095   8.513 -0.0606 -0.0898  0.2366
  557PYPI   C4B 8744  11.414  14.061   8.098 -0.0117 -0.2723 -0.0274
  558PYPI    C1 8745  18.446   8.937   9.947  0.3150 -0.0992  0.0471
  558PYPI    C2 8746  18.477   9.310   9.806  0.2974 -0.0924  0.0609
  558PYPI    C3 8747  18.768   9.158  10.034  0.3554 -0.1255 -0.0348
  558PYPI   PO4 8748  18.386   8.829   9.712  0.2876 -0.1950 -0.0995
  558PYPI   GL1 8749  18.685   9.048   9.451 -0.0481 -0.1837  0.1235
  558PYPI   GL2 8750  18.683   8.741   9.320  0.0145 -0.1901 -0.1448
  558PYPI   C1A 8751  18.840   9.174   9.079 -0.0352 -0.1796  0.0487
  558PYPI   C2A 8752  19.162   9.441   8.955  0.0916 -0.1042  0.1676
  558PYPI   D3A 8753  19.180   9.772   8.717  0.0592  0.1049  0.1156
  558PYPI   C4A 8754  19.138   9.685   8.345  0.2844  0.5305 -0.1854
  558PYPI   C1B 8755  19.010   8.512   9.145  0.2059  0.1758 -0.2511
  558PYPI   C2B 8756  19.001   8.459   8.723 -0.1369 -0.0961 -0.1290
  558PYPI   C3B 8757  18.989   8.634   8.366  0.1491 -0.0803 -0.0626
  558PYPI   C4B 8758  19.116   8.742   7.903 -0.0261  0.0912  0.3653
  559PYPI    C1 8759   3.445  14.321   9.879 -0.0508 -0.1144  0.0456
  559PYPI    C2 8760   3.531  14.455  10.246  0.1714 -0.0753 -0.0195
  559PYPI    C3 8761   3.155  14.356  10.153  0.0920  0.0314  0.1807
  559PYPI   PO4 8762   3.548  14.490   9.722  0.2177 -0.0650  0.2410
  559PYPI   GL1 8763   3.658  14.577   9.307  0.0439  0.1485 -0.1991
  559PYPI   GL2 8764   3.454  14.494   9.218  0.0094 -0.1077  0.3495
  559PYPI   C1A 8765   3.699  14.648   8.820 -0.0869  0.0535 -0.0272
  559PYPI   C2A 8766   3.594  14.759   8.442 -0.1328  0.1035  0.1423
  559PYPI   D3A 8767   3.483  14.922   8.079 -0.2613 -0.0453 -0.0026
  559PYPI   C4A 8768   3.527  15.267   7.791 -0.0294 -0.1395  0.2343
  559PYPI   C1B 8769   3.195  14.237   9.029 -0.0916 -0.1290 -0.1865
  559PYPI   C2B 8770   2.987  13.951   8.735  0.3384 -0.0499 -0.2958
  559PYPI   C3B 8771   2.707  13.855   8.460 -0.2879  0.1061 -0.0397
  559PYPI   C4B 8772   2.314  13.793   8.401 -0.0014  0.1870  0.2442
  560PYPI    C1 8773   7.305  13.463   9.799 -0.0140 -0.0202 -0.1572
  560PYPI    C2 8774   7.322  13.132   9.574  0.0347 -0.1233 -0.0031
  560PYPI    C3 8775   7.195  13.110   9.953 -0.3736  0.1039 -0.1207
  560PYPI   PO4 8776   7.320  13.633   9.610 -0.2282  0.4071 -0.0445
  560PYPI   GL1 8777   7.398  13.836   9.291 -0.0229  0.3005 -0.2435
  560PYPI   GL2 8778   7.590  13.515   9.236 -0.1264 -0.0315  0.0145
  560PYPI   C1A 8779   7.796  13.973   9.045 -0.0148  0.4184 -0.2264
  560PYPI   C2A 8780   7.937  14.117   8.625  0.1448  0.2315 -0.2444
  560PYPI   D3A 8781   8.121  14.116   8.236 -0.0258 -0.2262  0.0351
  560PYPI   C4A 8782   7.869  14.127   7.908  0.0004  0.2215 -0.1579
  560PYPI   C1B 8783   7.685  13.370   8.799  0.1799 -0.1456  0.2556
  560PYPI   C2B 8784   7.445  13.359   8.369  0.1385 -0.3045  0.1856
  560PYPI   C3B 8785   7.318  13.261   7.925  0.0219  0.2093  0.1503
  560PYPI   C4B 8786   7.359  13.400   7.547  0.1062 -0.0582 -0.0204
  561PYPI    C1 8787  10.430   0.466  10.185  0.3006 -0.1402  0.1430
  561PYPI    C2 8788  10.296   0.843  10.188  0.2674 -0.1458 -0.2048
  561PYPI    C3 8789  10.517   0.707  10.492 -0.0499  0.0316  0.1129
  561PYPI   PO4 8790  10.450   0.424   9.936 -0.2421  0.1896 -0.1589
  561PYPI   GL1 8791  10.748   0.752   9.662 -0.0672 -0.1224  0.0631
  561PYPI   GL2 8792  11.078   0.791   9.675 -0.2265 -0.2041 -0.0102
  561PYPI   C1A 8793  10.611   0.701   9.247 -0.1877  0.0298  0.1303
  561PYPI   C2A 8794  10.850   0.879   8.846  0.1544 -0.5512 -0.0093
  561PYPI   D3A 8795  11.074   0.978   8.467 -0.1349 -0.0318  0.0743
  561PYPI   C4A 8796  10.852   1.295   8.086  0.2472  0.0464  0.0359
  561PYPI   C1B 8797  10.875   1.199   9.434 -0.1899  0.1454  0.0402
  561PYPI   C2B 8798  11.043   1.597   9.363 -0.2900 -0.3405  0.3577
  561PYPI   C3B 8799  11.272   1.970   9.223 -0.0296 -0.1962 -0.3370
  561PYPI   C4B 8800  11.173   2.257   8.862 -0.1285  0.2595 -0.2609
  562PYPI    C1 8801   9.404  12.036   9.880  0.2088  0.1201 -0.1819
  562PYPI    C2 8802   9.533  11.737   9.648  0.1248 -0.1553  0.1189
  562PYPI    C3 8803   9.634  11.748  10.035 -0.1571  0.0178  0.1902
  562PYPI   PO4 8804   9.295  12.256   9.718  0.1122  0.1617 -0.0263
  562PYPI   GL1 8805   9.067  12.160   9.440 -0.2116 -0.2190 -0.0444
  562PYPI   GL2 8806   8.885  12.006   9.554  0.1622  0.0174 -0.0297
  562PYPI   C1A 8807   9.087  12.176   8.964  0.2768 -0.3493  0.1962
  562PYPI   C2A 8808   9.021  12.295   8.613 -0.0317  0.0066  0.2902
  562PYPI   D3A 8809   9.008  12.295   8.199 -0.1718  0.0256 -0.1431
  562PYPI   C4A 8810   9.051  11.946   7.920  0.0843 -0.1354  0.3313
  562PYPI   C1B 8811   8.902  11.735   9.087 -0.2639  0.2579 -0.0973
  562PYPI   C2B 8812   9.122  11.489   8.790 -0.0989 -0.0178  0.1368
  562PYPI   C3B 8813   9.156  11.491   8.293 -0.4448 -0.1003 -0.1189
  562PYPI   C4B 8814   9.354  11.457   7.969 -0.0650 -0.0616  0.0844
  563PYPI    C1 8815   4.097  12.172   9.979 -0.0331  0.0017 -0.2010
  563PYPI    C2 8816   3.705  12.251   9.984 -0.0403 -0.0350 -0.1802
  563PYPI    C3 8817   3.903  12.197  10.328 -0.0075  0.0303 -0.1887
  563PYPI   PO4 8818   4.203  11.904   9.716  0.1522  0.0067 -0.2402
  563PYPI   GL1 8819   4.240  11.884   9.319  0.0003  0.3131  0.3443
  563PYPI   GL2 8820   4.561  11.697   9.326 -0.4976 -0.1304  0.2521
  563PYPI   C1A 8821   4.126  11.747   8.836 -0.0007 -0.0005  0.3038
  563PYPI   C2A 8822   4.041  11.693   8.402  0.0030 -0.0377  0.1393
  563PYPI   D3A 8823   4.111  11.971   8.043 -0.0486 -0.0647  0.1694
  563PYPI   C4A 8824   3.853  11.892   7.683 -0.3773 -0.0230  0.2577
  563PYPI   C1B 8825   4.681  11.779   8.954  0.0619 -0.1085  0.0302
  563PYPI   C2B 8826   4.535  11.690   8.533 -0.0963  0.4408  0.0310
  563PYPI   C3B 8827   4.515  11.564   8.145 -0.2383  0.1117 -0.0148
  563PYPI   C4B 8828   4.487  11.164   7.964  0.1657  0.3298 -0.0844
  564PYPI    C1 8829   9.098  15.353  10.146  0.0921  0.0046 -0.0225
  564PYPI    C2 8830   9.097  15.751  10.177 -0.1860  0.0021  0.0194
  564PYPI    C3 8831   8.832  15.533  10.383 -0.0791 -0.2009 -0.0553
  564PYPI   PO4 8832   9.146  15.320   9.910 -0.0838  0.0451  0.1079
  564PYPI   GL1 8833   9.339  15.610   9.599 -0.0176 -0.1826 -0.3542
  564PYPI   GL2 8834   9.158  15.327   9.418  0.2890  0.0281  0.2014
  564PYPI   C1A 8835   9.376  15.806   9.165  0.0232 -0.0317 -0.2479
  564PYPI   C2A 8836   9.397  15.884   8.636 -0.0026  0.0313 -0.0608
  564PYPI   D3A 8837   9.310  16.051   8.291 -0.3730  0.1714  0.0974
  564PYPI   C4A 8838   9.387  16.198   7.887  0.0851  0.2206 -0.1332
  564PYPI   C1B 8839   9.152  15.318   8.971  0.1927 -0.1666 -0.3073
  564PYPI   C2B 8840   9.038  15.470   8.517 -0.2237  0.3223  0.2687
  564PYPI   C3B 8841   9.104  15.589   8.151 -0.4018 -0.3268  0.1503
  564PYPI   C4B 8842   8.947  15.904   7.833 -0.1789 -0.0754  0.2858
  565PYPI    C1 8843   4.632  17.838   9.729  0.0961  0.0345  0.0685
  565PYPI    C2 8844   5.012  17.719   9.763  0.0984  0.0225  0.0011
  565PYPI    C3 8845   4.899  18.073   9.910  0.0932 -0.0588  0.1951
  565PYPI   PO4 8846   4.628  17.899   9.414  0.0988  0.2440  0.3763
  565PYPI   GL1 8847   4.531  17.987   9.082 -0.1301  0.0297  0.1172
  565PYPI   GL2 8848   4.466  18.312   9.102  0.0619 -0.1772  0.0633
  565PYPI   C1A 8849   4.370  17.964   8.728  0.0940  0.1365  0.0237
  565PYPI   C2A 8850   4.264  17.770   8.291 -0.0250  0.0850 -0.0654
  565PYPI   D3A 8851   4.068  17.799   7.820 -0.0513 -0.0689  0.1237
  565PYPI   C4A 8852   4.257  18.183   7.574  0.1601 -0.2518 -0.1808
  565PYPI   C1B 8853   4.491  18.729   8.851 -0.2689  0.1240  0.3783
  565PYPI   C2B 8854   4.661  19.017   8.530  0.0874  0.1079 -0.0958
  565PYPI   C3B 8855   4.704  19.089   8.079 -0.1021 -0.3490 -0.1845
  565PYPI   C4B 8856   4.670  19.198   7.653 -0.0961 -0.0626 -0.3915
  566PYPI    C1 8857   3.287  18.240   9.780  0.0798 -0.2250 -0.3525
  566PYPI    C2 8858   3.428  18.592   9.652 -0.1110 -0.0651 -0.1299
  566PYPI    C3 8859   3.655  18.359   9.884 -0.0902  0.0425 -0.0414
  566PYPI   PO4 8860   3.236  18.110   9.559  0.0430  0.0957 -0.2307
  566PYPI   GL1 8861   3.119  18.217   9.194  0.4163 -0.2662  0.1368
  566PYPI   GL2 8862   2.718  18.453   9.101 -0.2208  0.0715 -0.1514
  566PYPI   C1A 8863   3.022  17.958   8.919 -0.2279 -0.1680 -0.2696
  566PYPI   C2A 8864   2.962  17.806   8.450 -0.2725 -0.0277  0.0599
  566PYPI   D3A 8865   2.635  17.532   8.161 -0.1639 -0.1504  0.0041
  566PYPI   C4A 8866   2.596  17.634   7.850  0.3183 -0.0537  0.0317
  566PYPI   C1B 8867   2.675  18.515   8.719 -0.1061  0.1138 -0.2343
  566PYPI   C2B 8868   2.798  18.322   8.312  0.0972 -0.1010 -0.0575
  566PYPI   C3B 8869   2.669  18.180   7.912  0.2681  0.1019  0.4751
  566PYPI   C4B 8870   2.483  18.112   7.529  0.0836  0.0296 -0.0523
  567PYPI    C1 8871  12.019   9.280  10.009 -0.2085 -0.0074 -0.1089
  567PYPI    C2 8872  11.972   9.675   9.962 -0.1269  0.0194  0.0299
  567PYPI    C3 8873  12.145   9.532  10.293 -0.3274 -0.1431  0.0659
  567PYPI   PO4 8874  11.959   9.180   9.800  0.1902 -0.0635  0.0198
  567PYPI   GL1 8875  12.174   9.366   9.476 -0.0092  0.1993 -0.1026
  567PYPI   GL2 8876  11.874   9.562   9.483 -0.3693  0.1722  0.0429
  567PYPI   C1A 8877  12.449   9.296   9.181 -0.0502 -0.3443  0.2460
  567PYPI   C2A 8878  12.588   9.669   8.875 -0.1753  0.1139 -0.2132
  567PYPI   D3A 8879  12.607   9.580   8.502  0.2766 -0.3341  0.1356
  567PYPI   C4A 8880  12.918   9.555   8.188  0.0129 -0.2439  0.1549
  567PYPI   C1B 8881  11.750   9.497   9.100  0.1874  0.0938 -0.2385
  567PYPI   C2B 8882  11.530   9.384   8.847 -0.0830 -0.0727  0.1036
  567PYPI   C3B 8883  11.346   9.360   8.398  0.0782 -0.2039 -0.1333
  567PYPI   C4B 8884  11.197   8.974   8.143 -0.2150  0.4191  0.0435
  568PYPI    C1 8885   1.959  18.306  10.321 -0.2700  0.1839 -0.0265
  568PYPI    C2 8886   1.846  18.026  10.584 -0.1035 -0.0282 -0.1777
  568PYPI    C3 8887   1.832  18.412  10.685  0.0699 -0.1126  0.1863
  568PYPI   PO4 8888   2.008  18.080  10.072 -0.0733 -0.1361  0.2732
  568PYPI   GL1 8889   1.933  18.077   9.544 -0.2550  0.3179  0.3709
  568PYPI   GL2 8890   2.062  17.755   9.369  0.4586 -0.0533  0.5641
  568PYPI   C1A 8891   1.703  18.251   9.219 -0.2056 -0.1046 -0.0750
  568PYPI   C2A 8892   1.571  18.121   8.871  0.2560 -0.0268  0.1098
  568PYPI   D3A 8893   1.377  18.026   8.440 -0.1110  0.0023 -0.2362
  568PYPI   C4A 8894   1.277  18.030   8.001 -0.0326 -0.2645 -0.1668
  568PYPI   C1B 8895   2.053  17.964   8.962  0.2520 -0.0096  0.2205
  568PYPI   C2B 8896   1.959  18.008   8.562  0.1143  0.1938  0.0155
  568PYPI   C3B 8897   1.814  18.050   8.212 -0.0259 -0.2155 -0.2520
  568PYPI   C4B 8898   1.726  18.233   7.845  0.0391  0.3440 -0.0485
  569PYPI    C1 8899  16.649   1.183  10.328 -0.3983  0.0608 -0.1658
  569PYPI    C2 8900  16.621   1.521  10.540 -0.0660 -0.1096  0.1618
  569PYPI    C3 8901  16.632   1.167  10.727 -0.0729 -0.2838 -0.1593
  569PYPI   PO4 8902  16.853   1.316  10.121  0.0547 -0.2083 -0.2743
  569PYPI   GL1 8903  16.839   1.506   9.875 -0.2439 -0.1813 -0.0447
  569PYPI   GL2 8904  16.499   1.494   9.731  0.2032  0.1428  0.0072
  569PYPI   C1A 8905  16.888   1.583   9.428 -0.0280 -0.0064 -0.3833
  569PYPI   C2A 8906  16.990   1.802   9.082 -0.0589  0.3523 -0.2736
  569PYPI   D3A 8907  16.931   2.050   8.765 -0.3454 -0.1845 -0.0872
  569PYPI   C4A 8908  16.833   2.101   8.269  0.0127 -0.0584 -0.0457
  569PYPI   C1B 8909  16.515   1.277   9.324 -0.3551  0.2162  0.0029
  569PYPI   C2B 8910  16.497   1.088   8.953 -0.0051 -0.2472 -0.1004
  569PYPI   C3B 8911  16.379   1.107   8.499  0.2361  0.2923 -0.0468
  569PYPI   C4B 8912  16.696   1.124   8.304  0.1461  0.0424  0.2176
  570PYPI    C1 8913  14.173  13.953   9.973  0.3642 -0.2111 -0.0119
  570PYPI    C2 8914  13.975  13.891   9.632  0.2247 -0.2845  0.0816
  570PYPI    C3 8915  13.782  13.869   9.982  0.3166  0.0180  0.1537
  570PYPI   PO4 8916  14.322  14.092   9.890 -0.1169  0.0668 -0.1118
  570PYPI   GL1 8917  14.572  13.950   9.574 -0.1482  0.1527  0.1203
  570PYPI   GL2 8918  14.449  13.698   9.602  0.2342  0.4865  0.0906
  570PYPI   C1A 8919  14.635  13.839   9.067 -0.2370 -0.0090  0.0290
  570PYPI   C2A 8920  14.663  13.801   8.632 -0.1322 -0.0146 -0.2679
  570PYPI   D3A 8921  14.501  14.062   8.408 -0.0818 -0.3072  0.0295
  570PYPI   C4A 8922  14.633  14.194   8.118  0.1903  0.0830 -0.1106
  570PYPI   C1B 8923  14.215  13.652   9.266 -0.2000  0.1915 -0.0926
  570PYPI   C2B 8924  14.156  13.866   8.953 -0.1253 -0.3451 -0.0049
  570PYPI   C3B 8925  14.098  14.232   8.602  0.2044 -0.0132 -0.2431
  570PYPI   C4B 8926  14.049  14.364   8.220 -0.2507  0.1136  0.0816
  571PYPI    C1 8927  11.144  10.532   9.798 -0.1320  0.2541 -0.0881
  571PYPI    C2 8928  11.538  10.511   9.732 -0.0792  0.3708  0.1762
  571PYPI    C3 8929  11.392  10.782   9.987 -0.3349  0.3496  0.0559
  571PYPI   PO4 8930  11.047  10.442   9.472  0.0512  0.2967  0.0248
  571PYPI   GL1 8931  10.977  10.392   8.961  0.4019  0.1540 -0.4340
  571PYPI   GL2 8932  10.993  10.073   9.157 -0.1469  0.0870 -0.0646
  571PYPI   C1A 8933  11.240  10.374   8.590  0.2555  0.2836 -0.1744
  571PYPI   C2A 8934  11.193  10.344   8.211  0.1173 -0.2314 -0.3924
  571PYPI   D3A 8935  11.063  10.149   7.851  0.0178 -0.0962 -0.2030
  571PYPI   C4A 8936  11.242  10.138   7.450  0.1866 -0.1416 -0.0135
  571PYPI   C1B 8937  10.667   9.885   8.837  0.0945 -0.1226  0.1722
  571PYPI   C2B 8938  10.528   9.604   8.525  0.1584 -0.2192 -0.0028
  571PYPI   C3B 8939  10.313   9.627   8.141 -0.0284  0.2926  0.3120
  571PYPI   C4B 8940   9.990   9.743   7.787 -0.1995 -0.1327  0.0992
  572PYPI    C1 8941   6.464  17.907   9.728 -0.2734 -0.0381 -0.0661
  572PYPI    C2 8942   6.331  18.267   9.616 -0.0926  0.0716  0.0663
  572PYPI    C3 8943   6.130  18.056   9.890 -0.2523  0.0279 -0.0830
  572PYPI   PO4 8944   6.560  17.815   9.565  0.2485 -0.0265 -0.2425
  572PYPI   GL1 8945   6.781  18.031   9.282  0.2390  0.0048  0.3318
  572PYPI   GL2 8946   6.667  18.293   9.136  0.0969  0.1826  0.2160
  572PYPI   C1A 8947   6.953  18.010   8.840  0.2624 -0.0416 -0.1373
  572PYPI   C2A 8948   6.859  18.028   8.350 -0.1599 -0.3184  0.1620
  572PYPI   D3A 8949   6.877  18.081   7.914  0.0817  0.2971  0.0870
  572PYPI   C4A 8950   6.711  18.385   7.745  0.0260  0.0341 -0.1783
  572PYPI   C1B 8951   6.447  18.223   8.755 -0.0783 -0.2329  0.0561
  572PYPI   C2B 8952   6.212  18.292   8.362 -0.0483  0.1505 -0.2294
  572PYPI   C3B 8953   6.185  18.384   7.834 -0.1874  0.2350 -0.0687
  572PYPI   C4B 8954   6.340  18.686   7.694  0.0537  0.1899  0.0029
  573PYPI    C1 8955   5.973  18.550   9.818 -0.1136  0.0693 -0.3128
  573PYPI    C2 8956   5.857  18.931   9.785 -0.0153  0.1271 -0.0181
  573PYPI    C3 8957   6.190  18.841   9.987 -0.1351 -0.1301  0.0683
  573PYPI   PO4 8958   5.818  18.431   9.638  0.4253  0.0597  0.3235
  573PYPI   GL1 8959   5.696  18.314   9.346  0.1047  0.2660 -0.0106
  573PYPI   GL2 8960   5.402  18.238   9.116 -0.2200  0.0678 -0.1149
  573PYPI   C1A 8961   6.175  18.309   9.146 -0.0634 -0.1592 -0.1286
  573PYPI   C2A 8962   6.394  18.681   9.016  0.2658  0.2259  0.0598
  573PYPI   D3A 8963   6.522  19.064   8.949 -0.3274  0.0440  0.0093
  573PYPI   C4A 8964   6.938  19.095   8.635  0.1780  0.1424 -0.0145
  573PYPI   C1B 8965   5.292  18.263   8.646  0.0991  0.2115 -0.1331
  573PYPI   C2B 8966   5.291  18.259   8.215 -0.1556 -0.1748 -0.0752
  573PYPI   C3B 8967   5.054  18.122   7.862 -0.0899 -0.1057 -0.0774
  573PYPI   C4B 8968   4.907  18.402   7.491 -0.1340 -0.1896 -0.1623
  574ERGO   ROH 8969  17.538   9.409   9.124 -0.0149 -0.1637  0.0252
  574ERGO    R1 8970  17.530   9.446   8.843 -0.1369 -0.0889  0.0371
  574ERGO    R2 8971  17.750   9.402   8.681 -0.1720  0.0653 -0.0586
  574ERGO    R3 8972  17.578   9.239   8.548 -0.1414  0.0159 -0.0370
  574ERGO    R4 8973  17.793   9.293   8.356 -0.1276 -0.0147 -0.0259
  574ERGO    R5 8974  17.579   9.323   8.323 -0.1245 -0.0430 -0.0574
  574ERGO    C1 8975  17.656   9.078   8.041 -0.0729 -0.1075  0.0134
  574ERGO    C2 8976  17.713   8.889   7.913  0.3991  0.0192  0.1601
  575ERGO   ROH 8977   0.813   4.733   9.241  0.1035  0.4443 -0.0807
  575ERGO    R1 8978   1.047   4.730   9.081  0.1329  0.2086 -0.0365
  575ERGO    R2 8979   1.118   4.513   8.925 -0.0140  0.1056  0.0361
  575ERGO    R3 8980   1.126   4.699   8.727  0.1753  0.0467 -0.0137
  575ERGO    R4 8981   1.246   4.460   8.609 -0.1058 -0.1233  0.0355
  575ERGO    R5 8982   1.334   4.659   8.616  0.1208 -0.2178 -0.0266
  575ERGO    C1 8983   1.329   4.603   8.239  0.0183 -0.3118 -0.0114
  575ERGO    C2 8984   1.534   4.644   7.970 -0.4040  0.0391 -0.0027
  576ERGO   ROH 8985   3.856  10.745   9.363 -0.0226  0.0777 -0.0403
  576ERGO    R1 8986   3.900  10.798   9.088 -0.0830  0.1306 -0.0403
  576ERGO    R2 8987   3.835  10.617   8.890  0.0803  0.0750 -0.0451
  576ERGO    R3 8988   3.696  10.828   8.788 -0.1245 -0.0518 -0.0315
  576ERGO    R4 8989   3.708  10.633   8.569  0.4315  0.1342 -0.1860
  576ERGO    R5 8990   3.769  10.842   8.560  0.1258  0.2420  0.0597
  576ERGO    C1 8991   3.503  10.840   8.287  0.4436  0.0496 -0.2552
  576ERGO    C2 8992   3.333  10.999   7.992 -0.0644  0.1856  0.2054
  577ERGO   ROH 8993   6.936   4.523   9.884  0.2060 -0.1463  0.0228
  577ERGO    R1 8994   7.089   4.496   9.647  0.2029  0.0409 -0.0065
  577ERGO    R2 8995   7.080   4.268   9.489  0.5051 -0.0127  0.0194
  577ERGO    R3 8996   7.020   4.446   9.294  0.1912 -0.1156  0.0221
  577ERGO    R4 8997   7.096   4.204   9.150  0.2962 -0.0483  0.0182
  577ERGO    R5 8998   7.179   4.402   9.121  0.0841  0.0069 -0.0914
  577ERGO    C1 8999   7.048   4.333   8.769 -0.1203 -0.1655  0.0200
  577ERGO    C2 9000   6.960   4.257   8.377 -0.1844  0.0900 -0.0790
  578ERGO   ROH 9001   6.148  13.747   9.054 -0.0610  0.3541 -0.0684
  578ERGO    R1 9002   6.172  13.818   8.782 -0.0804  0.2611 -0.0957
  578ERGO    R2 9003   6.306  13.660   8.599  0.0307  0.2645 -0.0264
  578ERGO    R3 9004   6.072  13.676   8.462  0.0287  0.0715 -0.0455
  578ERGO    R4 9005   6.279  13.678   8.254  0.0280  0.1464 -0.0320
  578ERGO    R5 9006   6.119  13.824   8.280 -0.0648  0.0456 -0.0854
  578ERGO    C1 9007   6.043  13.703   7.926  0.0245 -0.1037 -0.0533
  578ERGO    C2 9008   6.017  13.810   7.599  0.0810  0.0432  0.1017
  579ERGO   ROH 9009   9.588  12.310   9.368  0.1107 -0.0976  0.0119
  579ERGO    R1 9010   9.499  12.400   9.115  0.0766  0.0378  0.0715
  579ERGO    R2 9011   9.630  12.598   8.973  0.1844 -0.0414  0.0626
  579ERGO    R3 9012   9.632  12.411   8.776 -0.0624  0.0027  0.0144
  579ERGO    R4 9013   9.594  12.667   8.637  0.3292  0.1083  0.0767
  579ERGO    R5 9014   9.469  12.489   8.619  0.0667  0.2896  0.0124
  579ERGO    C1 9015   9.575  12.532   8.255  0.1818  0.2369  0.0397
  579ERGO    C2 9016   9.664  12.655   7.965  0.0073  0.0530 -0.0385
  580ERGO   ROH 9017   1.809   1.229   9.578  0.2169 -0.0908 -0.0511
  580ERGO    R1 9018   1.785   1.403   9.357  0.0032 -0.0945 -0.0322
  580ERGO    R2 9019   1.977   1.418   9.158 -0.1151  0.0128 -0.1356
  580ERGO    R3 9020   1.765   1.370   8.995 -0.1800 -0.0896 -0.0236
  580ERGO    R4 9021   1.978   1.458   8.814 -0.2196 -0.2863 -0.1738
  580ERGO    R5 9022   1.777   1.541   8.828 -0.2008 -0.2345 -0.1788
  580ERGO    C1 9023   1.779   1.435   8.462 -0.3413 -0.5566 -0.0909
  580ERGO    C2 9024   2.033   1.418   8.282  0.1012 -0.1215  0.3743
  581ERGO   ROH 9025  14.231   8.450   9.432  0.2094 -0.2806  0.0452
  581ERGO    R1 9026  14.033   8.436   9.230  0.1211 -0.2850  0.1307
  581ERGO    R2 9027  14.095   8.443   8.960 -0.0114 -0.0819  0.1024
  581ERGO    R3 9028  13.952   8.212   8.955  0.1356 -0.1718  0.0343
  581ERGO    R4 9029  13.958   8.302   8.676  0.0839 -0.0914  0.0614
  581ERGO    R5 9030  13.781   8.251   8.792  0.1142 -0.2367  0.0430
  581ERGO    C1 9031  13.745   8.002   8.506  0.2773 -0.1814 -0.0265
  581ERGO    C2 9032  13.447   7.830   8.379  0.3431  0.0286 -0.0074
  582ERGO   ROH 9033  17.498   3.616   9.543 -0.0654 -0.2097  0.0787
  582ERGO    R1 9034  17.433   3.567   9.272 -0.1704 -0.2221  0.1055
  582ERGO    R2 9035  17.175   3.587   9.175 -0.1636  0.0750  0.1386
  582ERGO    R3 9036  17.290   3.756   8.996  0.0287 -0.1327  0.0625
  582ERGO    R4 9037  17.083   3.616   8.842 -0.1302  0.0302  0.1255
  582ERGO    R5 9038  17.294   3.632   8.791 -0.1097 -0.2302  0.1174
  582ERGO    C1 9039  17.139   3.792   8.481  0.0700 -0.1910  0.0466
  582ERGO    C2 9040  16.886   3.847   8.170 -0.0029 -0.1698 -0.1564
  583ERGO   ROH 9041   7.112  17.400   9.138 -0.0290 -0.2559 -0.0673
  583ERGO    R1 9042   7.204  17.484   8.884 -0.0519 -0.0317 -0.0035
  583ERGO    R2 9043   7.169  17.333   8.655  0.1522  0.0500 -0.0918
  583ERGO    R3 9044   7.054  17.560   8.561 -0.0534 -0.0127  0.0018
  583ERGO    R4 9045   7.006  17.361   8.352  0.2597  0.0644 -0.1487
  583ERGO    R5 9046   7.098  17.556   8.325  0.0602  0.1845  0.0183
  583ERGO    C1 9047   6.803  17.592   8.087  0.1293  0.0139 -0.0940
  583ERGO    C2 9048   6.624  17.571   7.871  0.0240 -0.1470  0.3347
  584ERGO   ROH 9049   7.820   0.047   9.736  0.2778  0.0120  0.1104
  584ERGO    R1 9050   7.866  -0.051   9.475  0.3324  0.1356  0.0745
  584ERGO    R2 9051   7.669  -0.057   9.281  0.2733 -0.1127  0.1496
  584ERGO    R3 9052   7.853   0.081   9.136  0.0196  0.1887  0.1020
  584ERGO    R4 9053   7.707  -0.078   8.938  0.3756 -0.2629  0.1678
  584ERGO    R5 9054   7.923  -0.073   8.967  0.3760  0.2097  0.2136
  584ERGO    C1 9055   7.902   0.040   8.603  0.1970 -0.0675  0.1339
  584ERGO    C2 9056   8.010   0.039   8.237 -0.1397  0.0561  0.1167
  585ERGO   ROH 9057   7.853  17.226   9.541 -0.0644  0.1093 -0.0572
  585ERGO    R1 9058   7.993  17.368   9.341 -0.0309  0.0772 -0.0587
  585ERGO    R2 9059   8.258  17.317   9.281 -0.0036  0.0957  0.0200
  585ERGO    R3 9060   8.161  17.288   9.028  0.0597  0.0156  0.0062
  585ERGO    R4 9061   8.435  17.386   8.992  0.0353  0.0859  0.0432
  585ERGO    R5 9062   8.254  17.473   8.907  0.0308  0.0146 -0.0128
  585ERGO    C1 9063   8.448  17.399   8.587  0.1174  0.0050  0.0438
  585ERGO    C2 9064   8.523  17.277   8.128 -0.0860  0.0672  0.0369
  586ERGO   ROH 9065   2.447   6.219   9.193 -0.1591 -0.1294 -0.0291
  586ERGO    R1 9066   2.296   6.308   8.971 -0.1896 -0.0517  0.0227
  586ERGO    R2 9067   2.377   6.267   8.710 -0.1623  0.1527  0.0007
  586ERGO    R3 9068   2.132   6.154   8.685 -0.1129  0.0612 -0.0841
  586ERGO    R4 9069   2.247   6.141   8.416  0.0646 -0.0714 -0.0080
  586ERGO    R5 9070   2.054   6.226   8.470  0.0004 -0.0945 -0.1821
  586ERGO    C1 9071   1.940   5.961   8.221  0.2432 -0.2878 -0.0925
  586ERGO    C2 9072   1.985   5.842   7.808  0.1565  0.0047 -0.4759
  587ERGO   ROH 9073   5.015  17.679   9.169 -0.0472  0.0822 -0.0320
  587ERGO    R1 9074   5.060  17.764   8.903 -0.0609  0.1945  0.0016
  587ERGO    R2 9075   4.904  17.678   8.692  0.0681  0.1091 -0.0568
  587ERGO    R3 9076   4.873  17.944   8.648 -0.1649  0.0934  0.0051
  587ERGO    R4 9077   4.763  17.816   8.408  0.2988  0.0540 -0.2021
  587ERGO    R5 9078   4.916  17.971   8.414  0.1270  0.2241  0.0670
  587ERGO    C1 9079   4.651  18.146   8.202  0.2144  0.0072 -0.2286
  587ERGO    C2 9080   4.604  18.264   7.936  0.1486  0.0680 -0.0158
  588ERGO   ROH 9081  11.413   2.880   9.488 -0.1010  0.0095  0.0477
  588ERGO    R1 9082  11.471   2.875   9.210 -0.2363 -0.0295  0.0202
  588ERGO    R2 9083  11.693   2.748   9.107 -0.0874  0.2717 -0.0287
  588ERGO    R3 9084  11.509   2.622   8.952  0.0307 -0.0960  0.1194
  588ERGO    R4 9085  11.761   2.592   8.806  0.0063  0.3302 -0.0389
  588ERGO    R5 9086  11.574   2.673   8.727 -0.2015 -0.0173  0.0629
  588ERGO    C1 9087  11.627   2.383   8.485  0.1716  0.0192  0.0943
  588ERGO    C2 9088  11.630   2.176   8.183 -0.1474  0.2908 -0.0244
  589ERGO   ROH 9089  12.174   3.970   9.729 -0.0426  0.0139  0.1604
  589ERGO    R1 9090  12.183   3.962   9.446  0.0339  0.1052  0.1599
  589ERGO    R2 9091  12.056   3.767   9.298  0.3037 -0.0146  0.0724
  589ERGO    R3 9092  11.943   3.981   9.173  0.0710 -0.1101  0.1129
  589ERGO    R4 9093  11.844   3.747   9.025  0.4771 -0.1706 -0.0534
  589ERGO    R5 9094  11.945   3.921   8.941  0.2792  0.0086  0.0866
  589ERGO    C1 9095  11.616   3.936   8.749  0.3597 -0.3512 -0.0886
  589ERGO    C2 9096  11.483   3.723   8.536  0.1958  0.1390  0.0439
  590ERGO   ROH 9097   0.680   8.387   9.582  0.1279 -0.0453 -0.0352
  590ERGO    R1 9098   0.803   8.390   9.327  0.1183 -0.4703 -0.0519
  590ERGO    R2 9099   0.720   8.227   9.120 -0.4619 -0.2270 -0.0303
  590ERGO    R3 9100   0.700   8.462   8.985  0.3010 -0.1441 -0.0422
  590ERGO    R4 9101   0.714   8.257   8.776 -0.7366 -0.2748 -0.0323
  590ERGO    R5 9102   0.842   8.433   8.794 -0.0074 -0.7428 -0.2034
  590ERGO    C1 9103   0.692   8.495   8.449 -0.1803 -0.2250 -0.0445
  590ERGO    C2 9104   0.662   8.709   8.290 -0.2833  0.1089  0.1568
  591ERGO   ROH 9105   4.666  15.037   8.894  0.2841  0.0529 -0.1569
  591ERGO    R1 9106   4.603  14.908   8.650 -0.0440  0.1198 -0.1135
  591ERGO    R2 9107   4.431  15.018   8.463  0.1231  0.4333 -0.0924
  591ERGO    R3 9108   4.642  14.981   8.295  0.0143 -0.0332 -0.1392
  591ERGO    R4 9109   4.413  15.038   8.119  0.0688  0.3417 -0.0946
  591ERGO    R5 9110   4.547  14.866   8.107 -0.2605  0.0751 -0.0711
  591ERGO    C1 9111   4.600  15.015   7.760 -0.0649 -0.1495 -0.1398
  591ERGO    C2 9112   4.458  15.104   7.509 -0.1311 -0.2798  0.2123
  592ERGO   ROH 9113   6.832  16.907   9.345  0.2020  0.1105 -0.1223
  592ERGO    R1 9114   6.878  16.938   9.067  0.1236  0.1295 -0.1337
  592ERGO    R2 9115   6.711  16.829   8.876  0.1835 -0.0390 -0.0953
  592ERGO    R3 9116   6.702  17.085   8.784 -0.0644 -0.0513 -0.1126
  592ERGO    R4 9117   6.636  16.921   8.551  0.3108 -0.1440 -0.1549
  592ERGO    R5 9118   6.792  17.072   8.563  0.1165  0.0495 -0.0451
  592ERGO    C1 9119   6.585  17.214   8.276  0.1521 -0.2164 -0.2059
  592ERGO    C2 9120   6.258  17.362   8.129  0.0185  0.1520 -0.0770
  593ERGO   ROH 9121  10.642  16.509   9.368  0.1719  0.2711 -0.0360
  593ERGO    R1 9122  10.655  16.589   9.097  0.0662  0.1346 -0.0809
  593ERGO    R2 9123  10.839  16.484   8.919  0.0276  0.0856 -0.0830
  593ERGO    R3 9124  10.617  16.428   8.772 -0.0052 -0.0375  0.0092
  593ERGO    R4 9125  10.833  16.454   8.575 -0.1180  0.2529 -0.0977
  593ERGO    R5 9126  10.643  16.561   8.574 -0.2209  0.0904  0.0572
  593ERGO    C1 9127  10.622  16.384   8.236 -0.2336  0.2348 -0.0198
  593ERGO    C2 9128  10.418  16.302   7.911  0.0413  0.2492  0.1147
  594ERGO   ROH 9129   0.919   1.189   9.253 -0.3655  0.0418  0.0190
  594ERGO    R1 9130   0.778   1.187   9.008 -0.2561 -0.0911 -0.0453
  594ERGO    R2 9131   0.878   1.303   8.777 -0.2629  0.0101 -0.0025
  594ERGO    R3 9132   0.833   1.056   8.672  0.0224 -0.0359 -0.0229
  594ERGO    R4 9133   0.785   1.241   8.450 -0.5291 -0.0439  0.0818
  594ERGO    R5 9134   0.648   1.088   8.523 -0.2002 -0.2918  0.1911
  594ERGO    C1 9135   0.688   0.974   8.161 -0.4163 -0.1186  0.1118
  594ERGO    C2 9136   0.582   0.751   7.951  0.0488  0.0805 -0.1246
  595ERGO   ROH 9137   1.537  17.750   9.254 -0.0806  0.0093 -0.1381
  595ERGO    R1 9138   1.658  17.664   9.012 -0.0055  0.1054 -0.1365
  595ERGO    R2 9139   1.544  17.472   8.848  0.2327 -0.1163 -0.0545
  595ERGO    R3 9140   1.572  17.665   8.659 -0.0857 -0.1300 -0.1191
  595ERGO    R4 9141   1.551  17.415   8.508  0.1771 -0.2044 -0.0398
  595ERGO    R5 9142   1.709  17.564   8.491 -0.0178 -0.0032 -0.1405
  595ERGO    C1 9143   1.581  17.563   8.132 -0.1542 -0.2685 -0.0919
  595ERGO    C2 9144   1.657  17.689   7.910 -0.3440  0.1649  0.3731
  596ERGO   ROH 9145  17.413  12.764   9.466 -0.1734  0.0809  0.1275
  596ERGO    R1 9146  17.390  12.887   9.212 -0.0174  0.0553  0.1008
  596ERGO    R2 9147  17.556  12.824   9.000 -0.0619 -0.1628  0.1342
  596ERGO    R3 9148  17.321  12.779   8.871 -0.0968  0.0607  0.1136
  596ERGO    R4 9149  17.518  12.813   8.657 -0.0194 -0.2069  0.1300
  596ERGO    R5 9150  17.330  12.921   8.679  0.0902  0.0075  0.0773
  596ERGO    C1 9151  17.275  12.764   8.336 -0.0272 -0.0226  0.1083
  596ERGO    C2 9152  17.309  12.707   7.969 -0.0930 -0.0151 -0.1401
  597ERGO   ROH 9153   7.606  11.744   9.399 -0.1187  0.1645  0.2105
  597ERGO    R1 9154   7.674  11.857   9.148 -0.0731  0.1324  0.2079
  597ERGO    R2 9155   7.820  11.719   8.958 -0.0331  0.1094  0.2527
  597ERGO    R3 9156   7.610  11.781   8.798 -0.0048  0.0830  0.2062
  597ERGO    R4 9157   7.828  11.717   8.613 -0.0002 -0.0397  0.2539
  597ERGO    R5 9158   7.708  11.899   8.614  0.0360 -0.0154  0.1648
  597ERGO    C1 9159   7.634  11.774   8.261  0.0455 -0.1512  0.2111
  597ERGO    C2 9160   7.616  11.785   7.930 -0.0182 -0.0539  0.1544
  598ERGO   ROH 9161   8.797  13.646   9.354  0.3802 -0.1532 -0.0017
  598ERGO    R1 9162   8.770  13.637   9.072  0.2132 -0.2923  0.0151
  598ERGO    R2 9163   8.863  13.839   8.907 -0.2398 -0.1734 -0.1205
  598ERGO    R3 9164   8.995  13.634   8.786  0.0434  0.0073 -0.1235
  598ERGO    R4 9165   8.962  13.837   8.576 -0.4794 -0.1480 -0.1927
  598ERGO    R5 9166   8.903  13.627   8.565 -0.1082 -0.2623 -0.0511
  598ERGO    C1 9167   9.143  13.644   8.269 -0.3531  0.0366 -0.2377
  598ERGO    C2 9168   9.426  13.582   8.072  0.0827  0.0426  0.0302
  599ERGO   ROH 9169   1.111  12.406   8.814 -0.0523 -0.0192  0.0465
  599ERGO    R1 9170   1.052  12.557   8.582 -0.0222  0.0149  0.0609
  599ERGO    R2 9171   1.056  12.834   8.579  0.1503  0.0136  0.0563
  599ERGO    R3 9172   1.227  12.797   8.371  0.0701 -0.0970  0.0097
  599ERGO    R4 9173   1.163  13.082   8.364  0.1244 -0.0871 -0.0736
  599ERGO    R5 9174   1.144  12.941   8.199  0.0388 -0.1445 -0.0148
  599ERGO    C1 9175   1.385  13.192   8.042  0.0340 -0.2497 -0.1931
  599ERGO    C2 9176   1.562  13.338   7.810 -0.2119 -0.0774  0.2647
  600ERGO   ROH 9177   2.468   2.212   9.173  0.2588  0.0239 -0.0739
  600ERGO    R1 9178   2.511   2.345   8.927  0.3307 -0.1544 -0.1599
  600ERGO    R2 9179   2.552   2.209   8.689  0.0000 -0.3328 -0.1226
  600ERGO    R3 9180   2.345   2.362   8.603  0.1813 -0.0570 -0.0784
  600ERGO    R4 9181   2.494   2.296   8.360  0.0609 -0.2273 -0.1055
  600ERGO    R5 9182   2.438   2.496   8.428  0.3262 -0.1595 -0.0797
  600ERGO    C1 9183   2.265   2.492   8.088  0.2664  0.0932 -0.0539
  600ERGO    C2 9184   2.265   2.416   7.807  0.0593 -0.2902 -0.0479
  601ERGO   ROH 9185   1.916   8.146   9.592 -0.0727  0.3544 -0.1873
  601ERGO    R1 9186   1.819   8.034   9.351  0.1056  0.0439 -0.1206
  601ERGO    R2 9187   1.702   8.187   9.153 -0.1658 -0.2684 -0.2072
  601ERGO    R3 9188   1.890   8.070   8.995  0.0319 -0.0428 -0.1448
  601ERGO    R4 9189   1.755   8.262   8.819 -0.2434 -0.3013 -0.2274
  601ERGO    R5 9190   1.784   8.049   8.782  0.0820 -0.2770 -0.1505
  601ERGO    C1 9191   1.962   8.195   8.478 -0.1030 -0.1087 -0.1805
  601ERGO    C2 9192   2.068   8.034   8.267  0.0322  0.1886  0.1951
  602ERGO   ROH 9193   4.941  15.348   9.157  0.0578 -0.0865  0.0895
  602ERGO    R1 9194   4.970  15.408   8.882 -0.0403 -0.0891  0.0790
  602ERGO    R2 9195   5.033  15.215   8.693 -0.0313 -0.0744  0.0733
  602ERGO    R3 9196   4.809  15.309   8.571 -0.0954 -0.1543  0.1264
  602ERGO    R4 9197   5.003  15.275   8.354 -0.0929  0.0050  0.0916
  602ERGO    R5 9198   4.891  15.456   8.401 -0.1839 -0.0611  0.1577
  602ERGO    C1 9199   4.775  15.397   8.042 -0.1889 -0.0239  0.1522
  602ERGO    C2 9200   4.797  15.483   7.778 -0.2654 -0.0918 -0.0738
  603ERGO   ROH 9201  13.542  13.399   9.748  0.0763  0.1950 -0.1038
  603ERGO    R1 9202  13.644  13.524   9.515  0.0378  0.1052 -0.1698
  603ERGO    R2 9203  13.796  13.388   9.328  0.0609  0.0483 -0.1125
  603ERGO    R3 9204  13.608  13.481   9.155  0.0309 -0.0790 -0.1481
  603ERGO    R4 9205  13.835  13.406   8.985  0.0865  0.0024 -0.1114
  603ERGO    R5 9206  13.734  13.599   8.989 -0.0114 -0.0475 -0.1577
  603ERGO    C1 9207  13.682  13.504   8.623  0.0733 -0.1438 -0.1442
  603ERGO    C2 9208  13.770  13.414   8.298  0.1380 -0.0571  0.2354
  604ERGO   ROH 9209   9.429   5.604   9.729 -0.0393 -0.1018  0.0265
  604ERGO    R1 9210   9.589   5.781   9.577 -0.0549 -0.0244  0.1006
  604ERGO    R2 9211   9.802   5.695   9.423  0.0159  0.0713  0.1484
  604ERGO    R3 9212   9.671   5.829   9.226  0.0306  0.0607  0.1308
  604ERGO    R4 9213   9.956   5.869   9.167  0.0411 -0.0651  0.0692
  604ERGO    R5 9214   9.805   6.025   9.189  0.1011  0.0007  0.0498
  604ERGO    C1 9215   9.923   6.096   8.833  0.0694 -0.1543  0.0066
  604ERGO    C2 9216   9.874   6.174   8.445  0.1310  0.1281  0.1509
  605ERGO   ROH 9217   8.543  18.056   9.793 -0.2534 -0.0447  0.1124
  605ERGO    R1 9218   8.687  18.212   9.606 -0.1122 -0.1226  0.1532
  605ERGO    R2 9219   8.827  18.100   9.395 -0.1049 -0.2011  0.1906
  605ERGO    R3 9220   8.676  18.271   9.247  0.0246 -0.1232  0.1503
  605ERGO    R4 9221   8.864  18.153   9.056  0.2328  0.0443  0.2629
  605ERGO    R5 9222   8.831  18.366   9.090  0.1675  0.0099  0.3735
  605ERGO    C1 9223   8.745  18.346   8.719  0.5511  0.2608  0.2671
  605ERGO    C2 9224   8.813  18.301   8.451  0.1055  0.2442  0.0739
  606ERGO   ROH 9225   2.886  12.497   9.154 -0.0817 -0.0449 -0.0741
  606ERGO    R1 9226   2.845  12.631   8.908  0.3094 -0.1238 -0.1895
  606ERGO    R2 9227   2.973  12.556   8.675  0.0422 -0.7638 -0.1547
  606ERGO    R3 9228   2.720  12.545   8.577 -0.0388 -0.0323 -0.0850
  606ERGO    R4 9229   2.891  12.563   8.339  0.0243 -1.0512 -0.1577
  606ERGO    R5 9230   2.722  12.692   8.388  0.4710 -0.3467 -0.3444
  606ERGO    C1 9231   2.605  12.555   8.052 -0.0623 -0.5318 -0.0939
  606ERGO    C2 9232   2.395  12.493   7.769  0.0801 -0.0549 -0.1743
  607ERGO   ROH 9233   5.876  14.735   8.873 -0.2404  0.0314  0.1351
  607ERGO    R1 9234   5.762  14.545   8.697 -0.0159  0.0275 -0.0067
  607ERGO    R2 9235   5.519  14.423   8.746  0.0375 -0.1431 -0.1984
  607ERGO    R3 9236   5.459  14.517   8.498  0.1178 -0.0939 -0.2012
  607ERGO    R4 9237   5.280  14.288   8.536 -0.1880  0.1329 -0.1265
  607ERGO    R5 9238   5.415  14.320   8.369 -0.1668 -0.0689 -0.1625
  607ERGO    C1 9239   5.084  14.298   8.182 -0.2439  0.3398 -0.0873
  607ERGO    C2 9240   4.996  14.352   7.804 -0.0803 -0.2067  0.0338
  608ERGO   ROH 9241  16.123   1.787   9.901 -0.0705  0.0586 -0.1014
  608ERGO    R1 9242  16.145   1.859   9.628 -0.0091  0.1473 -0.0728
  608ERGO    R2 9243  16.390   1.891   9.503  0.0199 -0.0673 -0.0706
  608ERGO    R3 9244  16.287   1.711   9.327 -0.1876  0.1161 -0.1439
  608ERGO    R4 9245  16.520   1.825   9.190 -0.0011 -0.1466 -0.0630
  608ERGO    R5 9246  16.316   1.813   9.113 -0.0071  0.1457 -0.1093
  608ERGO    C1 9247  16.500   1.616   8.842 -0.2078 -0.0207 -0.1275
  608ERGO    C2 9248  16.726   1.466   8.744 -0.2752 -0.2478  0.1452
  609ERGO   ROH 9249   1.585   2.470   9.197  0.0837 -0.1584  0.1431
  609ERGO    R1 9250   1.398   2.517   8.989  0.1801 -0.0681  0.0752
  609ERGO    R2 9251   1.474   2.537   8.724  0.2538 -0.3950  0.0641
  609ERGO    R3 9252   1.287   2.342   8.690 -0.0167 -0.1658  0.2045
  609ERGO    R4 9253   1.375   2.408   8.419 -0.0108 -0.4036  0.1513
  609ERGO    R5 9254   1.170   2.406   8.491  0.0064 -0.1003  0.2140
  609ERGO    C1 9255   1.143   2.150   8.209 -0.4189 -0.1935  0.3338
  609ERGO    C2 9256   0.978   1.978   7.948  0.1727 -0.1822  0.2787
  610ERGO   ROH 9257   7.314   4.815   9.926  0.0399  0.0889  0.0100
  610ERGO    R1 9258   7.418   4.865   9.668 -0.0474  0.1698 -0.0103
  610ERGO    R2 9259   7.533   4.667   9.514  0.0946  0.2610 -0.0248
  610ERGO    R3 9260   7.351   4.749   9.329 -0.0105  0.1012  0.0060
  610ERGO    R4 9261   7.568   4.632   9.171 -0.0868 -0.0009 -0.0193
  610ERGO    R5 9262   7.483   4.831   9.147 -0.1161 -0.0279 -0.1296
  610ERGO    C1 9263   7.417   4.688   8.799 -0.2911 -0.3034  0.0129
  610ERGO    C2 9264   7.545   4.518   8.494  0.0058 -0.1847 -0.1630
  611ERGO   ROH 9265   2.933   1.188   9.274  0.1104  0.0172  0.0348
  611ERGO    R1 9266   2.855   1.173   9.002  0.1665 -0.2007  0.0282
  611ERGO    R2 9267   2.808   1.397   8.848 -0.3404 -0.3152 -0.0084
  611ERGO    R3 9268   2.990   1.282   8.682 -0.0458  0.0730  0.0301
  611ERGO    R4 9269   2.846   1.473   8.513 -0.4474 -0.2601 -0.0082
  611ERGO    R5 9270   2.875   1.261   8.473  0.0356 -0.2049  0.0134
  611ERGO    C1 9271   3.039   1.409   8.162 -0.2332  0.1364  0.0282
  611ERGO    C2 9272   3.183   1.409   7.847 -0.1355  0.0636 -0.0612
  612ERGO   ROH 9273   7.946   6.811   9.853 -0.1506 -0.2936  0.0172
  612ERGO    R1 9274   8.012   6.654   9.627 -0.0445 -0.1221 -0.0739
  612ERGO    R2 9275   7.820   6.555   9.454  0.0171 -0.1811 -0.1119
  612ERGO    R3 9276   7.972   6.680   9.266 -0.0947  0.0420 -0.0569
  612ERGO    R4 9277   7.783   6.514   9.113  0.3127 -0.3758 -0.1244
  612ERGO    R5 9278   8.001   6.515   9.094  0.3307  0.0308  0.0170
  612ERGO    C1 9279   7.904   6.608   8.737  0.3798 -0.2796 -0.0800
  612ERGO    C2 9280   7.612   6.509   8.465  0.0349 -0.2310 -0.1666
  613ERGO   ROH 9281   0.633   7.287   9.260 -0.0827  0.1018 -0.0576
  613ERGO    R1 9282   0.676   7.265   8.981 -0.0388  0.0138 -0.0448
  613ERGO    R2 9283   0.473   7.202   8.803 -0.0193 -0.0095 -0.0621
  613ERGO    R3 9284   0.554   7.431   8.681  0.0345 -0.0560 -0.1130
  613ERGO    R4 9285   0.420   7.278   8.470 -0.3075  0.0805  0.0012
  613ERGO    R5 9286   0.621   7.361   8.462 -0.2483 -0.0778 -0.1958
  613ERGO    C1 9287   0.466   7.536   8.162 -0.4247  0.0893 -0.0098
  613ERGO    C2 9288   0.418   7.337   7.859 -0.0442 -0.1324  0.1682
  614ERGO   ROH 9289   3.770  13.918   9.213 -0.1649 -0.0482  0.0950
  614ERGO    R1 9290   3.675  14.098   9.016 -0.0597  0.0428  0.1256
  614ERGO    R2 9291   3.827  14.172   8.797 -0.0357 -0.0541  0.1054
  614ERGO    R3 9292   3.609  14.087   8.658 -0.1257  0.1216  0.1361
  614ERGO    R4 9293   3.770  14.235   8.462 -0.0445 -0.0010  0.1170
  614ERGO    R5 9294   3.560  14.268   8.509 -0.0093  0.1629  0.1504
  614ERGO    C1 9295   3.533  14.192   8.136 -0.1341  0.1949  0.1526
  614ERGO    C2 9296   3.458  14.296   7.918  0.0699 -0.2953 -0.3102
  615ERGO   ROH 9297   8.693   9.863   9.559  0.0132 -0.1615  0.0351
  615ERGO    R1 9298   8.618   9.745   9.312 -0.0339 -0.0639  0.0023
  615ERGO    R2 9299   8.541   9.895   9.094  0.0321  0.0282  0.0405
  615ERGO    R3 9300   8.737   9.755   8.968 -0.0254 -0.0218  0.0066
  615ERGO    R4 9301   8.574   9.866   8.751  0.0099  0.0793  0.0339
  615ERGO    R5 9302   8.628   9.656   8.779 -0.0681  0.0548 -0.0079
  615ERGO    C1 9303   8.778   9.717   8.434 -0.0571  0.0622 -0.0017
  615ERGO    C2 9304   8.927   9.790   8.074  0.3673  0.1755 -0.0744
  616ERGO   ROH 9305  13.096  14.282   9.623  0.2553  0.3784  0.1428
  616ERGO    R1 9306  12.996  14.249   9.360  0.1302 -0.0012  0.2326
  616ERGO    R2 9307  13.023  14.443   9.165 -0.4023 -0.0677  0.0784
  616ERGO    R3 9308  13.135  14.239   9.023 -0.0854  0.0581  0.1402
  616ERGO    R4 9309  13.061  14.438   8.821 -0.3956 -0.1088  0.0799
  616ERGO    R5 9310  13.005  14.228   8.823 -0.0718 -0.2015  0.1420
  616ERGO    C1 9311  13.188  14.245   8.489 -0.0940 -0.0147  0.1386
  616ERGO    C2 9312  13.466  14.219   8.235  0.1105  0.0375  0.0575
  617ERGO   ROH 9313  14.631  12.085   9.415  0.0481 -0.2227 -0.0289
  617ERGO    R1 9314  14.548  12.069   9.145  0.1042 -0.3203 -0.0426
  617ERGO    R2 9315  14.581  12.277   8.966 -0.3581 -0.1627  0.0251
  617ERGO    R3 9316  14.707  12.086   8.818  0.1046  0.1646 -0.0199
  617ERGO    R4 9317  14.542  12.234   8.626 -0.3182 -0.2504  0.0330
  617ERGO    R5 9318  14.543  12.018   8.658  0.2463 -0.2540  0.0140
  617ERGO    C1 9319  14.638  12.030   8.288  0.1393  0.0058 -0.0047
  617ERGO    C2 9320  14.677  11.915   7.983 -0.0189 -0.2576 -0.2262
  618ERGO   ROH 9321   8.921   4.491   9.704 -0.1150 -0.2372 -0.1215
  618ERGO    R1 9322   9.013   4.625   9.472  0.2071 -0.3069 -0.0408
  618ERGO    R2 9323   9.150   4.495   9.270 -0.0076 -0.4971 -0.0798
  618ERGO    R3 9324   8.955   4.602   9.114  0.2266 -0.0236 -0.0615
  618ERGO    R4 9325   9.135   4.467   8.926 -0.0974 -0.4155 -0.0817
  618ERGO    R5 9326   9.070   4.675   8.916  0.3819 -0.2623 -0.0546
  618ERGO    C1 9327   8.943   4.551   8.579  0.0701  0.0764 -0.0654
  618ERGO    C2 9328   8.955   4.284   8.329 -0.0553 -0.0595 -0.2060
  619ERGO   ROH 9329   8.551  16.025   9.408 -0.0494 -0.0236 -0.1347
  619ERGO    R1 9330   8.503  16.190   9.183 -0.0258 -0.0120 -0.1313
  619ERGO    R2 9331   8.696  16.356   9.075 -0.0025 -0.0350 -0.1260
  619ERGO    R3 9332   8.635  16.223   8.846 -0.0185 -0.0229 -0.1292
  619ERGO    R4 9333   8.774  16.465   8.757  0.0237 -0.0488 -0.1248
  619ERGO    R5 9334   8.578  16.396   8.691  0.0151 -0.0143 -0.1305
  619ERGO    C1 9335   8.761  16.405   8.356  0.0240 -0.0454 -0.1268
  619ERGO    C2 9336   8.840  16.304   8.153 -0.1430  0.0794  0.1298
  620ERGO   ROH 9337   7.079  10.589   9.351  0.1021  0.0319 -0.1169
  620ERGO    R1 9338   7.026  10.461   9.105  0.0210  0.0294 -0.0984
  620ERGO    R2 9339   6.853  10.567   8.915 -0.0080  0.0495 -0.0624
  620ERGO    R3 9340   7.069  10.538   8.752 -0.0514  0.0066 -0.1122
  620ERGO    R4 9341   6.846  10.592   8.571 -0.0954 -0.0317 -0.0667
  620ERGO    R5 9342   6.983  10.424   8.560 -0.1026 -0.0364 -0.0632
  620ERGO    C1 9343   7.043  10.580   8.217 -0.1870 -0.1193 -0.1158
  620ERGO    C2 9344   7.157  10.503   7.894  0.0372 -0.2392 -0.1461
  621ERGO   ROH 9345   0.189  11.509   8.738  0.1021  0.3089  0.2755
  621ERGO    R1 9346  -0.012  11.632   8.581  0.0267  0.4211  0.4562
  621ERGO    R2 9347  -0.023  11.905   8.539  0.5100  0.3832 -0.0188
  621ERGO    R3 9348  -0.024  11.833   8.277 -0.1625 -0.1131  0.0948
  621ERGO    R4 9349  -0.105  12.114   8.276  0.5924  0.1324 -0.2489
  621ERGO    R5 9350  -0.212  11.948   8.184 -0.0384  0.2240  0.2429
  621ERGO    C1 9351  -0.154  12.167   7.878  0.0089 -0.4797 -0.2761
  621ERGO    C2 9352  -0.203  12.513   7.719  0.0326  0.3885  0.0011
  622ERGO   ROH 9353   1.633   0.001   9.447 -0.1937 -0.1738  0.0045
  622ERGO    R1 9354   1.586  -0.025   9.169 -0.0725 -0.2268 -0.0136
  622ERGO    R2 9355   1.736   0.108   8.980 -0.1832 -0.0113  0.0325
  622ERGO    R3 9356   1.772  -0.142   8.878  0.1843  0.0320  0.0453
  622ERGO    R4 9357   1.755   0.033   8.643 -0.5966 -0.0696  0.0181
  622ERGO    R5 9358   1.635  -0.145   8.681 -0.1488 -0.3204  0.2765
  622ERGO    C1 9359   1.800  -0.245   8.351 -0.4924 -0.0626  0.0217
  622ERGO    C2 9360   1.901  -0.107   8.046  0.3648  0.3726  0.2094
  623ERGO   ROH 9361   2.219  11.387   9.276  0.0614  0.2100 -0.0256
  623ERGO    R1 9362   2.156  11.431   9.004  0.2444  0.1614 -0.0774
  623ERGO    R2 9363   2.336  11.383   8.800  0.2881 -0.1517  0.0283
  623ERGO    R3 9364   2.134  11.230   8.702  0.1466  0.0445  0.0069
  623ERGO    R4 9365   2.270  11.334   8.464  0.2717 -0.0848  0.0217
  623ERGO    R5 9366   2.057  11.348   8.509  0.2801  0.1217  0.0005
  623ERGO    C1 9367   2.042  11.161   8.177  0.1293  0.1382 -0.0023
  623ERGO    C2 9368   2.044  11.142   7.810  0.4694 -0.0008  0.1576
  624ERGO   ROH 9369   7.038   8.093   9.979  0.0481  0.0926  0.0295
  624ERGO    R1 9370   7.183   8.015   9.749 -0.0111 -0.0488  0.0397
  624ERGO    R2 9371   7.147   7.769   9.628 -0.2312 -0.0217  0.0467
  624ERGO    R3 9372   7.104   7.920   9.407 -0.0801  0.0115  0.0382
  624ERGO    R4 9373   7.141   7.648   9.304 -0.1797 -0.0049  0.0391
  624ERGO    R5 9374   7.249   7.827   9.241 -0.0683 -0.0539  0.0840
  624ERGO    C1 9375   7.097   7.720   8.908 -0.0079  0.0362  0.0270
  624ERGO    C2 9376   6.959   7.833   8.667  0.1499 -0.0568  0.2389
  625ERGO   ROH 9377  11.049  12.820   9.549 -0.1306 -0.0292  0.1627
  625ERGO    R1 9378  10.890  12.881   9.323 -0.1210  0.1803  0.2110
  625ERGO    R2 9379  10.918  13.116   9.179  0.2638  0.0735  0.1047
  625ERGO    R3 9380  10.947  12.946   8.969 -0.1534 -0.0744  0.1566
  625ERGO    R4 9381  10.830  13.188   8.853  0.3938  0.1752  0.0903
  625ERGO    R5 9382  10.754  12.985   8.834 -0.0877  0.3351  0.1662
  625ERGO    C1 9383  10.805  13.070   8.466  0.0778  0.0957  0.1307
  625ERGO    C2 9384  10.792  12.925   8.201  0.2992 -0.3583 -0.2283
  626ERGO   ROH 9385   2.455   9.723   9.618  0.0578 -0.1130  0.1150
  626ERGO    R1 9386   2.420   9.557   9.391  0.2014 -0.0883  0.0746
  626ERGO    R2 9387   2.201   9.577   9.225  0.1023 -0.3441  0.1745
  626ERGO    R3 9388   2.390   9.604   9.032 -0.0128 -0.0091  0.1010
  626ERGO    R4 9389   2.159   9.485   8.895  0.1027 -0.3310  0.1701
  626ERGO    R5 9390   2.363   9.409   8.895  0.2266 -0.0232  0.0673
  626ERGO    C1 9391   2.312   9.457   8.520 -0.0052 -0.0090  0.0987
  626ERGO    C2 9392   2.192   9.232   8.194 -0.3707 -0.0201  0.2101
  627ERGO   ROH 9393  17.537   0.975   9.412 -0.2211 -0.2329 -0.1032
  627ERGO    R1 9394  17.631   0.985   9.145 -0.0570 -0.1976 -0.0457
  627ERGO    R2 9395  17.642   0.761   8.983 -0.0629 -0.1567 -0.1038
  627ERGO    R3 9396  17.495   0.915   8.815  0.1070 -0.0401 -0.1483
  627ERGO    R4 9397  17.553   0.672   8.661 -0.1064 -0.1239 -0.1007
  627ERGO    R5 9398  17.592   0.878   8.599  0.1003 -0.1697 -0.1295
  627ERGO    C1 9399  17.363   0.766   8.315  0.0277  0.0046 -0.1406
  627ERGO    C2 9400  17.195   0.650   8.034  0.0857 -0.0912 -0.1073
  628ERGO   ROH 9401  14.820   6.692   9.548  0.2444  0.1225  0.2176
  628ERGO    R1 9402  14.876   6.563   9.303  0.0026  0.0463  0.1994
  628ERGO    R2 9403  15.001   6.690   9.092 -0.0233 -0.0727  0.1036
  628ERGO    R3 9404  15.173   6.480   9.108 -0.1709 -0.1992  0.0366
  628ERGO    R4 9405  15.222   6.596   8.843  0.2254  0.1150  0.2488
  628ERGO    R5 9406  15.174   6.388   8.887  0.0434  0.0873 -0.0820
  628ERGO    C1 9407  15.511   6.344   8.713  0.2315  0.1057  0.2707
  628ERGO    C2 9408  15.836   6.270   8.485 -0.0814  0.0655 -0.1842
  629ERGO   ROH 9409   8.655  12.495   9.241 -0.2181 -0.1440  0.0005
  629ERGO    R1 9410   8.506  12.558   9.009 -0.1406 -0.0134 -0.0147
  629ERGO    R2 9411   8.564  12.777   8.850 -0.0668  0.0583  0.1083
  629ERGO    R3 9412   8.572  12.590   8.653 -0.0289  0.1533  0.0197
  629ERGO    R4 9413   8.605  12.846   8.514 -0.0002  0.2214  0.1492
  629ERGO    R5 9414   8.457  12.692   8.469  0.0077  0.2429  0.0460
  629ERGO    C1 9415   8.636  12.711   8.133  0.0739  0.4054  0.0896
  629ERGO    C2 9416   8.626  12.762   7.816 -0.1079 -0.2240  0.1908
  630ERGO   ROH 9417   5.536   8.051   9.573  0.1507 -0.0952  0.0396
  630ERGO    R1 9418   5.733   8.089   9.373  0.1702 -0.1022  0.0564
  630ERGO    R2 9419   5.803   7.891   9.193  0.1486 -0.0930  0.0317
  630ERGO    R3 9420   5.745   8.083   9.009  0.1887 -0.0573  0.0574
  630ERGO    R4 9421   5.870   7.867   8.855 -0.2120 -0.2234 -0.0350
  630ERGO    R5 9422   5.930   8.077   8.857  0.0320 -0.2932 -0.1261
  630ERGO    C1 9423   5.855   8.034   8.486 -0.3844 -0.2658 -0.0499
  630ERGO    C2 9424   6.008   8.186   8.247 -0.1205 -0.3701  0.1007
  631ERGO   ROH 9425   7.560  16.462   9.316 -0.0039 -0.4069  0.0534
  631ERGO    R1 9426   7.623  16.396   9.048  0.0025 -0.3886  0.0505
  631ERGO    R2 9427   7.449  16.259   8.883 -0.1006 -0.1461 -0.0442
  631ERGO    R3 9428   7.488  16.471   8.719  0.1782 -0.1338  0.0323
  631ERGO    R4 9429   7.412  16.252   8.540  0.0111 -0.0135 -0.0594
  631ERGO    R5 9430   7.589  16.378   8.523  0.1524 -0.1875  0.0410
  631ERGO    C1 9431   7.427  16.448   8.185  0.3379  0.0749  0.0037
  631ERGO    C2 9432   7.197  16.425   7.890  0.0730  0.1896 -0.0310
  632ERGO   ROH 9433   9.486   0.766   9.660 -0.2876  0.0502 -0.1557
  632ERGO    R1 9434   9.423   0.843   9.395 -0.2052  0.1517 -0.1466
  632ERGO    R2 9435   9.553   1.050   9.265  0.0298  0.0216 -0.1255
  632ERGO    R3 9436   9.599   0.860   9.076 -0.1884 -0.0115 -0.1474
  632ERGO    R4 9437   9.658   1.113   8.942  0.1661 -0.0604 -0.0977
  632ERGO    R5 9438   9.522   0.958   8.872 -0.0286  0.1257 -0.1445
  632ERGO    C1 9439   9.762   0.971   8.577  0.0407 -0.1392 -0.1019
  632ERGO    C2 9440  10.005   0.801   8.518 -0.4219 -0.0429 -0.2840
  633ERGO   ROH 9441  18.520   7.679   9.092  0.1060  0.1662 -0.2136
  633ERGO    R1 9442  18.402   7.468   8.946  0.1300  0.0583 -0.0795
  633ERGO    R2 9443  18.211   7.511   8.751 -0.0513 -0.1056  0.0583
  633ERGO    R3 9444  18.382   7.367   8.597 -0.0746 -0.0234 -0.0457
  633ERGO    R4 9445  18.115   7.278   8.514 -0.0862 -0.0301 -0.0023
  633ERGO    R5 9446  18.279   7.151   8.579 -0.0486 -0.0319 -0.0972
  633ERGO    C1 9447  18.220   7.008   8.231 -0.1284  0.0911 -0.1352
  633ERGO    C2 9448  18.144   6.920   7.899  0.1816  0.2235 -0.0818
  634ERGO   ROH 9449  11.624  14.275   9.651 -0.0740  0.2400  0.1716
  634ERGO    R1 9450  11.646  14.167   9.390  0.0044  0.1180  0.2275
  634ERGO    R2 9451  11.543  14.294   9.167 -0.0569 -0.0557  0.1541
  634ERGO    R3 9452  11.797  14.267   9.075 -0.0349  0.0445  0.1855
  634ERGO    R4 9453  11.632  14.291   8.833 -0.0333 -0.1822  0.1611
  634ERGO    R5 9454  11.775  14.132   8.878  0.0578 -0.0745  0.2559
  634ERGO    C1 9455  11.922  14.264   8.552  0.0011 -0.1619  0.1949
  634ERGO    C2 9456  11.911  14.093   8.221  0.0381  0.2275 -0.2401
  635ERGO   ROH 9457   0.051   0.074   9.658 -0.0563 -0.0105 -0.0887
  635ERGO    R1 9458  -0.047   0.234   9.446  0.0594  0.0389 -0.1070
  635ERGO    R2 9459   0.110   0.422   9.316  0.1810 -0.0428 -0.0906
  635ERGO    R3 9460   0.032   0.284   9.095  0.1405 -0.0116 -0.0945
  635ERGO    R4 9461   0.125   0.541   8.992 -0.0289  0.0524 -0.0659
  635ERGO    R5 9462  -0.068   0.448   8.953 -0.0001 -0.0216 -0.0015
  635ERGO    C1 9463   0.060   0.481   8.596 -0.1890  0.1372 -0.0551
  635ERGO    C2 9464   0.215   0.330   8.204  0.1160  0.2803  0.1233
  636ERGO   ROH 9465  12.058  12.207   9.234  0.1328 -0.3518  0.1058
  636ERGO    R1 9466  11.974  12.204   8.963  0.0594 -0.3038  0.1283
  636ERGO    R2 9467  12.132  12.299   8.758 -0.0555 -0.1310  0.1192
  636ERGO    R3 9468  12.087  12.053   8.652  0.0667 -0.1205  0.0399
  636ERGO    R4 9469  12.249  12.191   8.451 -0.1921  0.1073 -0.0205
  636ERGO    R5 9470  12.058  12.093   8.418 -0.1397 -0.0334  0.0776
  636ERGO    C1 9471  12.276  11.897   8.174 -0.1568  0.2559 -0.1760
  636ERGO    C2 9472  12.161  11.658   7.887  0.1068 -0.0600  0.1341
  637ERGO   ROH 9473   2.796  10.688   9.470  0.1212  0.0200 -0.0619
  637ERGO    R1 9474   2.872  10.664   9.199  0.2568 -0.2003 -0.0094
  637ERGO    R2 9475   2.880  10.421   9.067 -0.1846 -0.2604  0.0445
  637ERGO    R3 9476   2.718  10.548   8.890  0.2012  0.0699 -0.0853
  637ERGO    R4 9477   2.857  10.345   8.731 -0.1237 -0.2689  0.0447
  637ERGO    R5 9478   2.846  10.559   8.688  0.3662 -0.2424 -0.0022
  637ERGO    C1 9479   2.691  10.420   8.369  0.2740  0.0362 -0.0770
  637ERGO    C2 9480   2.762  10.385   8.075 -0.0120  0.0666  0.0479
  638ERGO   ROH 9481  18.433  18.246   9.677 -0.1030 -0.3520  0.1096
  638ERGO    R1 9482  18.467  18.235   9.396 -0.1233  0.1214  0.0793
  638ERGO    R2 9483  18.418  18.006   9.250  0.4593  0.1670 -0.2246
  638ERGO    R3 9484  18.255  18.170   9.107 -0.0226 -0.0553  0.0456
  638ERGO    R4 9485  18.232  17.910   8.974  0.4364  0.0097 -0.1551
  638ERGO    R5 9486  18.284  18.100   8.880 -0.0530  0.2070 -0.0376
  638ERGO    C1 9487  17.972  18.009   8.680 -0.0295 -0.2906  0.1390
  638ERGO    C2 9488  17.795  17.928   8.413 -0.0937  0.0052  0.2405
  639ERGO   ROH 9489  10.202   0.222   9.536 -0.3132 -0.2788 -0.0719
  639ERGO    R1 9490  10.291   0.158   9.275 -0.2398 -0.1587 -0.0770
  639ERGO    R2 9491  10.159   0.244   9.048 -0.0954  0.0662 -0.0785
  639ERGO    R3 9492  10.404   0.342   8.981 -0.0098 -0.0296  0.0887
  639ERGO    R4 9493  10.247   0.361   8.735  0.2146 -0.1193 -0.0648
  639ERGO    R5 9494  10.441   0.264   8.758  0.1721 -0.1563  0.1602
  639ERGO    C1 9495  10.528   0.521   8.490  0.4755 -0.3171  0.1001
  639ERGO    C2 9496  10.672   0.511   8.179  0.3590  0.2567 -0.0275
  640ERGO   ROH 9497   7.921   4.839   9.444  0.1256  0.1593 -0.1828
  640ERGO    R1 9498   8.028   4.796   9.186  0.1352 -0.0301 -0.1493
  640ERGO    R2 9499   8.051   4.544   9.074 -0.1759 -0.0849 -0.1009
  640ERGO    R3 9500   7.911   4.657   8.870  0.0257  0.0727 -0.1544
  640ERGO    R4 9501   8.118   4.499   8.738  0.0803  0.0719 -0.0725
  640ERGO    R5 9502   8.076   4.710   8.706  0.1785  0.1049  0.0064
  640ERGO    C1 9503   8.026   4.579   8.351  0.4187  0.3112 -0.1063
  640ERGO    C2 9504   7.743   4.450   8.021 -0.2856 -0.0788 -0.0418
  641ERGO   ROH 9505   3.751  15.542   9.025  0.1851 -0.2371  0.0492
  641ERGO    R1 9506   3.602  15.556   8.785  0.0419 -0.1103  0.1434
  641ERGO    R2 9507   3.708  15.485   8.540 -0.0076  0.2898 -0.0036
  641ERGO    R3 9508   3.489  15.323   8.529  0.1575  0.0667 -0.0724
  641ERGO    R4 9509   3.482  15.474   8.278 -0.0853  0.2878  0.0633
  641ERGO    R5 9510   3.321  15.457   8.424 -0.0209 -0.0135  0.1051
  641ERGO    C1 9511   3.146  15.316   8.116  0.0245  0.0770  0.0377
  641ERGO    C2 9512   3.020  15.210   7.833  0.2540 -0.0939 -0.1881
  642ERGO   ROH 9513   0.448  15.950   9.011 -0.1729  0.2361 -0.1504
  642ERGO    R1 9514   0.554  15.845   8.771 -0.1028  0.1289 -0.0738
  642ERGO    R2 9515   0.394  15.767   8.560 -0.0404  0.0672 -0.1003
  642ERGO    R3 9516   0.553  15.937   8.419  0.0301 -0.0068 -0.1104
  642ERGO    R4 9517   0.474  15.731   8.225  0.0359 -0.0436 -0.0705
  642ERGO    R5 9518   0.677  15.794   8.272  0.0365 -0.0735 -0.0390
  642ERGO    C1 9519   0.669  15.870   7.898  0.1466 -0.1776 -0.0627
  642ERGO    C2 9520   0.658  15.677   7.549  0.2906  0.1227 -0.0010
  643ERGO   ROH 9521  11.839  10.727   9.417 -0.0611 -0.1707 -0.1484
  643ERGO    R1 9522  11.795  10.824   9.155  0.0064 -0.0475 -0.1149
  643ERGO    R2 9523  12.000  10.864   8.974  0.0393 -0.0888 -0.0882
  643ERGO    R3 9524  11.847  10.704   8.815 -0.0377  0.0515 -0.1569
  643ERGO    R4 9525  11.922  10.929   8.643  0.0974  0.0712 -0.0709
  643ERGO    R5 9526  11.720  10.857   8.682  0.0552  0.1685 -0.1122
  643ERGO    C1 9527  11.733  10.818   8.302  0.0589  0.2960 -0.1253
  643ERGO    C2 9528  11.577  10.828   7.951  0.0979 -0.0520  0.0167
  644ERGO   ROH 9529  16.726  15.582   9.398  0.1526 -0.0060 -0.2110
  644ERGO    R1 9530  16.536  15.672   9.209  0.0241  0.0495 -0.0590
  644ERGO    R2 9531  16.487  15.537   8.972  0.0650  0.2658 -0.1971
  644ERGO    R3 9532  16.230  15.542   9.060  0.0871 -0.0394 -0.1087
  644ERGO    R4 9533  16.208  15.539   8.768 -0.0206 -0.1624 -0.0919
  644ERGO    R5 9534  16.116  15.682   8.904 -0.1570 -0.2395 -0.1101
  644ERGO    C1 9535  15.804  15.544   8.733 -0.0497 -0.6982  0.0522
  644ERGO    C2 9536  15.653  15.370   8.493  0.0854 -0.0369 -0.1537
  645ERGO   ROH 9537   2.081  17.392   9.021  0.0264  0.0364  0.1057
  645ERGO    R1 9538   2.015  17.405   8.746  0.0031 -0.0519  0.1067
  645ERGO    R2 9539   2.131  17.587   8.573 -0.1382  0.0085  0.0737
  645ERGO    R3 9540   2.191  17.365   8.430  0.0178  0.0304  0.1043
  645ERGO    R4 9541   2.141  17.571   8.228  0.0513  0.0137  0.0782
  645ERGO    R5 9542   2.046  17.375   8.239  0.1148 -0.0203  0.0267
  645ERGO    C1 9543   2.204  17.353   7.893  0.3080  0.0373  0.1094
  645ERGO    C2 9544   2.417  17.283   7.585 -0.0117  0.1877 -0.0711
  646ERGO   ROH 9545   3.822   9.849   9.425  0.0163  0.0801 -0.0427
  646ERGO    R1 9546   3.827   9.878   9.143  0.1461  0.0826 -0.0409
  646ERGO    R2 9547   3.617   9.987   9.001  0.0741 -0.2070 -0.1674
  646ERGO    R3 9548   3.810  10.152   8.904 -0.0900  0.0615 -0.0503
  646ERGO    R4 9549   3.646  10.085   8.671  0.0410 -0.0187 -0.1158
  646ERGO    R5 9550   3.862  10.062   8.688  0.0638  0.2210 -0.0799
  646ERGO    C1 9551   3.845  10.297   8.388 -0.1324  0.3430  0.0244
  646ERGO    C2 9552   3.781  10.471   8.100  0.1178 -0.0814  0.0561
  647ERGO   ROH 9553  14.892  13.496   9.611 -0.2629  0.2289 -0.0304
  647ERGO    R1 9554  14.969  13.651   9.387  0.2513  0.1310  0.0678
  647ERGO    R2 9555  15.207  13.609   9.251  0.1549 -0.5339  0.0811
  647ERGO    R3 9556  15.042  13.590   9.036  0.1069  0.1013  0.0413
  647ERGO    R4 9557  15.294  13.687   8.926  0.4332 -0.5557  0.1470
  647ERGO    R5 9558  15.099  13.778   8.900  0.6833  0.0495  0.1800
  647ERGO    C1 9559  15.190  13.715   8.535  0.5502  0.0277  0.1481
  647ERGO    C2 9560  15.042  13.857   8.242 -0.1120 -0.1857 -0.0642
  648ERGO   ROH 9561   8.846  15.784   9.679  0.2843  0.0770  0.0668
  648ERGO    R1 9562   8.945  15.789   9.414  0.2144  0.1839  0.0416
  648ERGO    R2 9563   8.827  15.649   9.209  0.3131  0.0517  0.0673
  648ERGO    R3 9564   8.821  15.892   9.088  0.0184  0.0505  0.0741
  648ERGO    R4 9565   8.839  15.699   8.867  0.6360  0.0937  0.0829
  648ERGO    R5 9566   8.971  15.870   8.902  0.2869  0.3328  0.2534
  648ERGO    C1 9567   8.841  15.958   8.555  0.5473  0.1171  0.0983
  648ERGO    C2 9568   8.690  15.822   8.257  0.1093 -0.3097 -0.0828
  649ERGO   ROH 9569  11.525  13.715   9.339 -0.2963 -0.1845  0.0468
  649ERGO    R1 9570  11.649  13.763   9.089 -0.1623 -0.1587  0.1178
  649ERGO    R2 9571  11.823  13.583   8.972 -0.1853 -0.1935  0.1423
  649ERGO    R3 9572  11.653  13.606   8.761 -0.0779 -0.0577  0.0689
  649ERGO    R4 9573  11.916  13.570   8.639 -0.0677 -0.4377  0.1823
  649ERGO    R5 9574  11.776  13.731   8.598  0.1472 -0.2712  0.0671
  649ERGO    C1 9575  11.812  13.585   8.248  0.1017 -0.4525  0.1367
  649ERGO    C2 9576  11.966  13.426   7.912 -0.1857  0.0223  0.1587
  650ERGO   ROH 9577   5.515   4.461   9.433 -0.2736 -0.0227  0.0298
  650ERGO    R1 9578   5.417   4.496   9.169 -0.0831  0.1527 -0.0215
  650ERGO    R2 9579   5.518   4.688   8.997  0.2638  0.0617  0.0644
  650ERGO    R3 9580   5.553   4.474   8.832  0.0840  0.0412  0.0526
  650ERGO    R4 9581   5.509   4.700   8.652  0.1106  0.0500  0.0679
  650ERGO    R5 9582   5.400   4.512   8.652  0.0218  0.1061  0.1226
  650ERGO    C1 9583   5.536   4.507   8.296 -0.1473  0.0240  0.0591
  650ERGO    C2 9584   5.722   4.314   8.019 -0.0256  0.0259 -0.1236
  651ERGO   ROH 9585   0.732  18.246   9.436  0.1534 -0.0208 -0.0023
  651ERGO    R1 9586   0.606  18.337   9.199  0.0937  0.0582  0.0593
  651ERGO    R2 9587   0.745  18.382   8.965  0.0170  0.0273  0.0078
  651ERGO    R3 9588   0.560  18.213   8.860 -0.0964  0.1154  0.0632
  651ERGO    R4 9589   0.616  18.404   8.645  0.2163 -0.1361 -0.0865
  651ERGO    R5 9590   0.420  18.354   8.726  0.1178  0.1362 -0.1453
  651ERGO    C1 9591   0.366  18.258   8.361  0.2259 -0.1482 -0.0897
  651ERGO    C2 9592   0.404  18.260   8.014  0.0891 -0.2080  0.0006
  652ERGO   ROH 9593   3.205  11.591   9.726 -0.0632  0.1398 -0.0638
  652ERGO    R1 9594   3.298  11.545   9.463  0.0457  0.0796 -0.0168
  652ERGO    R2 9595   3.149  11.408   9.275  0.1813 -0.0900 -0.0088
  652ERGO    R3 9596   3.190  11.632   9.126  0.0968 -0.1266 -0.0865
  652ERGO    R4 9597   3.131  11.422   8.930  0.0952 -0.1922 -0.0084
  652ERGO    R5 9598   3.305  11.553   8.931  0.0644 -0.1561 -0.0905
  652ERGO    C1 9599   3.159  11.640   8.589 -0.0344 -0.2861 -0.0810
  652ERGO    C2 9600   3.095  11.539   8.215 -0.0871  0.0113  0.0918
  653ERGO   ROH 9601   8.080  14.881   9.489 -0.1989 -0.1236 -0.1761
  653ERGO    R1 9602   8.024  14.984   9.231 -0.0412  0.0636 -0.1377
  653ERGO    R2 9603   8.179  15.179   9.112  0.1841 -0.0353 -0.0089
  653ERGO    R3 9604   8.192  14.998   8.909  0.0390  0.0510 -0.0972
  653ERGO    R4 9605   8.185  15.261   8.776  0.2457  0.1266  0.0306
  653ERGO    R5 9606   8.052  15.092   8.738  0.1093  0.2482 -0.0516
  653ERGO    C1 9607   8.202  15.139   8.390  0.1453  0.3019 -0.0292
  653ERGO    C2 9608   8.119  15.274   8.096  0.0532 -0.0176  0.0177
  654ERGO   ROH 9609   0.592   6.467   9.359 -0.1111  0.0885 -0.0528
  654ERGO    R1 9610   0.652   6.516   9.086 -0.1998  0.1448 -0.0627
  654ERGO    R2 9611   0.799   6.340   8.932 -0.0007  0.3115 -0.0685
  654ERGO    R3 9612   0.583   6.354   8.768 -0.0397  0.0395 -0.0443
  654ERGO    R4 9613   0.768   6.173   8.631  0.0724  0.0875  0.0467
  654ERGO    R5 9614   0.676   6.351   8.547 -0.0756 -0.0377 -0.0573
  654ERGO    C1 9615   0.547   6.088   8.302  0.0783 -0.2983  0.1366
  654ERGO    C2 9616   0.439   5.923   7.963  0.0654 -0.0970  0.0615
  655ERGO   ROH 9617   5.369   5.672   9.416  0.2644  0.0002  0.0616
  655ERGO    R1 9618   5.542   5.698   9.193  0.1527 -0.0198 -0.0278
  655ERGO    R2 9619   5.621   5.481   9.040  0.1313 -0.0425 -0.0046
  655ERGO    R3 9620   5.524   5.632   8.836 -0.0009 -0.1226 -0.0023
  655ERGO    R4 9621   5.706   5.442   8.707  0.2577  0.1099  0.0081
  655ERGO    R5 9622   5.709   5.659   8.687  0.0058  0.1217  0.0448
  655ERGO    C1 9623   5.664   5.560   8.322  0.2072  0.1235  0.0174
  655ERGO    C2 9624   5.799   5.677   7.997  0.2308 -0.1719  0.0273
  656ERGO   ROH 9625   4.058   1.320   9.221 -0.5061  0.1626 -0.2271
  656ERGO    R1 9626   4.154   1.161   9.007 -0.4216  0.0464 -0.1058
  656ERGO    R2 9627   4.006   1.114   8.778 -0.2461  0.1140 -0.2429
  656ERGO    R3 9628   4.228   1.210   8.654 -0.0505 -0.0728 -0.0477
  656ERGO    R4 9629   4.059   1.109   8.436  0.0004  0.2127 -0.2078
  656ERGO    R5 9630   4.267   1.057   8.474 -0.0873 -0.0301 -0.0846
  656ERGO    C1 9631   4.297   1.198   8.121  0.3276  0.0948 -0.0040
  656ERGO    C2 9632   4.324   1.244   7.834 -0.0171  0.0675 -0.1887
  657ERGO   ROH 9633   4.586   3.561   9.223  0.0283 -0.0952 -0.0327
  657ERGO    R1 9634   4.522   3.685   8.977  0.0937 -0.0135 -0.0090
  657ERGO    R2 9635   4.708   3.825   8.828  0.1777 -0.1121  0.0011
  657ERGO    R3 9636   4.630   3.656   8.631  0.0522 -0.0304 -0.0201
  657ERGO    R4 9637   4.802   3.852   8.497  0.2597 -0.1868  0.0179
  657ERGO    R5 9638   4.599   3.797   8.440  0.2179  0.0070 -0.0196
  657ERGO    C1 9639   4.783   3.708   8.118  0.1897 -0.1537  0.0077
  657ERGO    C2 9640   4.919   3.790   7.971 -0.1558  0.1681  0.1393
  658ERGO   ROH 9641  15.078   0.939   9.709 -0.3984 -0.3781  0.0936
  658ERGO    R1 9642  15.154   1.011   9.446 -0.2293 -0.1053  0.2116
  658ERGO    R2 9643  15.154   0.831   9.236  0.1629  0.0400  0.0742
  658ERGO    R3 9644  14.996   1.018   9.118  0.0655 -0.0460  0.0677
  658ERGO    R4 9645  15.018   0.804   8.919  0.1025 -0.0776  0.1098
  658ERGO    R5 9646  15.062   1.015   8.888  0.0146 -0.0691  0.0546
  658ERGO    C1 9647  14.792   0.963   8.624 -0.0241 -0.2269  0.1243
  658ERGO    C2 9648  14.562   0.713   8.461  0.0099 -0.3450  0.1304
  659ERGO   ROH 9649   2.758  12.681   7.388 -0.0842 -0.2081  0.0545
  659ERGO    R1 9650   2.973  12.622   7.563 -0.0575 -0.2029  0.0231
  659ERGO    R2 9651   3.079  12.808   7.737  0.0039 -0.1828 -0.0373
  659ERGO    R3 9652   3.027  12.617   7.923  0.0153 -0.1372  0.0135
  659ERGO    R4 9653   3.271  12.749   8.018  0.0530 -0.1478 -0.0629
  659ERGO    R5 9654   3.244  12.535   7.986  0.0182 -0.1522 -0.0128
  659ERGO    C1 9655   3.334  12.535   8.357  0.0922 -0.0847 -0.0300
  659ERGO    C2 9656   3.521  12.323   8.622  0.1867 -0.2183  0.0710
  660ERGO   ROH 9657  10.656   4.352   9.646 -0.2085  0.0323 -0.4151
  660ERGO    R1 9658  10.663   4.520   9.419 -0.0131  0.1654 -0.3143
  660ERGO    R2 9659  10.488   4.732   9.385 -0.1100  0.0732 -0.4276
  660ERGO    R3 9660  10.717   4.875   9.355 -0.1545  0.2396 -0.0371
  660ERGO    R4 9661  10.518   5.020   9.197 -0.0060  0.1249 -0.3318
  660ERGO    R5 9662  10.711   4.949   9.127  0.1590  0.2728 -0.0369
  660ERGO    C1 9663  10.750   5.322   9.059  0.0129  0.3112  0.0906
  660ERGO    C2 9664  10.768   5.579   8.918 -0.0570 -0.1047 -0.0368
  661ERGO   ROH 9665   9.810  15.419   9.668 -0.0365  0.2219  0.0859
  661ERGO    R1 9666   9.785  15.318   9.405  0.1382 -0.0197  0.1575
  661ERGO    R2 9667   9.665  15.462   9.202  0.0540 -0.2989  0.0018
  661ERGO    R3 9668   9.900  15.413   9.073  0.1427 -0.1760  0.1144
  661ERGO    R4 9669   9.701  15.442   8.859  0.2702 -0.1119  0.0110
  661ERGO    R5 9670   9.838  15.274   8.888  0.2897 -0.0930  0.0036
  661ERGO    C1 9671   9.942  15.384   8.538  0.4794  0.1124  0.1220
  661ERGO    C2 9672  10.094  15.541   8.129  0.4046  0.2078 -0.5182
  662ERGO   ROH 9673   5.546  11.936   9.116 -0.0238  0.2280 -0.1360
  662ERGO    R1 9674   5.534  12.026   8.848 -0.1570  0.1904 -0.1422
  662ERGO    R2 9675   5.638  11.880   8.638 -0.0350  0.2809 -0.1370
  662ERGO    R3 9676   5.388  11.909   8.536 -0.0802  0.0087 -0.1137
  662ERGO    R4 9677   5.554  11.836   8.306  0.0150  0.2853 -0.1512
  662ERGO    R5 9678   5.422  12.009   8.321 -0.2030  0.1275 -0.0855
  662ERGO    C1 9679   5.270  11.837   8.017  0.0018  0.0323 -0.1378
  662ERGO    C2 9680   5.285  11.609   7.786 -0.1720  0.1038  0.1823
  663ERGO   ROH 9681  17.928  16.452   9.502  0.0503 -0.3273 -0.0419
  663ERGO    R1 9682  18.024  16.603   9.283 -0.1769 -0.1750 -0.0407
  663ERGO    R2 9683  18.251  16.533   9.142 -0.0710  0.1595 -0.0533
  663ERGO    R3 9684  18.083  16.547   8.928 -0.1067 -0.0803 -0.0432
  663ERGO    R4 9685  18.349  16.507   8.811 -0.0763  0.1955 -0.0575
  663ERGO    R5 9686  18.208  16.666   8.762 -0.2600  0.0232 -0.0823
  663ERGO    C1 9687  18.248  16.505   8.419 -0.1128 -0.0084 -0.0505
  663ERGO    C2 9688  18.423  16.456   8.147 -0.2775  0.2356  0.0035
  664ERGO   ROH 9689   3.648   2.658   9.442 -0.2898  0.1786  0.1313
  664ERGO    R1 9690   3.486   2.621   9.213 -0.2342  0.0629  0.1110
  664ERGO    R2 9691   3.414   2.829   9.046 -0.3107 -0.0005  0.0707
  664ERGO    R3 9692   3.521   2.669   8.854 -0.2030  0.0250  0.1078
  664ERGO    R4 9693   3.415   2.899   8.707 -0.3538 -0.0684  0.0556
  664ERGO    R5 9694   3.371   2.689   8.669 -0.2184 -0.1102  0.1004
  664ERGO    C1 9695   3.515   2.790   8.330 -0.2777 -0.0840  0.0816
  664ERGO    C2 9696   3.607   2.986   7.983  0.1907 -0.1253 -0.1068
  665ERGO   ROH 9697   3.343   5.116   9.146 -0.0072 -0.0265  0.0776
  665ERGO    R1 9698   3.340   5.061   8.869  0.1684  0.0484  0.0594
  665ERGO    R2 9699   3.123   5.121   8.707  0.1543 -0.1725 -0.0041
  665ERGO    R3 9700   3.310   5.253   8.561  0.0493  0.1025  0.1035
  665ERGO    R4 9701   3.139   5.124   8.362  0.3315 -0.1335  0.0034
  665ERGO    R5 9702   3.356   5.108   8.377  0.3527  0.1715  0.1174
  665ERGO    C1 9703   3.324   5.250   8.024  0.3361  0.1474  0.1088
  665ERGO    C2 9704   3.132   5.283   7.818  0.2876  0.0866 -0.2018
  666ERGO   ROH 9705  10.252  16.794   9.386  0.1747 -0.2670  0.2053
  666ERGO    R1 9706  10.239  16.900   9.123 -0.0324 -0.3529  0.1790
  666ERGO    R2 9707  10.444  17.050   9.013 -0.2935 -0.0256  0.1223
  666ERGO    R3 9708  10.428  16.865   8.814  0.0043 -0.1089  0.1714
  666ERGO    R4 9709  10.592  17.079   8.702 -0.1609  0.0298  0.1899
  666ERGO    R5 9710  10.413  16.993   8.613 -0.0271 -0.1883  0.1223
  666ERGO    C1 9711  10.663  16.923   8.335  0.1958 -0.0161  0.2753
  666ERGO    C2 9712  10.907  16.891   8.063  0.1620 -0.1691 -0.0190
  667ERGO   ROH 9713   8.253   0.300   9.627 -0.0813 -0.1217  0.0013
  667ERGO    R1 9714   8.137   0.285   9.370  0.0086 -0.1427 -0.0391
  667ERGO    R2 9715   8.109   0.506   9.206  0.0967 -0.1619 -0.0812
  667ERGO    R3 9716   8.242   0.350   9.027  0.1403 -0.2056 -0.0109
  667ERGO    R4 9717   8.112   0.556   8.864  0.1562 -0.2629 -0.0957
  667ERGO    R5 9718   8.096   0.341   8.837  0.1761 -0.2717 -0.0350
  667ERGO    C1 9719   8.238   0.439   8.497  0.2318 -0.3628 -0.0382
  667ERGO    C2 9720   8.356   0.631   8.273 -0.0087 -0.0108  0.1167
  668ERGO   ROH 9721   5.942   4.349   9.650 -0.0097 -0.2823 -0.1272
  668ERGO    R1 9722   6.014   4.472   9.405 -0.0242 -0.0568 -0.0226
  668ERGO    R2 9723   6.119   4.329   9.192  0.1572  0.1668 -0.0942
  668ERGO    R3 9724   5.913   4.444   9.056  0.1074  0.1006 -0.0727
  668ERGO    R4 9725   6.125   4.413   8.857  0.0931  0.1930 -0.0881
  668ERGO    R5 9726   6.019   4.596   8.905  0.0333  0.1465 -0.0711
  668ERGO    C1 9727   5.935   4.569   8.534  0.0090  0.1462 -0.0644
  668ERGO    C2 9728   6.086   4.576   8.216  0.1122  0.0872 -0.1196
  669ERGO   ROH 9729   6.384   7.437   9.910 -0.1282 -0.1822  0.0267
  669ERGO    R1 9730   6.436   7.280   9.680  0.0009 -0.0329 -0.0485
  669ERGO    R2 9731   6.253   7.100   9.578  0.1855 -0.2161 -0.0712
  669ERGO    R3 9732   6.290   7.241   9.349 -0.0405 -0.0755 -0.0245
  669ERGO    R4 9733   6.260   6.964   9.260  0.1618 -0.0578 -0.1403
  669ERGO    R5 9734   6.424   7.098   9.212  0.0222  0.1067 -0.1540
  669ERGO    C1 9735   6.299   7.017   8.860 -0.0642  0.1664 -0.1367
  669ERGO    C2 9736   6.448   7.051   8.535  0.3713 -0.0396  0.2246
  670ERGO   ROH 9737  13.686  16.838  10.112  0.2309 -0.2576 -0.0984
  670ERGO    R1 9738  13.910  16.997  10.042  0.0872 -0.0741 -0.1495
  670ERGO    R2 9739  14.168  16.897  10.037  0.2018  0.2011  0.0438
  670ERGO    R3 9740  14.166  16.993   9.783  0.1951 -0.0282 -0.0449
  670ERGO    R4 9741  14.449  16.953   9.844  0.2193  0.3389  0.1080
  670ERGO    R5 9742  14.356  17.136   9.771  0.0431  0.1754 -0.0935
  670ERGO    C1 9743  14.610  17.076   9.493  0.2232  0.2040  0.0622
  670ERGO    C2 9744  14.763  16.949   9.247  0.1427  0.1251  0.0109
  671ERGO   ROH 9745  17.336  12.269   9.333  0.0758  0.1725 -0.0905
  671ERGO    R1 9746  17.362  12.356   9.065  0.1003  0.1357 -0.0978
  671ERGO    R2 9747  17.523  12.226   8.882 -0.0174  0.0160 -0.1015
  671ERGO    R3 9748  17.295  12.218   8.735 -0.0368  0.1641 -0.0861
  671ERGO    R4 9749  17.508  12.264   8.538  0.0555 -0.3534 -0.1517
  671ERGO    R5 9750  17.327  12.384   8.565  0.2074 -0.0608 -0.2808
  671ERGO    C1 9751  17.284  12.279   8.201  0.0798 -0.4295 -0.1665
  671ERGO    C2 9752  17.411  12.215   7.899 -0.1659  0.1150 -0.1358
  672ERGO   ROH 9753   7.185  14.243   9.101 -0.3084 -0.2398  0.0184
  672ERGO    R1 9754   7.145  14.139   8.841 -0.3957  0.0430 -0.0841
  672ERGO    R2 9755   6.983  14.264   8.654 -0.0317  0.5442 -0.0836
  672ERGO    R3 9756   7.207  14.250   8.500  0.0327  0.1780  0.0315
  672ERGO    R4 9757   6.987  14.196   8.315  0.0269  0.5829 -0.0912
  672ERGO    R5 9758   7.163  14.073   8.346 -0.1972  0.2692 -0.0135
  672ERGO    C1 9759   7.199  14.144   7.973  0.1216  0.2615  0.0123
  672ERGO    C2 9760   7.358  14.179   7.644  0.0403 -0.3338 -0.3062
  673ERGO   ROH 9761   6.415   4.522   9.730 -0.2089 -0.1688 -0.0073
  673ERGO    R1 9762   6.589   4.527   9.507 -0.1168 -0.0482  0.0665
  673ERGO    R2 9763   6.592   4.328   9.315 -0.0443  0.0597 -0.0454
  673ERGO    R3 9764   6.556   4.537   9.145  0.0333  0.1573  0.0567
  673ERGO    R4 9765   6.527   4.298   8.977  0.1393  0.2496 -0.0994
  673ERGO    R5 9766   6.661   4.466   8.942  0.1482  0.2815  0.0706
  673ERGO    C1 9767   6.456   4.477   8.620  0.3191  0.4518 -0.0349
  673ERGO    C2 9768   6.539   4.486   8.238 -0.3707  0.0731 -0.0180
  674ERGO   ROH 9769  16.921  13.848   9.581 -0.1226 -0.0569  0.0044
  674ERGO    R1 9770  16.877  13.681   9.357 -0.0927  0.0153 -0.0569
  674ERGO    R2 9771  16.682  13.486   9.353  0.0195 -0.1029 -0.0826
  674ERGO    R3 9772  16.603  13.614   9.127 -0.1263 -0.0445  0.0015
  674ERGO    R4 9773  16.460  13.358   9.121  0.0119 -0.1173 -0.0661
  674ERGO    R5 9774  16.586  13.441   8.963 -0.0870  0.0218 -0.0703
  674ERGO    C1 9775  16.256  13.405   8.773 -0.1297 -0.0707  0.0225
  674ERGO    C2 9776  15.926  13.484   8.578 -0.0593  0.2766  0.3816
  675PSPI    C1 9777   6.358   3.892   5.250 -0.2062 -0.0925  0.2071
  675PSPI    C2 9778   6.031   4.028   5.063 -0.0085 -0.0353 -0.1044
  675PSPI    C3 9779   6.229   3.713   4.916  0.2270  0.0937 -0.0686
  675PSPI   PO4 9780   6.320   3.879   5.640  0.1554 -0.0918  0.2323
  675PSPI   GL1 9781   6.242   3.775   6.121 -0.0148  0.1277 -0.0491
  675PSPI   GL2 9782   6.421   3.475   6.213  0.0876  0.1847  0.0582
  675PSPI   C1A 9783   6.119   3.978   6.338  0.0540  0.0607 -0.1671
  675PSPI   C2A 9784   5.958   4.068   6.741 -0.2066 -0.1713 -0.3400
  675PSPI   C3A 9785   5.774   4.223   7.093 -0.1879 -0.0510 -0.0768
  675PSPI   C4A 9786   5.441   4.373   7.303 -0.3500 -0.1394  0.1050
  675PSPI   C1B 9787   6.167   3.455   6.591 -0.1183  0.0999 -0.1413
  675PSPI   C2B 9788   5.713   3.177   6.706 -0.0747  0.1626 -0.3386
  675PSPI   C3B 9789   5.400   2.942   6.810  0.0935  0.1617  0.1379
  675PSPI   C4B 9790   5.009   2.916   6.966  0.1963 -0.0415 -0.1028
  676PSPI    C1 9791   4.358  10.908   5.439 -0.1796 -0.3637 -0.1332
  676PSPI    C2 9792   4.192  10.738   5.761 -0.1746  0.0345  0.0860
  676PSPI    C3 9793   4.560  10.631   5.646 -0.1700 -0.0982  0.2207
  676PSPI   PO4 9794   4.402  11.122   5.479  0.0515  0.2815  0.0174
  676PSPI   GL1 9795   4.423  11.400   5.867  0.0922  0.3331 -0.2372
  676PSPI   GL2 9796   4.349  11.137   6.064 -0.0044 -0.1927 -0.1669
  676PSPI   C1A 9797   4.442  11.564   6.311  0.0928 -0.1749 -0.3936
  676PSPI   C2A 9798   4.407  11.488   6.746 -0.0167  0.1745  0.1241
  676PSPI   C3A 9799   4.235  11.713   7.055  0.2810 -0.1494  0.2424
  676PSPI   C4A 9800   4.171  12.043   7.214  0.0171 -0.4463  0.2174
  676PSPI   C1B 9801   4.287  11.081   6.551  0.1491 -0.3206 -0.4102
  676PSPI   C2B 9802   4.495  10.917   6.923 -0.0832 -0.0525 -0.3469
  676PSPI   C3B 9803   4.766  11.196   7.203 -0.3206 -0.2268  0.0803
  676PSPI   C4B 9804   4.855  11.550   7.509  0.1228  0.2325  0.0025
  677PSPI    C1 9805  17.370   1.064   5.088 -0.1129  0.0310 -0.1724
  677PSPI    C2 9806  17.767   1.021   5.090 -0.0998  0.1510 -0.1469
  677PSPI    C3 9807  17.545   0.811   4.832 -0.0238  0.0519 -0.1323
  677PSPI   PO4 9808  17.366   1.051   5.382  0.1773  0.1289  0.1605
  677PSPI   GL1 9809  17.321   1.356   5.699 -0.0799 -0.0075 -0.0327
  677PSPI   GL2 9810  17.223   1.568   5.953  0.0638 -0.0256  0.0453
  677PSPI   C1A 9811  17.528   1.255   6.191  0.1502 -0.2141  0.1259
  677PSPI   C2A 9812  17.525   1.111   6.664 -0.2258 -0.1171  0.2244
  677PSPI   C3A 9813  17.587   1.253   6.976 -0.0385  0.1377  0.2542
  677PSPI   C4A 9814  17.624   1.535   7.270  0.0763 -0.3670 -0.2800
  677PSPI   C1B 9815  16.835   1.666   6.135  0.3802 -0.0415 -0.2938
  677PSPI   C2B 9816  16.597   1.578   6.506  0.0221  0.1831 -0.0401
  677PSPI   C3B 9817  16.639   1.683   7.030 -0.1053  0.0973 -0.3097
  677PSPI   C4B 9818  16.755   1.443   7.386  0.0408 -0.0226 -0.0131
  678PSPI    C1 9819  13.980  15.843   5.893 -0.2753 -0.0037 -0.4141
  678PSPI    C2 9820  14.036  15.484   6.059 -0.1429  0.1483 -0.1221
  678PSPI    C3 9821  14.000  15.517   5.662  0.1518 -0.1525 -0.1788
  678PSPI   PO4 9822  14.088  15.957   6.093 -0.0268  0.1270 -0.2394
  678PSPI   GL1 9823  13.970  15.887   6.508  0.0808 -0.1745  0.0258
  678PSPI   GL2 9824  13.710  15.962   6.464  0.0988 -0.0927 -0.0512
  678PSPI   C1A 9825  14.100  16.140   6.911  0.1988 -0.1063  0.0003
  678PSPI   C2A 9826  14.135  16.018   7.334 -0.2680  0.0944  0.2239
  678PSPI   C3A 9827  14.225  15.822   7.708 -0.0217 -0.1269  0.1380
  678PSPI   C4A 9828  14.696  15.698   7.737 -0.1858  0.2373  0.1789
  678PSPI   C1B 9829  13.413  16.090   6.809 -0.0317  0.4216  0.1056
  678PSPI   C2B 9830  13.369  16.057   7.200 -0.1172 -0.0962  0.0766
  678PSPI   C3B 9831  13.214  15.927   7.605  0.2288 -0.1711 -0.0491
  678PSPI   C4B 9832  12.973  15.638   7.717  0.1713  0.4240  0.1070
  679PSPI    C1 9833  17.214   9.639   5.045 -0.1141 -0.0698 -0.0237
  679PSPI    C2 9834  17.450   9.325   4.970 -0.2583 -0.1028 -0.3601
  679PSPI    C3 9835  17.231   9.336   5.305  0.1207 -0.1283 -0.1048
  679PSPI   PO4 9836  17.358   9.865   5.112 -0.1450 -0.1185  0.0094
  679PSPI   GL1 9837  17.254  10.186   5.407  0.1221  0.1367  0.3018
  679PSPI   GL2 9838  16.839  10.217   5.510 -0.0485 -0.1744  0.1163
  679PSPI   C1A 9839  17.451  10.416   5.597 -0.0609 -0.0043 -0.0737
  679PSPI   C2A 9840  17.422  10.677   5.960 -0.2516 -0.1510  0.1202
  679PSPI   C3A 9841  17.397  11.138   6.105 -0.0680  0.2017  0.0012
  679PSPI   C4A 9842  17.298  11.585   6.167 -0.3164 -0.2013  0.1421
  679PSPI   C1B 9843  17.028  10.363   5.885 -0.2917 -0.1065  0.0040
  679PSPI   C2B 9844  17.071  10.495   6.272  0.1912 -0.0528 -0.0538
  679PSPI   C3B 9845  17.126  10.818   6.552  0.0561  0.2112 -0.1345
  679PSPI   C4B 9846  17.150  11.216   6.574 -0.2153 -0.1936 -0.0927
  680PSPI    C1 9847  13.634  12.223   5.306  0.0317 -0.1460  0.2131
  680PSPI    C2 9848  13.942  11.985   5.212 -0.0136 -0.0589 -0.1742
  680PSPI    C3 9849  13.577  11.906   5.069 -0.0809  0.0973 -0.0923
  680PSPI   PO4 9850  13.637  12.269   5.599  0.3032 -0.2825 -0.1720
  680PSPI   GL1 9851  13.550  12.379   6.039  0.0334  0.0332 -0.1961
  680PSPI   GL2 9852  13.832  12.370   6.031 -0.0514 -0.2013 -0.1529
  680PSPI   C1A 9853  13.357  12.044   6.261 -0.1732  0.0907  0.1486
  680PSPI   C2A 9854  13.462  11.806   6.551  0.3047  0.0063  0.1583
  680PSPI   C3A 9855  13.359  11.674   6.989 -0.2291  0.0526 -0.0506
  680PSPI   C4A 9856  13.483  11.513   7.377  0.1117 -0.0297  0.1759
  680PSPI   C1B 9857  13.827  12.157   6.429 -0.1596  0.1703  0.1767
  680PSPI   C2B 9858  13.809  12.143   6.847  0.3012  0.2493  0.0888
  680PSPI   C3B 9859  13.514  12.165   7.184  0.1432  0.0509  0.2364
  680PSPI   C4B 9860  13.322  12.279   7.567  0.0910 -0.0245  0.1154
  681PSPI    C1 9861   7.263   8.567   5.607  0.1045 -0.0658  0.0300
  681PSPI    C2 9862   7.329   8.387   5.256 -0.2043 -0.0687 -0.0290
  681PSPI    C3 9863   7.229   8.774   5.267  0.1688  0.0287  0.0807
  681PSPI   PO4 9864   7.457   8.513   5.760  0.4141  0.3122  0.3341
  681PSPI   GL1 9865   7.602   8.618   6.201 -0.2749 -0.0335  0.1837
  681PSPI   GL2 9866   7.659   8.869   6.087  0.2213  0.0308  0.1557
  681PSPI   C1A 9867   7.563   8.521   6.587 -0.3958  0.1143  0.4801
  681PSPI   C2A 9868   7.651   8.521   7.027 -0.0055  0.0993  0.0928
  681PSPI   C3A 9869   7.908   8.765   7.239  0.0414  0.0985  0.0395
  681PSPI   C4A 9870   8.001   9.200   7.000  0.2195 -0.2297  0.0198
  681PSPI   C1B 9871   7.538   9.288   6.170  0.0454 -0.2337 -0.2315
  681PSPI   C2B 9872   7.441   9.770   6.258 -0.2251 -0.0552  0.1787
  681PSPI   C3B 9873   7.582  10.075   6.667 -0.2944  0.1330 -0.0741
  681PSPI   C4B 9874   7.469  10.448   6.818  0.2589  0.1060  0.1938
  682PSPI    C1 9875   7.431   3.247   6.032  0.0121 -0.0339 -0.0545
  682PSPI    C2 9876   7.162   2.984   6.167  0.1749 -0.0751  0.1955
  682PSPI    C3 9877   7.297   2.956   5.792 -0.2457  0.0104  0.0324
  682PSPI   PO4 9878   7.363   3.446   6.146 -0.3878 -0.0331 -0.4720
  682PSPI   GL1 9879   7.514   3.587   6.483 -0.1518 -0.0732 -0.0816
  682PSPI   GL2 9880   7.591   3.799   6.685  0.2295 -0.1166 -0.2313
  682PSPI   C1A 9881   7.315   3.209   6.720 -0.1765 -0.2114  0.1465
  682PSPI   C2A 9882   7.090   3.380   7.128 -0.0528 -0.1335 -0.0435
  682PSPI   C3A 9883   6.776   3.649   7.232  0.0181  0.0285  0.1529
  682PSPI   C4A 9884   6.517   3.820   7.575 -0.3307 -0.0675 -0.0468
  682PSPI   C1B 9885   7.708   3.570   7.067  0.1573 -0.3496 -0.1259
  682PSPI   C2B 9886   7.480   3.564   7.406  0.0785  0.0751 -0.0645
  682PSPI   C3B 9887   7.116   3.710   7.610  0.0200 -0.2581  0.0399
  682PSPI   C4B 9888   6.779   3.384   7.764  0.1590 -0.1383 -0.0652
  683PSPI    C1 9889  10.933  16.958   5.771  0.0132 -0.0710  0.0279
  683PSPI    C2 9890  11.243  17.194   5.860 -0.1310  0.2174 -0.2139
  683PSPI    C3 9891  11.208  17.042   5.492 -0.0722 -0.1374 -0.0772
  683PSPI   PO4 9892  10.921  16.837   6.010 -0.1563  0.2227  0.2098
  683PSPI   GL1 9893  11.164  16.863   6.311 -0.0576  0.1260  0.1243
  683PSPI   GL2 9894  11.240  17.246   6.353 -0.2639 -0.2864 -0.3635
  683PSPI   C1A 9895  11.206  16.827   6.765  0.3258  0.4091 -0.0513
  683PSPI   C2A 9896  11.263  16.936   7.239  0.2312 -0.1884  0.2211
  683PSPI   C3A 9897  11.064  16.995   7.527 -0.1627  0.2848 -0.1501
  683PSPI   C4A 9898  10.728  17.098   7.636 -0.3028  0.2290 -0.0003
  683PSPI   C1B 9899  11.028  17.472   6.661 -0.0463 -0.0261 -0.0488
  683PSPI   C2B 9900  10.555  17.509   6.772  0.1582  0.0340 -0.2827
  683PSPI   C3B 9901  10.270  17.339   7.067  0.5502 -0.0601  0.2049
  683PSPI   C4B 9902  10.213  17.301   7.558 -0.3423  0.2149  0.2925
  684PSPI    C1 9903   9.565   4.018   5.716 -0.0437 -0.0615 -0.1551
  684PSPI    C2 9904   9.445   3.921   5.347  0.0303 -0.1154 -0.1651
  684PSPI    C3 9905   9.829   4.013   5.416  0.0643 -0.3296 -0.0589
  684PSPI   PO4 9906   9.262   3.918   5.857  0.1772 -0.0328 -0.1811
  684PSPI   GL1 9907   9.079   4.175   6.253 -0.0180 -0.0286 -0.0031
  684PSPI   GL2 9908   8.712   4.281   6.366 -0.5071  0.1706 -0.2528
  684PSPI   C1A 9909   8.781   3.840   6.602  0.1339  0.1387  0.1608
  684PSPI   C2A 9910   8.476   3.907   6.795 -0.3685  0.2430  0.0304
  684PSPI   C3A 9911   8.360   3.971   7.243  0.0952  0.2392  0.3287
  684PSPI   C4A 9912   8.328   3.807   7.672  0.1755 -0.1842 -0.1231
  684PSPI   C1B 9913   8.550   4.413   6.730  0.1687 -0.3791  0.5038
  684PSPI   C2B 9914   8.130   4.427   6.910  0.0431 -0.2526 -0.0196
  684PSPI   C3B 9915   7.906   4.494   7.261 -0.1142 -0.0579 -0.2257
  684PSPI   C4B 9916   7.770   4.868   7.554 -0.0789  0.1316  0.3871
  685PSPI    C1 9917   1.694   4.381   5.263  0.2619 -0.2359  0.0156
  685PSPI    C2 9918   1.822   4.555   4.927 -0.1519 -0.0391 -0.0455
  685PSPI    C3 9919   1.477   4.353   4.929 -0.1334 -0.0722  0.2520
  685PSPI   PO4 9920   1.895   4.375   5.384  0.2313 -0.0131 -0.3715
  685PSPI   GL1 9921   1.974   4.146   5.752 -0.3234 -0.1133  0.0139
  685PSPI   GL2 9922   2.023   3.745   5.832 -0.2697  0.1996 -0.0224
  685PSPI   C1A 9923   2.121   4.076   6.246  0.0006 -0.1899  0.1378
  685PSPI   C2A 9924   2.161   3.876   6.625  0.1522  0.2489  0.1515
  685PSPI   C3A 9925   1.955   3.567   6.917  0.5004 -0.0469  0.1012
  685PSPI   C4A 9926   1.834   3.706   7.285 -0.0052  0.0479 -0.2270
  685PSPI   C1B 9927   1.618   3.847   5.943  0.4094 -0.2605 -0.1477
  685PSPI   C2B 9928   1.166   3.736   5.909  0.2696 -0.1004 -0.0122
  685PSPI   C3B 9929   0.782   3.577   6.112 -0.0600  0.5082  0.0916
  685PSPI   C4B 9930   0.664   3.274   6.493  0.2096 -0.5091 -0.1768
  686PSPI    C1 9931   5.228  18.544   4.960 -0.1797 -0.1580 -0.3594
  686PSPI    C2 9932   5.479  18.747   4.723  0.0295  0.0645  0.0428
  686PSPI    C3 9933   5.091  18.842   4.731  0.0314  0.0934 -0.1653
  686PSPI   PO4 9934   5.350  18.573   5.215  0.0804 -0.0873  0.5698
  686PSPI   GL1 9935   5.184  18.774   5.586 -0.1531  0.3157 -0.0493
  686PSPI   GL2 9936   4.810  18.746   5.733 -0.2853  0.3841 -0.0205
  686PSPI   C1A 9937   5.480  18.607   5.883  0.0031 -0.0100 -0.0971
  686PSPI   C2A 9938   5.924  18.597   6.162  0.0498 -0.0785  0.1087
  686PSPI   C3A 9939   5.958  18.525   6.544  0.1093  0.0677 -0.1471
  686PSPI   C4A 9940   5.636  18.447   6.858 -0.1516 -0.0388  0.2296
  686PSPI   C1B 9941   5.005  18.619   6.083 -0.2397  0.2373 -0.0758
  686PSPI   C2B 9942   5.229  19.020   6.270 -0.2432 -0.3220 -0.0575
  686PSPI   C3B 9943   5.390  19.313   6.518  0.0087  0.0944  0.1874
  686PSPI   C4B 9944   5.756  19.320   6.801 -0.1772 -0.0275  0.0417
  687PSPI    C1 9945  15.038   3.631   5.455 -0.0640 -0.3150 -0.3603
  687PSPI    C2 9946  15.366   3.776   5.279  0.0146 -0.0818 -0.0303
  687PSPI    C3 9947  15.098   3.572   5.064  0.1637  0.0947 -0.3928
  687PSPI   PO4 9948  15.027   3.465   5.705  0.0557 -0.0844  0.2900
  687PSPI   GL1 9949  15.184   3.331   6.104  0.0419 -0.0298  0.3482
  687PSPI   GL2 9950  14.821   3.444   6.317 -0.0532 -0.3237  0.2474
  687PSPI   C1A 9951  15.546   3.318   6.428  0.0526 -0.0337  0.0394
  687PSPI   C2A 9952  15.899   3.218   6.607  0.2513 -0.0030 -0.0276
  687PSPI   C3A 9953  15.843   2.934   6.945  0.0821  0.0320  0.0279
  687PSPI   C4A 9954  15.690   2.802   7.339 -0.0460  0.1119  0.2245
  687PSPI   C1B 9955  15.054   3.423   6.760  0.0567  0.3822 -0.0933
  687PSPI   C2B 9956  15.175   3.704   6.983 -0.1873  0.2232 -0.0525
  687PSPI   C3B 9957  15.400   3.923   7.352  0.1062  0.0012  0.1870
  687PSPI   C4B 9958  15.610   4.191   7.510 -0.1651  0.0781  0.2413
  688PSPI    C1 9959  16.125   8.175   5.352  0.0041  0.0870  0.3141
  688PSPI    C2 9960  15.805   7.940   5.395 -0.0750  0.1348  0.0114
  688PSPI    C3 9961  15.761   8.317   5.267  0.0970  0.1594  0.0223
  688PSPI   PO4 9962  16.232   8.187   5.619 -0.1487 -0.3074 -0.0112
  688PSPI   GL1 9963  16.250   8.409   5.967 -0.2923  0.2359  0.2406
  688PSPI   GL2 9964  16.605   8.464   5.909  0.1700  0.0652 -0.2507
  688PSPI   C1A 9965  16.279   8.580   6.372  0.1456  0.0791  0.4039
  688PSPI   C2A 9966  16.450   8.724   6.757 -0.0854 -0.0964 -0.2315
  688PSPI   C3A 9967  16.564   8.620   7.173  0.0290 -0.1817  0.1647
  688PSPI   C4A 9968  16.879   8.648   7.340 -0.2159  0.3619 -0.0396
  688PSPI   C1B 9969  16.806   8.470   6.328 -0.1855 -0.2242 -0.0420
  688PSPI   C2B 9970  17.022   8.868   6.515 -0.0197 -0.1033  0.1142
  688PSPI   C3B 9971  16.917   9.041   6.910  0.1512 -0.1511  0.0145
  688PSPI   C4B 9972  17.182   9.358   7.196  0.2985 -0.1614  0.1931
  689PSPI    C1 9973  12.193   6.094   5.357  0.1974  0.0233  0.1849
  689PSPI    C2 9974  12.356   6.457   5.320  0.2657 -0.0290 -0.0387
  689PSPI    C3 9975  12.543   6.137   5.169  0.0922 -0.1267 -0.0492
  689PSPI   PO4 9976  12.107   6.076   5.620 -0.0016 -0.0283 -0.2948
  689PSPI   GL1 9977  11.983   6.262   5.977  0.1290 -0.1520 -0.0388
  689PSPI   GL2 9978  11.689   6.488   6.053  0.0072  0.0679  0.3040
  689PSPI   C1A 9979  12.193   6.500   6.263  0.5108 -0.0374 -0.2482
  689PSPI   C2A 9980  12.487   6.619   6.584 -0.2232  0.2126 -0.2368
  689PSPI   C3A 9981  12.789   6.685   6.874 -0.0871 -0.1030 -0.1458
  689PSPI   C4A 9982  12.933   6.554   7.264  0.2063 -0.1472  0.1706
  689PSPI   C1B 9983  11.599   6.264   6.395 -0.1212  0.2929  0.0288
  689PSPI   C2B 9984  11.286   6.207   6.762  0.0476 -0.2470  0.0072
  689PSPI   C3B 9985  11.199   6.038   7.160 -0.2718 -0.1172 -0.1934
  689PSPI   C4B 9986  10.881   6.023   7.419 -0.4257 -0.2093 -0.1441
  690PSPI    C1 9987  16.647  16.327   5.719  0.1892 -0.1186  0.0644
  690PSPI    C2 9988  16.958  16.578   5.713  0.1711 -0.0984 -0.0597
  690PSPI    C3 9989  16.796  16.452   5.370 -0.0643  0.0237  0.0042
  690PSPI   PO4 9990  16.746  16.156   5.884  0.2182  0.2509  0.1694
  690PSPI   GL1 9991  17.002  15.986   6.310  0.0034 -0.0762 -0.0135
  690PSPI   GL2 9992  17.210  15.911   6.377  0.1344 -0.1639  0.1650
  690PSPI   C1A 9993  16.818  16.114   6.645 -0.0002  0.1845  0.0035
  690PSPI   C2A 9994  16.821  16.123   7.075 -0.1768  0.1772  0.1249
  690PSPI   C3A 9995  16.898  16.366   7.449  0.2257  0.1057 -0.1942
  690PSPI   C4A 9996  16.601  16.618   7.691 -0.0837 -0.1774  0.0523
  690PSPI   C1B 9997  17.192  15.787   6.741  0.0492  0.1191  0.3839
  690PSPI   C2B 9998  17.072  15.750   7.046 -0.0505  0.2220  0.1087
  690PSPI   C3B 9999  16.919  15.813   7.436  0.0955  0.1342 -0.0343
  690PSPI   C4B10000  16.972  15.822   7.805  0.0250 -0.2781  0.0186
  691PSPI    C110001   7.577  14.764   5.117 -0.0064  0.2092 -0.0240
  691PSPI    C210002   7.498  14.771   4.725  0.1177 -0.1125 -0.0580
  691PSPI    C310003   7.870  14.837   4.855 -0.0209  0.5345  0.0462
  691PSPI   PO410004   7.352  14.559   5.256 -0.1061  0.1675  0.2441
  691PSPI   GL110005   7.535  14.594   5.651  0.3310  0.0106 -0.0134
  691PSPI   GL210006   7.721  14.803   5.552  0.0805 -0.0309  0.1019
  691PSPI   C1A10007   7.640  14.516   6.102  0.2343 -0.2428 -0.2835
  691PSPI   C2A10008   7.653  14.273   6.390  0.2636 -0.1223  0.0572
  691PSPI   C3A10009   7.467  14.508   6.774 -0.0132  0.0022  0.2683
  691PSPI   C4A10010   7.321  14.340   7.041  0.0887  0.0350 -0.2037
  691PSPI   C1B10011   7.680  15.237   5.726  0.1531  0.0664 -0.1534
  691PSPI   C2B10012   7.697  15.511   6.055 -0.5148 -0.0561 -0.1240
  691PSPI   C3B10013   7.476  15.727   6.265 -0.3478 -0.1386  0.3446
  691PSPI   C4B10014   7.319  16.023   6.322 -0.1621 -0.1253 -0.0865
  692PSPI    C110015  17.638  15.117   5.688  0.0332  0.1821 -0.1116
  692PSPI    C210016  17.495  15.188   5.321 -0.2348  0.3481  0.0217
  692PSPI    C310017  17.244  15.102   5.620 -0.0112  0.1267  0.1496
  692PSPI   PO410018  17.863  15.174   5.680  0.0210  0.1405 -0.3024
  692PSPI   GL110019  18.022  15.030   6.096 -0.1891 -0.2042  0.2130
  692PSPI   GL210020  17.798  14.790   6.289  0.1558 -0.0239 -0.1132
  692PSPI   C1A10021  18.021  15.313   6.403 -0.1723  0.0061  0.3402
  692PSPI   C2A10022  17.890  15.317   6.829  0.0170  0.1910 -0.3234
  692PSPI   C3A10023  17.739  15.706   7.074  0.1429  0.4976 -0.0115
  692PSPI   C4A10024  17.450  15.728   7.378  0.0882  0.3306 -0.2653
  692PSPI   C1B10025  17.928  14.831   6.741 -0.4164 -0.1245 -0.0391
  692PSPI   C2B10026  18.088  14.636   7.159 -0.0689 -0.2514 -0.1041
  692PSPI   C3B10027  18.347  14.271   7.216 -0.1021  0.0396  0.0105
  692PSPI   C4B10028  18.492  14.178   7.584 -0.1567 -0.1843  0.0552
  693PSPI    C110029  18.140   7.565   5.252 -0.1540  0.1158 -0.1129
  693PSPI    C210030  17.763   7.699   5.227 -0.2210 -0.0653 -0.0878
  693PSPI    C310031  17.887   7.404   4.987 -0.1556 -0.1470  0.0454
  693PSPI   PO410032  18.194   7.703   5.537 -0.0480  0.1892 -0.0127
  693PSPI   GL110033  18.137   7.678   6.033  0.2951  0.0659 -0.0645
  693PSPI   GL210034  17.991   7.430   6.146  0.1024 -0.1394 -0.2355
  693PSPI   C1A10035  18.391   7.682   6.323  0.0241  0.1615 -0.1240
  693PSPI   C2A10036  18.718   7.541   6.615 -0.2535 -0.3514  0.2844
  693PSPI   C3A10037  18.670   7.358   7.059  0.0383 -0.0893 -0.0673
  693PSPI   C4A10038  18.866   7.149   7.378  0.1056 -0.3327 -0.0069
  693PSPI   C1B10039  17.949   7.301   6.542  0.1283 -0.1288 -0.0144
  693PSPI   C2B10040  17.863   7.018   6.818  0.1796 -0.2499 -0.0644
  693PSPI   C3B10041  17.849   6.814   7.176 -0.3879 -0.2475  0.1038
  693PSPI   C4B10042  17.917   6.639   7.565 -0.1048 -0.2773 -0.0062
  694PSPI    C110043   2.921   7.079   5.365  0.0221  0.2023 -0.0727
  694PSPI    C210044   2.759   6.753   5.198  0.0382  0.1894 -0.0631
  694PSPI    C310045   3.120   6.880   5.080  0.1237  0.0823  0.0803
  694PSPI   PO410046   2.891   6.990   5.669 -0.3697 -0.0996  0.4218
  694PSPI   GL110047   2.974   6.707   5.951 -0.1034  0.2024  0.4627
  694PSPI   GL210048   3.287   6.686   5.825  0.0416  0.1607  0.1052
  694PSPI   C1A10049   2.925   6.842   6.390 -0.1093  0.1103 -0.0024
  694PSPI   C2A10050   2.911   6.868   6.901 -0.4325 -0.0460  0.4486
  694PSPI   C3A10051   2.977   6.576   7.131 -0.2255 -0.2081 -0.2195
  694PSPI   C4A10052   3.143   6.557   7.557 -0.0280  0.0140 -0.0301
  694PSPI   C1B10053   3.369   6.657   6.343 -0.2633  0.0025  0.1238
  694PSPI   C2B10054   3.426   6.717   6.815  0.6484  0.1828  0.0408
  694PSPI   C3B10055   3.759   6.591   7.124 -0.1085  0.0618  0.1980
  694PSPI   C4B10056   3.741   6.610   7.582  0.0248 -0.1942 -0.0222
  695POPI    C110057  10.483   3.425   5.831  0.0985 -0.1531  0.1171
  695POPI    C210058  10.832   3.615   5.790  0.0910 -0.1663 -0.0138
  695POPI    C310059  10.749   3.299   5.559 -0.0223 -0.1409 -0.0082
  695POPI   PO410060  10.394   3.435   6.128 -0.2365 -0.0392 -0.1449
  695POPI   GL110061  10.357   3.362   6.461 -0.2002 -0.3587  0.0799
  695POPI   GL210062  10.530   3.662   6.580 -0.1972  0.2459  0.1917
  695POPI   C1A10063  10.228   3.261   6.848  0.2200 -0.0940 -0.3472
  695POPI   D2A10064  10.073   3.061   7.099 -0.1311  0.2048  0.2084
  695POPI   C3A10065   9.875   3.215   7.441  0.1431 -0.3568 -0.1152
  695POPI   C4A10066  10.066   3.527   7.713  0.0483 -0.0430  0.3337
  695POPI   C1B10067  10.559   3.987   6.848 -0.3458  0.2202 -0.0315
  695POPI   C2B10068  10.378   4.225   7.162  0.2005  0.0478 -0.0365
  695POPI   C3B10069  10.151   4.376   7.482 -0.4356 -0.2705 -0.0905
  695POPI   C4B10070  10.082   4.759   7.769 -0.0933  0.2735 -0.0431
  696POPI    C110071  10.491   5.727   5.207 -0.1311 -0.0960  0.0001
  696POPI    C210072  10.376   5.569   4.858 -0.2205 -0.1202  0.0400
  696POPI    C310073  10.105   5.733   5.102 -0.1128  0.2136 -0.0588
  696POPI   PO410074  10.683   5.504   5.347  0.1482 -0.4391  0.2023
  696POPI   GL110075  10.811   5.508   5.786  0.4850  0.1857 -0.1174
  696POPI   GL210076  10.711   5.751   5.908 -0.0176  0.0594  0.4057
  696POPI   C1A10077  10.884   5.342   6.210  0.0468  0.2130 -0.3878
  696POPI   D2A10078  10.645   5.094   6.605  0.1410  0.3988  0.0147
  696POPI   C3A10079  10.784   5.253   6.944 -0.0642  0.2532 -0.3113
  696POPI   C4A10080  10.501   5.228   7.370 -0.0978  0.0230  0.1211
  696POPI   C1B10081  10.457   5.595   6.304 -0.0575 -0.3541 -0.0439
  696POPI   C2B10082  10.486   5.570   6.768 -0.1530 -0.0236 -0.1349
  696POPI   C3B10083  10.458   5.725   7.182  0.1290  0.0343  0.1249
  696POPI   C4B10084  10.527   5.727   7.575 -0.0159  0.1328 -0.0796
  697POPI    C110085   6.769   8.902   5.408 -0.0809 -0.0125 -0.1399
  697POPI    C210086   6.927   9.153   5.140  0.3301 -0.1685 -0.0516
  697POPI    C310087   6.689   8.856   5.018  0.3555 -0.1202 -0.2222
  697POPI   PO410088   6.977   8.979   5.643 -0.0785 -0.0654  0.1802
  697POPI   GL110089   7.159   9.162   5.969 -0.0108  0.1403  0.0742
  697POPI   GL210090   7.096   8.748   6.092  0.2541  0.3053  0.1033
  697POPI   C1A10091   7.025   9.358   6.316 -0.1125 -0.1644 -0.0649
  697POPI   D2A10092   7.361   9.393   6.613  0.3734  0.1008 -0.2230
  697POPI   C3A10093   7.274   9.703   6.946  0.4283  0.2072 -0.1798
  697POPI   C4A10094   7.326   9.656   7.372 -0.0334  0.1827 -0.0069
  697POPI   C1B10095   6.986   8.512   6.446  0.2371 -0.2815 -0.1568
  697POPI   C2B10096   7.081   8.480   6.937 -0.0406  0.0411 -0.1337
  697POPI   C3B10097   7.279   8.550   7.436 -0.4380  0.1649  0.1387
  697POPI   C4B10098   7.586   8.662   7.549  0.2607  0.1735 -0.2278
  698POPI    C110099  18.564   6.980   5.504  0.0410  0.0165  0.1242
  698POPI    C210100  18.662   7.134   5.148  0.0359 -0.0919  0.0756
  698POPI    C310101  18.277   7.105   5.255  0.0459  0.1443  0.1815
  698POPI   PO410102  18.819   6.749   5.540  0.0941 -0.1428 -0.0221
  698POPI   GL110103  19.190   6.783   5.908 -0.2257 -0.0224  0.1222
  698POPI   GL210104  19.440   6.632   5.798  0.1691 -0.3180  0.1275
  698POPI   C1A10105  19.245   6.995   6.289 -0.0303 -0.0093  0.1630
  698POPI   D2A10106  19.060   7.147   6.675 -0.1193  0.1733 -0.0513
  698POPI   C3A10107  19.154   7.434   6.964  0.0564 -0.0544 -0.2941
  698POPI   C4A10108  19.014   7.638   7.352 -0.0756  0.2513 -0.0791
  698POPI   C1B10109  19.475   6.551   6.226 -0.0491  0.1551  0.0494
  698POPI   C2B10110  19.443   6.546   6.693 -0.3232  0.0658  0.1484
  698POPI   C3B10111  19.485   6.938   6.840  0.0761  0.0667 -0.1556
  698POPI   C4B10112  19.577   7.257   6.646  0.0835  0.1975 -0.1414
  699POPI    C110113   2.142   5.443   5.572 -0.3456 -0.3513 -0.0802
  699POPI    C210114   2.317   5.274   5.255  0.2309  0.0303  0.0180
  699POPI    C310115   1.988   5.495   5.207  0.0931 -0.2258 -0.2549
  699POPI   PO410116   2.390   5.444   5.728  0.2550 -0.0673  0.0221
  699POPI   GL110117   2.546   5.570   6.118  0.3231 -0.1510 -0.3299
  699POPI   GL210118   2.852   5.536   6.236 -0.2257  0.1552  0.2214
  699POPI   C1A10119   2.313   5.811   6.374 -0.0795  0.0815  0.2018
  699POPI   D2A10120   2.123   6.158   6.519  0.2719 -0.0423 -0.1002
  699POPI   C3A10121   2.233   6.277   6.874 -0.1733 -0.3376 -0.2407
  699POPI   C4A10122   1.965   6.516   7.159  0.2356  0.0797  0.0101
  699POPI   C1B10123   2.733   5.820   6.617  0.0445  0.0929  0.2064
  699POPI   C2B10124   2.531   5.746   7.007  0.2188 -0.0423  0.1834
  699POPI   C3B10125   2.251   5.604   7.285  0.1987  0.0414  0.0774
  699POPI   C4B10126   1.724   5.888   7.384  0.0546  0.2229  0.0002
  700POPI    C110127  15.717   8.875   5.092  0.1462 -0.2129  0.0377
  700POPI    C210128  15.446   8.939   4.804  0.0388 -0.0952  0.1632
  700POPI    C310129  15.723   9.217   4.884  0.1532 -0.1850  0.0834
  700POPI   PO410130  15.528   8.832   5.287  0.2024 -0.4009 -0.0049
  700POPI   GL110131  15.554   8.919   5.789  0.2467  0.4348  0.0991
  700POPI   GL210132  15.594   9.233   5.915 -0.0727 -0.0624  0.2569
  700POPI   C1A10133  15.384   8.953   6.203 -0.2414 -0.1012  0.2715
  700POPI   D2A10134  15.121   8.958   6.610  0.1339 -0.0355 -0.2130
  700POPI   C3A10135  14.993   8.775   6.886  0.0907 -0.2446  0.0627
  700POPI   C4A10136  15.179   8.631   7.255  0.3123  0.0236 -0.1853
  700POPI   C1B10137  15.724   9.281   6.292 -0.0604  0.1634 -0.1633
  700POPI   C2B10138  15.530   9.163   6.665 -0.0781 -0.2520 -0.3280
  700POPI   C3B10139  15.340   9.140   7.074 -0.0239 -0.0587  0.0148
  700POPI   C4B10140  15.535   8.966   7.460 -0.1283  0.1954  0.2280
  701POPI    C110141  10.019   0.159   5.382 -0.0125 -0.1537 -0.1029
  701POPI    C210142  10.137   0.535   5.451 -0.2447 -0.0928 -0.0271
  701POPI    C310143  10.391   0.232   5.509 -0.1300  0.0342  0.1425
  701POPI   PO410144   9.764   0.104   5.496 -0.1467 -0.3935  0.1704
  701POPI   GL110145   9.620  -0.031   5.886 -0.2501 -0.0458 -0.3141
  701POPI   GL210146   9.641  -0.394   5.961 -0.1731  0.0033  0.0192
  701POPI   C1A10147   9.288   0.136   6.141  0.2232  0.0805 -0.0191
  701POPI   D2A10148   9.295   0.097   6.560 -0.2973  0.2901  0.0216
  701POPI   C3A10149   9.104   0.111   7.006 -0.2413  0.0055  0.0064
  701POPI   C4A10150   9.149   0.202   7.339 -0.3898 -0.1502 -0.4513
  701POPI   C1B10151   9.461  -0.364   6.358 -0.0319  0.0544 -0.1747
  701POPI   C2B10152   9.289  -0.407   6.790 -0.1900  0.0975 -0.1776
  701POPI   C3B10153   9.240  -0.399   7.226 -0.0570 -0.1651 -0.0951
  701POPI   C4B10154   9.036  -0.355   7.624 -0.0745  0.1439  0.3065
  702POPI    C110155   3.659  16.887   5.140 -0.2078 -0.0855  0.1895
  702POPI    C210156   3.686  17.253   4.982 -0.0276 -0.1431  0.0829
  702POPI    C310157   3.976  16.986   4.917 -0.0301 -0.2214  0.3777
  702POPI   PO410158   3.513  16.979   5.394 -0.0474 -0.1101  0.5105
  702POPI   GL110159   3.682  17.022   5.809  0.0202  0.0527  0.2818
  702POPI   GL210160   3.938  17.050   5.887 -0.2009  0.0887 -0.1718
  702POPI   C1A10161   3.414  16.992   6.152  0.0915  0.0507 -0.0082
  702POPI   D2A10162   3.403  17.251   6.559  0.0810 -0.0297 -0.1119
  702POPI   C3A10163   3.643  17.216   6.911  0.0614  0.0473  0.0944
  702POPI   C4A10164   3.772  17.157   7.370 -0.0633  0.0608 -0.0924
  702POPI   C1B10165   3.825  16.672   6.066  0.2017  0.2772  0.1850
  702POPI   C2B10166   3.958  16.490   6.486 -0.0388  0.0628 -0.2251
  702POPI   C3B10167   3.983  16.587   6.903 -0.2700  0.2567  0.1905
  702POPI   C4B10168   4.137  16.709   7.289  0.2377  0.3417 -0.2223
  703POPI    C110169  13.158  13.223   5.503 -0.1079 -0.1714 -0.4872
  703POPI    C210170  13.485  13.308   5.289 -0.0332  0.1738 -0.2453
  703POPI    C310171  13.188  13.574   5.312 -0.2283 -0.0397 -0.2677
  703POPI   PO410172  13.258  13.096   5.729 -0.3818 -0.1036 -0.1949
  703POPI   GL110173  13.213  12.853   6.187  0.1781  0.0396 -0.2157
  703POPI   GL210174  13.404  13.230   6.172 -0.3897 -0.2626  0.3284
  703POPI   C1A10175  13.221  12.561   6.490  0.2981 -0.1885 -0.0017
  703POPI   D2A10176  13.064  12.354   6.604 -0.1831  0.3080 -0.2773
  703POPI   C3A10177  12.648  12.337   6.769 -0.1018 -0.0813  0.0216
  703POPI   C4A10178  12.389  12.481   6.403 -0.1889 -0.1061 -0.0158
  703POPI   C1B10179  13.596  13.156   6.437 -0.0076 -0.0766 -0.1441
  703POPI   C2B10180  13.563  13.261   6.803 -0.1998 -0.0316  0.1619
  703POPI   C3B10181  13.812  13.551   7.068  0.0283  0.1034  0.1140
  703POPI   C4B10182  14.271  13.517   7.042  0.0914 -0.2176 -0.2833
  704POPI    C110183   7.837   0.723   5.713  0.2703  0.0868 -0.0804
  704POPI    C210184   7.633   0.839   5.389 -0.0082  0.3154  0.1714
  704POPI    C310185   8.021   0.929   5.424  0.0134  0.3251 -0.0777
  704POPI   PO410186   7.594   0.584   5.817 -0.2411  0.2717 -0.1028
  704POPI   GL110187   7.537   0.491   6.179 -0.1280  0.0620 -0.0734
  704POPI   GL210188   7.668   0.328   6.323 -0.1698 -0.1103 -0.0096
  704POPI   C1A10189   7.230   0.348   6.500 -0.2188 -0.0958  0.0042
  704POPI   D2A10190   7.124   0.619   6.823  0.2757 -0.1847  0.2860
  704POPI   C3A10191   7.041   0.454   7.266 -0.2800 -0.0779 -0.0830
  704POPI   C4A10192   7.091   0.098   7.501  0.3845 -0.0769 -0.1098
  704POPI   C1B10193   7.773   0.284   6.722 -0.4651 -0.0371  0.3967
  704POPI   C2B10194   7.636   0.206   6.991 -0.3749  0.3197 -0.5508
  704POPI   C3B10195   7.946   0.133   7.359  0.1044 -0.1317  0.2279
  704POPI   C4B10196   8.095  -0.130   7.751 -0.2026 -0.0289 -0.1679
  705POPI    C110197  18.752   4.625   5.218  0.2409 -0.2029 -0.0116
  705POPI    C210198  18.871   4.923   4.979 -0.2265 -0.0631 -0.0813
  705POPI    C310199  18.847   4.549   4.837  0.0095 -0.0742 -0.0968
  705POPI   PO410200  18.930   4.575   5.508  0.4897  0.2072  0.0449
  705POPI   GL110201  18.846   4.497   5.952 -0.1622 -0.0018  0.0783
  705POPI   GL210202  18.701   4.189   5.845 -0.0629  0.2004 -0.2274
  705POPI   C1A10203  18.965   4.460   6.332 -0.2040 -0.0596 -0.0383
  705POPI   D2A10204  18.981   4.331   6.740  0.1549  0.0016 -0.3007
  705POPI   C3A10205  19.133   4.496   7.005 -0.2016 -0.0927  0.0741
  705POPI   C4A10206  19.134   4.801   7.236 -0.0282  0.0869 -0.1759
  705POPI   C1B10207  18.529   4.258   6.193 -0.2665 -0.0094 -0.0573
  705POPI   C2B10208  18.442   4.370   6.663 -0.1682  0.1352 -0.2608
  705POPI   C3B10209  18.214   4.499   7.048  0.0945 -0.2837 -0.2208
  705POPI   C4B10210  17.830   4.554   7.253  0.4105 -0.1424  0.2012
  706POPI    C110211   7.023   7.226   5.445  0.2897 -0.0441  0.1793
  706POPI    C210212   7.327   6.970   5.400  0.0964 -0.2705  0.1403
  706POPI    C310213   7.067   7.025   5.102 -0.0815 -0.3165  0.2848
  706POPI   PO410214   6.849   7.240   5.698 -0.1662 -0.0743  0.1074
  706POPI   GL110215   6.675   7.316   6.069  0.0657 -0.3021 -0.2973
  706POPI   GL210216   6.849   6.986   6.183 -0.2678 -0.3093  0.2538
  706POPI   C1A10217   6.591   7.213   6.520  0.0490 -0.1084  0.1867
  706POPI   D2A10218   6.678   7.118   6.904 -0.0341  0.4699 -0.1546
  706POPI   C3A10219   6.561   7.489   7.189  0.0176  0.0233 -0.0488
  706POPI   C4A10220   6.277   7.709   7.377  0.0272 -0.2983  0.1160
  706POPI   C1B10221   7.017   6.887   6.494  0.4820 -0.0210 -0.2593
  706POPI   C2B10222   7.225   6.931   6.897  0.1742  0.3437  0.1600
  706POPI   C3B10223   7.461   7.210   7.118  0.1034 -0.2542 -0.2788
  706POPI   C4B10224   7.681   7.252   7.466  0.1387 -0.1385  0.1351
  707POPI    C110225   4.908  11.287   5.545  0.1080 -0.1603 -0.1721
  707POPI    C210226   5.251  11.194   5.360  0.1394 -0.0930 -0.1482
  707POPI    C310227   5.237  11.208   5.759  0.1924  0.2174 -0.1545
  707POPI   PO410228   4.785  11.610   5.535 -0.1081  0.1779 -0.0441
  707POPI   GL110229   4.827  11.673   5.932  0.1443 -0.1101 -0.0428
  707POPI   GL210230   4.756  11.994   5.894  0.0486  0.1981  0.0715
  707POPI   C1A10231   4.930  11.852   6.355 -0.1421 -0.4331 -0.0020
  707POPI   D2A10232   4.642  11.892   6.644 -0.1775  0.0128 -0.1038
  707POPI   C3A10233   4.440  12.198   6.839 -0.0248 -0.0496  0.1615
  707POPI   C4A10234   4.446  12.468   7.189 -0.0448  0.1647 -0.0728
  707POPI   C1B10235   4.489  12.074   6.194 -0.1404 -0.0196 -0.5189
  707POPI   C2B10236   4.256  12.438   6.345  0.0446  0.1475  0.1246
  707POPI   C3B10237   4.295  12.830   6.615  0.1060 -0.1194  0.0299
  707POPI   C4B10238   4.602  12.875   6.889 -0.0626  0.2938  0.0947
  708POPI    C110239   8.972   5.033   5.659 -0.1269 -0.0814 -0.0497
  708POPI    C210240   8.635   5.146   5.475 -0.0306  0.2132 -0.0515
  708POPI    C310241   8.990   5.263   5.333  0.0682  0.0193  0.0304
  708POPI   PO410242   8.947   4.814   5.797 -0.0750 -0.0411  0.0523
  708POPI   GL110243   8.905   4.675   6.218 -0.0417  0.0408  0.3632
  708POPI   GL210244   9.212   4.712   6.207  0.1657 -0.1339  0.0320
  708POPI   C1A10245   8.581   4.800   6.399 -0.0167  0.0819 -0.1511
  708POPI   D2A10246   8.210   4.872   6.656 -0.0019 -0.0258  0.2983
  708POPI   C3A10247   8.134   4.905   7.097 -0.0821 -0.0374  0.1260
  708POPI   C4A10248   8.291   5.042   7.530 -0.0814  0.2029  0.1050
  708POPI   C1B10249   9.359   4.458   6.550 -0.1038 -0.2207 -0.2185
  708POPI   C2B10250   9.514   4.711   6.933 -0.1587 -0.1428 -0.0790
  708POPI   C3B10251   9.764   4.720   7.277  0.3415  0.0437  0.0215
  708POPI   C4B10252  10.196   4.836   7.293  0.1088  0.0838 -0.2586
  709POPI    C110253  12.969  12.693   5.438 -0.1104 -0.0605 -0.0377
  709POPI    C210254  13.166  12.345   5.420  0.0673  0.0398 -0.0554
  709POPI    C310255  13.220  12.590   5.732  0.0554  0.1179 -0.1143
  709POPI   PO410256  12.711  12.682   5.331 -0.0664  0.2348 -0.0763
  709POPI   GL110257  12.518  12.717   5.703  0.2869  0.1063  0.1814
  709POPI   GL210258  12.768  12.987   5.790  0.2927 -0.2812 -0.1156
  709POPI   C1A10259  12.270  12.804   5.969  0.1001 -0.0995  0.1837
  709POPI   D2A10260  12.300  12.941   6.495  0.2005  0.1068  0.0245
  709POPI   C3A10261  11.951  13.117   6.616  0.1164  0.1418  0.2805
  709POPI   C4A10262  11.835  13.494   6.833  0.1095  0.0177 -0.0943
  709POPI   C1B10263  12.738  13.234   6.215 -0.2407 -0.0704 -0.0717
  709POPI   C2B10264  13.094  13.188   6.620  0.0281 -0.1031 -0.0247
  709POPI   C3B10265  13.130  13.012   7.050  0.2501 -0.0728  0.0408
  709POPI   C4B10266  12.862  12.862   7.451 -0.3345  0.0071  0.3555
  710POPI    C110267  16.624   5.443   5.660  0.2292  0.0313  0.1819
  710POPI    C210268  16.482   5.072   5.615  0.0671  0.0628  0.4121
  710POPI    C310269  16.750   5.217   5.355 -0.2625 -0.0258  0.0115
  710POPI   PO410270  16.414   5.510   5.809  0.2923 -0.0133 -0.0971
  710POPI   GL110271  16.276   5.389   6.230  0.0620 -0.0133  0.1234
  710POPI   GL210272  16.346   5.674   6.376  0.2247 -0.1561 -0.0093
  710POPI   C1A10273  16.500   5.215   6.619 -0.0448  0.0550  0.0466
  710POPI   D2A10274  16.401   4.896   6.874 -0.0058 -0.1029  0.2643
  710POPI   C3A10275  16.142   4.621   6.677 -0.1694 -0.1936  0.2160
  710POPI   C4A10276  15.755   4.538   6.497 -0.0274 -0.2314 -0.0230
  710POPI   C1B10277  16.540   5.705   6.755  0.3023  0.0141  0.0683
  710POPI   C2B10278  16.580   5.794   7.112  0.1923 -0.0167 -0.0115
  710POPI   C3B10279  16.702   6.068   7.402  0.1404 -0.2580  0.1915
  710POPI   C4B10280  16.837   6.458   7.444  0.0281 -0.3877 -0.3158
  711POPI    C110281  14.044   6.963   5.588 -0.0377 -0.0809 -0.0787
  711POPI    C210282  14.151   7.232   5.312  0.0086 -0.0128  0.0051
  711POPI    C310283  14.157   6.842   5.224  0.0254  0.0085 -0.0893
  711POPI   PO410284  14.141   7.110   5.879 -0.3357 -0.0676  0.1152
  711POPI   GL110285  13.998   7.409   6.152 -0.4063  0.0736  0.2302
  711POPI   GL210286  14.221   7.583   6.161 -0.0221 -0.0470 -0.2408
  711POPI   C1A10287  14.029   7.370   6.596  0.1660 -0.4057  0.0117
  711POPI   D2A10288  13.820   7.633   7.001 -0.0121 -0.0732  0.1303
  711POPI   C3A10289  13.760   8.103   7.038  0.1735  0.0694  0.2670
  711POPI   C4A10290  13.896   8.493   7.069 -0.0839  0.0871  0.1621
  711POPI   C1B10291  14.508   7.621   6.514  0.0635  0.1750  0.1169
  711POPI   C2B10292  14.568   7.436   6.852  0.0629  0.1427  0.1585
  711POPI   C3B10293  14.395   7.603   7.241  0.1750 -0.0423 -0.1043
  711POPI   C4B10294  14.276   7.824   7.535  0.2108 -0.3140  0.0201
  712POPI    C110295  14.011   9.088   5.597 -0.1687  0.1393  0.0397
  712POPI    C210296  14.059   8.726   5.760 -0.0713  0.1032 -0.0674
  712POPI    C310297  14.024   8.763   5.363  0.0269  0.2211 -0.0654
  712POPI   PO410298  13.935   9.176   5.672  0.2396 -0.0311  0.0803
  712POPI   GL110299  14.007   9.173   6.161  0.0137 -0.4101  0.2053
  712POPI   GL210300  14.042   9.452   6.334  0.3451  0.0417  0.1270
  712POPI   C1A10301  14.360   9.083   6.432  0.1591  0.0548  0.1327
  712POPI   D2A10302  14.721   8.929   6.310 -0.2336 -0.3013 -0.1118
  712POPI   C3A10303  14.933   8.516   6.383  0.2351  0.2645  0.1459
  712POPI   C4A10304  14.930   8.318   6.790  0.3192 -0.3418  0.3861
  712POPI   C1B10305  14.087   9.488   6.732 -0.1714  0.1729 -0.2540
  712POPI   C2B10306  14.223   9.182   7.021  0.0389  0.0598  0.2913
  712POPI   C3B10307  14.387   9.273   7.310 -0.2748 -0.1755  0.1341
  712POPI   C4B10308  14.408   9.094   7.762 -0.0394  0.2173  0.3264
  713POPI    C110309  10.999  10.816   5.620 -0.0456 -0.0569  0.0692
  713POPI    C210310  10.836  10.582   5.340 -0.0757  0.1055 -0.0507
  713POPI    C310311  11.008  10.927   5.236 -0.0196  0.1311  0.1233
  713POPI   PO410312  10.853  10.663   5.849  0.0327 -0.5195  0.0532
  713POPI   GL110313  10.787  10.759   6.316 -0.2939  0.1256 -0.0003
  713POPI   GL210314  10.506  10.491   6.323  0.2110  0.0340  0.0919
  713POPI   C1A10315  10.892  11.138   6.500 -0.0056 -0.1789 -0.4623
  713POPI   D2A10316  11.049  11.525   6.260  0.1888  0.2531 -0.3448
  713POPI   C3A10317  11.241  11.831   6.680 -0.2842  0.0749  0.1505
  713POPI   C4A10318  11.238  12.113   7.087  0.2620  0.1029 -0.0481
  713POPI   C1B10319  10.349  10.392   6.740 -0.2702  0.0569 -0.0225
  713POPI   C2B10320  10.526  10.679   7.089 -0.3482  0.1417  0.1125
  713POPI   C3B10321  10.765  10.786   7.445 -0.1050  0.1504  0.2292
  713POPI   C4B10322  11.108  10.658   7.770 -0.5051 -0.1099 -0.3476
  714POPI    C110323  17.693  12.509   5.188 -0.0433 -0.1678 -0.0919
  714POPI    C210324  17.307  12.613   5.190  0.0390  0.1453  0.0288
  714POPI    C310325  17.442  12.353   4.918 -0.2917 -0.1072  0.1003
  714POPI   PO410326  17.812  12.714   5.260 -0.1038  0.2068 -0.0810
  714POPI   GL110327  17.813  12.965   5.584 -0.1243 -0.0049  0.0572
  714POPI   GL210328  17.507  12.860   5.659  0.1442  0.3040 -0.1826
  714POPI   C1A10329  17.932  13.068   5.991 -0.0314 -0.4093 -0.3162
  714POPI   D2A10330  17.753  12.871   6.252  0.3473  0.0007  0.0503
  714POPI   C3A10331  17.605  12.962   6.793 -0.1973  0.0255  0.1500
  714POPI   C4A10332  17.629  12.899   7.259  0.0124 -0.1128 -0.2618
  714POPI   C1B10333  17.298  12.861   6.077  0.1741 -0.1187  0.1105
  714POPI   C2B10334  17.249  12.789   6.535 -0.0404 -0.1201  0.2520
  714POPI   C3B10335  17.241  12.675   7.029  0.3721  0.2024 -0.0540
  714POPI   C4B10336  16.969  12.344   7.184 -0.1553  0.1406 -0.0735
  715POPI    C110337  17.469   7.386   5.562  0.0062 -0.0589  0.3641
  715POPI    C210338  17.851   7.280   5.513  0.0640  0.3214 -0.0700
  715POPI    C310339  17.563   7.085   5.316  0.0313  0.0558  0.2325
  715POPI   PO410340  17.451   7.451   5.808 -0.0600 -0.0199 -0.0995
  715POPI   GL110341  17.334   7.369   6.170 -0.0019 -0.0262  0.0564
  715POPI   GL210342  17.532   7.197   6.262 -0.0125  0.0004  0.0215
  715POPI   C1A10343  17.092   7.295   6.448 -0.1191  0.1484 -0.0061
  715POPI   D2A10344  16.954   7.112   6.743 -0.2116 -0.0166  0.0315
  715POPI   C3A10345  17.051   7.358   7.073 -0.2182  0.3604 -0.2489
  715POPI   C4A10346  16.769   7.776   7.171  0.1384 -0.0176  0.0443
  715POPI   C1B10347  17.525   7.434   6.690  0.2610  0.2321 -0.0572
  715POPI   C2B10348  17.588   7.322   7.156  0.1800 -0.1899  0.0741
  715POPI   C3B10349  17.754   7.113   7.551 -0.0124 -0.0155  0.2663
  715POPI   C4B10350  17.795   7.237   8.006 -0.0053 -0.2398 -0.3313
  716POPI    C110351  12.459   2.773   6.124 -0.2235  0.0678 -0.3583
  716POPI    C210352  12.683   2.960   5.851  0.0649  0.0236 -0.1559
  716POPI    C310353  12.744   2.573   5.929 -0.1337 -0.0080 -0.1523
  716POPI   PO410354  12.196   2.938   6.097  0.0949 -0.2258  0.3742
  716POPI   GL110355  11.951   3.112   6.285 -0.1182  0.1064  0.2066
  716POPI   GL210356  11.636   2.970   6.268 -0.2592  0.1042  0.3434
  716POPI   C1A10357  11.817   3.409   6.560 -0.2543  0.0265  0.3849
  716POPI   D2A10358  11.529   3.455   7.020 -0.1952 -0.0027 -0.0409
  716POPI   C3A10359  11.587   3.541   7.447  0.1867  0.0015 -0.0176
  716POPI   C4A10360  11.412   3.418   7.764 -0.0164  0.1426 -0.0560
  716POPI   C1B10361  11.567   2.747   6.683 -0.2966  0.0066  0.0881
  716POPI   C2B10362  11.559   2.768   7.166  0.0175 -0.0953 -0.2272
  716POPI   C3B10363  11.447   2.937   7.556  0.2479  0.1460 -0.2372
  716POPI   C4B10364  11.590   2.721   8.029  0.0334  0.3315 -0.3090
  717POPI    C110365   7.322  15.687   4.897  0.0347 -0.0400  0.0177
  717POPI    C210366   7.462  15.709   4.523  0.1206 -0.0570  0.0487
  717POPI    C310367   7.622  15.937   4.810  0.0339 -0.0211  0.0690
  717POPI   PO410368   7.346  15.373   4.975 -0.0970 -0.0334  0.0894
  717POPI   GL110369   7.094  15.005   5.177  0.0557 -0.1693 -0.0502
  717POPI   GL210370   7.361  15.116   5.397  0.1602 -0.1964 -0.4416
  717POPI   C1A10371   6.839  15.062   5.539 -0.1160  0.1059  0.5280
  717POPI   D2A10372   6.699  15.122   5.957  0.1745 -0.2260  0.2720
  717POPI   C3A10373   6.877  15.070   6.368  0.1197 -0.0595  0.2019
  717POPI   C4A10374   7.209  14.870   6.638  0.1413 -0.0761 -0.0388
  717POPI   C1B10375   7.285  14.962   5.791  0.0624  0.0217 -0.0266
  717POPI   C2B10376   7.479  14.970   6.113  0.3466  0.0890 -0.1129
  717POPI   C3B10377   7.458  15.269   6.515 -0.0960  0.1998  0.1657
  717POPI   C4B10378   7.599  15.143   6.938  0.1126 -0.1162 -0.1887
  718POPI    C110379   2.096  18.341   5.192 -0.2726  0.0227 -0.2480
  718POPI    C210380   2.463  18.499   5.203 -0.2446 -0.0613  0.2950
  718POPI    C310381   2.278  18.449   4.852  0.2000  0.1169  0.0257
  718POPI   PO410382   2.048  18.416   5.443  0.0149  0.1676  0.1909
  718POPI   GL110383   2.068  18.039   5.624  0.0979 -0.0420 -0.0118
  718POPI   GL210384   2.399  18.194   5.721  0.2162  0.0341 -0.0152
  718POPI   C1A10385   2.138  17.838   5.950 -0.0504 -0.1723 -0.0447
  718POPI   D2A10386   2.262  17.888   6.357 -0.0262 -0.1315  0.1168
  718POPI   C3A10387   2.138  17.704   6.765 -0.2283 -0.2574 -0.0122
  718POPI   C4A10388   1.898  17.666   7.029 -0.1557  0.1148  0.3405
  718POPI   C1B10389   2.378  18.297   6.096 -0.3926 -0.0553  0.1516
  718POPI   C2B10390   2.403  18.327   6.583  0.1190  0.0528 -0.1920
  718POPI   C3B10391   2.578  18.368   6.969 -0.2037 -0.0777  0.2677
  718POPI   C4B10392   2.871  18.175   7.240 -0.0271  0.0726 -0.1775
  719POPI    C110393  11.296   7.282   5.269 -0.1640 -0.1187  0.0769
  719POPI    C210394  10.944   7.394   5.423 -0.1958 -0.1213  0.0067
  719POPI    C310395  11.016   7.442   5.033 -0.1492 -0.1968  0.0057
  719POPI   PO410396  11.418   7.368   5.608 -0.0837 -0.0117 -0.0760
  719POPI   GL110397  11.445   7.439   6.148 -0.0218 -0.2179  0.1711
  719POPI   GL210398  11.165   7.582   6.246  0.2147 -0.0031  0.1812
  719POPI   C1A10399  11.751   7.346   6.419  0.0424 -0.3095  0.0154
  719POPI   D2A10400  11.783   7.146   6.908 -0.3152  0.0075  0.3387
  719POPI   C3A10401  11.697   7.050   7.302  0.4114 -0.1849  0.3793
  719POPI   C4A10402  11.576   6.907   7.713 -0.0561  0.2007  0.1566
  719POPI   C1B10403  11.318   7.536   6.737  0.2241  0.4661 -0.2200
  719POPI   C2B10404  11.319   7.482   7.160  0.0619 -0.0261 -0.1630
  719POPI   C3B10405  11.678   7.559   7.298  0.0755  0.1361  0.0415
  719POPI   C4B10406  12.000   7.470   7.293 -0.0674 -0.0911  0.1543
  720POPI    C110407   9.565   8.356   5.517 -0.1083  0.1909  0.1684
  720POPI    C210408   9.907   8.231   5.350 -0.1696  0.0886  0.1183
  720POPI    C310409   9.629   8.411   5.126 -0.1898  0.0836  0.1395
  720POPI   PO410410   9.661   8.308   5.803  0.0083 -0.4151  0.2092
  720POPI   GL110411   9.751   8.583   6.090  0.0911 -0.0933 -0.1831
  720POPI   GL210412  10.073   8.619   6.115 -0.3240 -0.3039 -0.0755
  720POPI   C1A10413   9.705   8.542   6.589  0.0588 -0.1558 -0.0014
  720POPI   D2A10414   9.975   8.629   6.997  0.0123 -0.1563 -0.0516
  720POPI   C3A10415   9.922   8.444   7.402 -0.1258  0.0107 -0.0472
  720POPI   C4A10416   9.607   8.500   7.600  0.2084  0.1619  0.3755
  720POPI   C1B10417  10.287   8.689   6.541 -0.0371 -0.2464  0.0610
  720POPI   C2B10418  10.468   8.771   6.957  0.0924  0.1027  0.0851
  720POPI   C3B10419  10.307   8.844   7.418  0.2268  0.0617 -0.0283
  720POPI   C4B10420   9.914   8.865   7.661 -0.2166  0.0874  0.2267
  721POPI    C110421  16.945  14.621   5.612 -0.1113  0.0523  0.0439
  721POPI    C210422  16.758  14.278   5.524 -0.0575 -0.0100  0.1706
  721POPI    C310423  17.147  14.322   5.440 -0.0959  0.0695  0.0319
  721POPI   PO410424  16.716  14.753   5.632  0.1976  0.1920 -0.2035
  721POPI   GL110425  16.467  14.831   6.084 -0.1660  0.0397 -0.1306
  721POPI   GL210426  16.869  14.819   6.142  0.2240  0.2609  0.0299
  721POPI   C1A10427  16.510  15.132   6.447  0.0112 -0.0585 -0.1247
  721POPI   D2A10428  16.197  15.448   6.589  0.0844 -0.2880 -0.1560
  721POPI   C3A10429  16.096  15.572   6.964 -0.0585 -0.2109  0.0597
  721POPI   C4A10430  16.020  15.637   7.451 -0.4435 -0.0121 -0.0064
  721POPI   C1B10431  17.068  14.645   6.521 -0.1191 -0.0077 -0.1392
  721POPI   C2B10432  17.125  14.477   6.829 -0.0963  0.4034  0.0676
  721POPI   C3B10433  16.891  14.446   7.238 -0.0240  0.0952 -0.0747
  721POPI   C4B10434  16.507  14.239   7.302 -0.0236 -0.3589 -0.2458
  722POPI    C110435  16.666  17.514   5.969 -0.0414 -0.1424  0.2643
  722POPI    C210436  16.653  17.635   5.588  0.2290  0.0116  0.3014
  722POPI    C310437  16.433  17.322   5.706 -0.2068  0.2417  0.1234
  722POPI   PO410438  16.984  17.595   6.045  0.0636  0.1653 -0.1180
  722POPI   GL110439  17.250  17.756   6.298  0.2060  0.0359  0.2093
  722POPI   GL210440  17.258  17.493   6.465 -0.0528  0.2708  0.1768
  722POPI   C1A10441  17.612  17.725   6.591 -0.2654  0.0738  0.3444
  722POPI   D2A10442  17.805  17.891   6.898  0.0499 -0.1081 -0.1685
  722POPI   C3A10443  18.151  18.153   6.804  0.5851  0.0681  0.2009
  722POPI   C4A10444  18.656  18.149   6.801 -0.1450 -0.1125  0.0177
  722POPI   C1B10445  17.145  17.582   6.814  0.0149  0.4017 -0.0047
  722POPI   C2B10446  17.334  17.639   7.150  0.0697  0.0954 -0.1302
  722POPI   C3B10447  17.194  17.707   7.605  0.0078 -0.0639  0.1783
  722POPI   C4B10448  17.038  17.799   8.037  0.0591 -0.2388 -0.1260
  723POPI    C110449   4.776   5.391   5.871  0.4642  0.0665 -0.0038
  723POPI    C210450   4.967   5.057   5.759 -0.0704 -0.2065 -0.1356
  723POPI    C310451   4.945   5.369   5.509  0.0443 -0.2414 -0.1898
  723POPI   PO410452   4.564   5.332   5.934 -0.1584  0.1101  0.1075
  723POPI   GL110453   4.397   4.975   6.161  0.2402  0.2695 -0.1317
  723POPI   GL210454   4.581   5.146   6.417 -0.2435 -0.1719 -0.1240
  723POPI   C1A10455   4.537   4.640   6.487  0.0155  0.1597  0.3729
  723POPI   D2A10456   4.456   4.319   6.681 -0.2517 -0.2500 -0.0320
  723POPI   C3A10457   4.390   3.852   6.713  0.0559  0.3001  0.0579
  723POPI   C4A10458   4.483   3.518   6.469 -0.2386 -0.2905 -0.0393
  723POPI   C1B10459   4.513   5.191   6.741  0.0468 -0.0024  0.1714
  723POPI   C2B10460   4.260   5.202   7.080  0.2758  0.2101  0.1887
  723POPI   C3B10461   3.852   5.137   7.056  0.2670  0.2019  0.2130
  723POPI   C4B10462   3.636   4.730   7.171 -0.2190 -0.1389 -0.3179
  724POPI    C110463  17.763  16.273   5.607 -0.1055  0.0205  0.0542
  724POPI    C210464  17.419  16.465   5.536 -0.0792  0.0150 -0.0919
  724POPI    C310465  17.767  16.650   5.474 -0.0534 -0.0804 -0.2368
  724POPI   PO410466  17.616  16.069   5.796 -0.0922  0.0720 -0.2887
  724POPI   GL110467  17.647  16.035   6.226 -0.0800 -0.1436 -0.0665
  724POPI   GL210468  17.897  16.250   6.273 -0.2627  0.0306  0.2673
  724POPI   C1A10469  17.730  15.835   6.609 -0.0619  0.1120 -0.3059
  724POPI   D2A10470  17.502  15.472   6.551 -0.1431  0.4448 -0.0452
  724POPI   C3A10471  17.324  15.346   6.985 -0.1608  0.1974  0.3303
  724POPI   C4A10472  17.150  15.337   7.389 -0.0490  0.0341 -0.0618
  724POPI   C1B10473  18.160  16.248   6.637 -0.0904 -0.2228 -0.3227
  724POPI   C2B10474  18.054  16.101   7.110  0.0419  0.1208  0.0548
  724POPI   C3B10475  17.875  15.992   7.435  0.3754 -0.2334 -0.0289
  724POPI   C4B10476  17.888  15.783   7.924 -0.1575  0.1008  0.1253
  725POPI    C110477  16.129   1.466   5.471 -0.0963 -0.0089 -0.2588
  725POPI    C210478  15.991   1.834   5.398  0.0454  0.0799 -0.0888
  725POPI    C310479  15.871   1.526   5.172 -0.2445  0.1928 -0.0932
  725POPI   PO410480  16.180   1.415   5.665  0.2714 -0.1928  0.0439
  725POPI   GL110481  16.344   1.482   6.000 -0.0954  0.0992  0.1041
  725POPI   GL210482  16.495   1.166   6.136 -0.1356 -0.3447 -0.0532
  725POPI   C1A10483  16.080   1.583   6.345 -0.1964  0.1044 -0.0611
  725POPI   D2A10484  15.730   1.501   6.632  0.0339  0.1358  0.3122
  725POPI   C3A10485  15.758   1.647   7.086 -0.0907 -0.1035  0.2474
  725POPI   C4A10486  15.835   1.726   7.469  0.0611 -0.0465 -0.0039
  725POPI   C1B10487  16.646   0.974   6.520 -0.0223  0.0385  0.0524
  725POPI   C2B10488  16.663   0.717   6.866  0.1962 -0.1809 -0.2111
  725POPI   C3B10489  16.938   0.818   7.184 -0.2575  0.0293  0.2072
  725POPI   C4B10490  17.219   0.664   7.489 -0.0119 -0.0356 -0.3165
  726POPI    C110491   1.154  11.831   4.928 -0.1074  0.0716  0.0574
  726POPI    C210492   0.841  11.831   4.679 -0.1107 -0.2586  0.0574
  726POPI    C310493   1.197  11.700   4.552 -0.0178 -0.0638  0.1141
  726POPI   PO410494   1.016  11.968   5.188 -0.1351  0.3100 -0.1351
  726POPI   GL110495   1.132  12.016   5.627 -0.0356  0.1467  0.0056
  726POPI   GL210496   1.502  12.097   5.721 -0.2365  0.1155  0.1170
  726POPI   C1A10497   1.070  12.282   6.007  0.0714  0.1738 -0.3905
  726POPI   D2A10498   0.967  12.497   6.393  0.2029  0.1321  0.0488
  726POPI   C3A10499   1.135  12.821   6.574 -0.0528 -0.1157 -0.0307
  726POPI   C4A10500   1.226  13.166   6.370 -0.0404  0.1997 -0.3168
  726POPI   C1B10501   1.551  12.350   5.974 -0.1129  0.2428  0.1589
  726POPI   C2B10502   1.577  12.514   6.317  0.0248  0.1698 -0.0497
  726POPI   C3B10503   1.538  12.535   6.669  0.1283  0.0348 -0.6383
  726POPI   C4B10504   1.816  12.388   7.071  0.5236  0.2688 -0.0299
  727POPI    C110505  17.519   3.948   5.269  0.1161 -0.1232  0.1664
  727POPI    C210506  17.621   4.266   5.490 -0.2144  0.1099 -0.0074
  727POPI    C310507  17.720   4.251   5.103 -0.0308 -0.0906  0.0455
  727POPI   PO410508  17.624   3.702   5.498  0.2424 -0.1290 -0.1859
  727POPI   GL110509  17.718   3.839   5.848  0.0534 -0.1912 -0.0461
  727POPI   GL210510  17.786   3.476   6.071 -0.0800  0.3297 -0.1103
  727POPI   C1A10511  18.083   3.940   6.232  0.4247  0.1587  0.3656
  727POPI   D2A10512  18.476   3.897   6.567 -0.2819 -0.3976  0.1276
  727POPI   C3A10513  18.538   4.076   7.113  0.2433  0.2456  0.0096
  727POPI   C4A10514  18.750   4.446   7.402 -0.1452 -0.1039  0.0983
  727POPI   C1B10515  17.988   3.421   6.477  0.0115 -0.0119  0.0477
  727POPI   C2B10516  18.125   3.085   6.715 -0.0559  0.3494 -0.4624
  727POPI   C3B10517  18.168   3.148   7.174 -0.1501  0.2450 -0.1391
  727POPI   C4B10518  17.885   3.100   7.534  0.1884  0.0274  0.2844
  728POPI    C110519   5.804   3.197   5.497 -0.1357  0.0341  0.0244
  728POPI    C210520   6.057   3.198   5.187  0.0152 -0.0746  0.1455
  728POPI    C310521   5.957   3.542   5.364  0.1017 -0.0338  0.1157
  728POPI   PO410522   5.964   2.987   5.648  0.1732  0.2162  0.1943
  728POPI   GL110523   5.851   2.732   5.969  0.0088  0.1653 -0.2395
  728POPI   GL210524   6.160   2.640   6.290  0.0073  0.1220 -0.0016
  728POPI   C1A10525   5.524   2.847   6.235  0.0588  0.0461 -0.1994
  728POPI   D2A10526   5.253   3.229   6.364 -0.1611  0.0268  0.1156
  728POPI   C3A10527   5.260   3.449   6.829  0.0927  0.0979 -0.0340
  728POPI   C4A10528   5.411   3.264   7.174 -0.1539  0.1295 -0.1151
  728POPI   C1B10529   5.886   2.672   6.639  0.4407 -0.1447  0.2161
  728POPI   C2B10530   5.778   2.776   7.033 -0.4398  0.1302 -0.1235
  728POPI   C3B10531   5.790   2.907   7.509  0.2470  0.0290  0.0916
  728POPI   C4B10532   5.529   2.835   7.930  0.2182  0.0827 -0.4019
  729POPI    C110533   9.771   5.995   5.387  0.0056 -0.1300  0.0125
  729POPI    C210534   9.820   5.676   5.624 -0.1742 -0.1737 -0.0079
  729POPI    C310535   9.640   5.636   5.269 -0.1094 -0.0670 -0.0532
  729POPI   PO410536   9.732   6.195   5.618 -0.2309  0.3060 -0.1459
  729POPI   GL110537   9.727   6.213   5.982 -0.2439 -0.3066  0.2401
  729POPI   GL210538   9.439   6.206   6.167 -0.0662 -0.0616  0.0993
  729POPI   C1A10539   9.888   6.165   6.347 -0.0946  0.1684 -0.3368
  729POPI   D2A10540   9.779   6.505   6.440 -0.0103  0.1353  0.1089
  729POPI   C3A10541   9.744   6.557   6.883  0.0680 -0.0776 -0.0816
  729POPI   C4A10542   9.666   6.394   7.293  0.1021  0.0537  0.1939
  729POPI   C1B10543   9.505   6.081   6.573 -0.0536  0.0844 -0.0225
  729POPI   C2B10544   9.391   6.073   6.991 -0.3540  0.1761  0.0055
  729POPI   C3B10545   9.340   5.994   7.460  0.3126 -0.0481  0.1462
  729POPI   C4B10546   9.248   5.610   7.680 -0.1312  0.2318  0.0222
  730POPI    C110547   2.272   7.650   5.499 -0.3391 -0.2213  0.0674
  730POPI    C210548   2.350   7.913   5.207  0.1092 -0.2798  0.1273
  730POPI    C310549   1.972   7.809   5.288 -0.0467  0.0538 -0.1506
  730POPI   PO410550   2.375   7.673   5.661  0.2941  0.0845  0.0010
  730POPI   GL110551   2.702   7.673   5.955  0.1984  0.2692 -0.2631
  730POPI   GL210552   2.379   7.892   6.077 -0.0875  0.2138 -0.0148
  730POPI   C1A10553   2.812   7.898   6.299  0.1456 -0.0405  0.1005
  730POPI   D2A10554   2.797   7.872   6.860  0.2248  0.1173  0.1056
  730POPI   C3A10555   2.671   7.705   7.234 -0.1198 -0.0836  0.1718
  730POPI   C4A10556   2.330   7.531   7.456 -0.3431 -0.3022  0.3534
  730POPI   C1B10557   2.218   7.638   6.460 -0.0800 -0.1165  0.3232
  730POPI   C2B10558   2.280   7.621   6.882 -0.0484 -0.0320 -0.0678
  730POPI   C3B10559   2.011   7.725   7.149 -0.1861  0.0884  0.0415
  730POPI   C4B10560   1.813   7.618   7.517  0.1231 -0.2339 -0.0722
  731POPI    C110561   9.588  13.211   5.434 -0.1540  0.0569 -0.0552
  731POPI    C210562   9.712  12.886   5.631 -0.2901 -0.0376 -0.1239
  731POPI    C310563   9.618  12.861   5.243 -0.1604  0.1165 -0.1660
  731POPI   PO410564   9.384  13.279   5.514  0.0069  0.2165  0.0631
  731POPI   GL110565   9.113  13.543   5.859  0.0148 -0.0567  0.2177
  731POPI   GL210566   9.316  13.723   5.966 -0.1719 -0.1341  0.0872
  731POPI   C1A10567   8.971  13.443   6.253  0.0081 -0.3383 -0.0337
  731POPI   D2A10568   8.612  13.270   6.485 -0.1339 -0.0774 -0.0865
  731POPI   C3A10569   8.655  13.241   6.977 -0.1669  0.1164 -0.1803
  731POPI   C4A10570   9.082  13.393   7.218 -0.0126  0.2604 -0.1613
  731POPI   C1B10571   9.319  13.800   6.440 -0.0116 -0.0905  0.1763
  731POPI   C2B10572   9.370  13.973   6.805 -0.0163  0.1056 -0.0518
  731POPI   C3B10573   9.229  14.053   7.266 -0.1438  0.1038 -0.0232
  731POPI   C4B10574   9.288  14.468   7.383 -0.0258  0.1200 -0.3778
  732POPI    C110575  14.733  12.470   5.457  0.0175  0.1655 -0.3185
  732POPI    C210576  15.056  12.459   5.221  0.2692 -0.0765  0.0254
  732POPI    C310577  14.917  12.122   5.385  0.0489  0.0762  0.1588
  732POPI   PO410578  14.814  12.647   5.632  0.0644  0.3141 -0.0463
  732POPI   GL110579  14.909  12.659   6.023  0.3616  0.1064 -0.0596
  732POPI   GL210580  14.590  12.775   6.144 -0.0257  0.1375 -0.0885
  732POPI   C1A10581  15.220  12.564   6.196  0.1887  0.1738 -0.0226
  732POPI   D2A10582  15.430  12.154   6.429 -0.3862  0.2260 -0.0374
  732POPI   C3A10583  15.438  12.237   6.873  0.0419 -0.2322  0.1295
  732POPI   C4A10584  15.400  12.443   7.127 -0.1666 -0.2969 -0.5062
  732POPI   C1B10585  14.447  12.819   6.551  0.1289  0.1608  0.1451
  732POPI   C2B10586  14.485  12.954   6.852 -0.1117  0.3998  0.4150
  732POPI   C3B10587  14.539  12.894   7.207  0.2508  0.3554 -0.0443
  732POPI   C4B10588  14.591  12.810   7.608 -0.3318  0.5780 -0.1460
  733POPI    C110589   5.514   4.667   5.511 -0.1930  0.2466  0.0306
  733POPI    C210590   5.734   4.424   5.282 -0.1118 -0.0190  0.3817
  733POPI    C310591   5.748   4.819   5.225  0.0256 -0.0700  0.0355
  733POPI   PO410592   5.568   4.610   5.765 -0.1764  0.1770 -0.2578
  733POPI   GL110593   5.299   4.707   6.076 -0.1906 -0.0653 -0.0086
  733POPI   GL210594   4.957   4.689   6.080  0.1079  0.0196  0.1283
  733POPI   C1A10595   5.541   4.733   6.484 -0.0117 -0.0556 -0.0918
  733POPI   D2A10596   5.511   4.586   6.886 -0.1207 -0.0354 -0.1063
  733POPI   C3A10597   5.137   4.812   7.239 -0.1956 -0.1256 -0.0200
  733POPI   C4A10598   5.053   5.182   7.642  0.2735  0.0610 -0.2634
  733POPI   C1B10599   5.040   4.794   6.548  0.0110 -0.1460 -0.2377
  733POPI   C2B10600   4.868   4.784   6.826 -0.1370 -0.3667  0.2555
  733POPI   C3B10601   4.525   4.766   7.065 -0.3269  0.2592  0.1839
  733POPI   C4B10602   4.195   4.687   6.914  0.1704 -0.2133 -0.0715
  734POPI    C110603  15.535   1.920   5.550  0.2790 -0.0216 -0.0664
  734POPI    C210604  15.234   2.110   5.368 -0.0401 -0.4121  0.0379
  734POPI    C310605  15.449   1.838   5.168  0.0880 -0.3091  0.0343
  734POPI   PO410606  15.457   1.882   5.908  0.2560  0.1083  0.3613
  734POPI   GL110607  15.600   1.739   6.198 -0.0011  0.2536 -0.2258
  734POPI   GL210608  15.423   1.459   6.180  0.0425 -0.0605  0.2926
  734POPI   C1A10609  15.496   1.900   6.704  0.0356 -0.1216  0.4187
  734POPI   D2A10610  15.439   1.998   7.200 -0.2069 -0.1442  0.1736
  734POPI   C3A10611  15.384   2.400   7.381  0.2149 -0.0037  0.0169
  734POPI   C4A10612  15.174   2.661   7.136  0.3502  0.1190  0.0112
  734POPI   C1B10613  15.167   1.425   6.543 -0.0755 -0.0753  0.2308
  734POPI   C2B10614  15.281   1.547   6.965 -0.0438 -0.0845  0.0185
  734POPI   C3B10615  15.357   1.479   7.345  0.1327  0.1620 -0.0440
  734POPI   C4B10616  15.530   1.551   7.778  0.0029  0.1048 -0.1791
  735POPI    C110617   5.026  13.811   5.154  0.0822 -0.1176 -0.0011
  735POPI    C210618   5.076  13.904   4.768  0.2353 -0.0411  0.0361
  735POPI    C310619   5.257  13.582   4.921  0.2026 -0.0519  0.0525
  735POPI   PO410620   4.981  14.069   5.374  0.1975  0.2003  0.4701
  735POPI   GL110621   5.065  13.962   5.783 -0.0181  0.0789 -0.1146
  735POPI   GL210622   4.758  13.845   5.927  0.1272  0.0945 -0.0909
  735POPI   C1A10623   5.172  13.847   6.221 -0.5041 -0.2757 -0.3754
  735POPI   D2A10624   5.231  13.916   6.619  0.2832  0.0831 -0.0820
  735POPI   C3A10625   5.264  13.835   7.084  0.1034 -0.3042  0.0680
  735POPI   C4A10626   5.626  13.777   7.309  0.1142  0.0823  0.1212
  735POPI   C1B10627   4.630  14.026   6.330 -0.2226  0.0091  0.1961
  735POPI   C2B10628   4.727  13.795   6.704  0.0135 -0.1635  0.3773
  735POPI   C3B10629   4.873  13.436   6.885 -0.2689  0.0994  0.0254
  735POPI   C4B10630   4.967  13.130   7.201  0.0347 -0.1934 -0.0105
  736POPI    C110631   1.687  18.054   5.283  0.0682 -0.0719 -0.1321
  736POPI    C210632   1.615  17.771   5.009 -0.0717  0.0256 -0.1970
  736POPI    C310633   1.732  18.136   4.894  0.1538 -0.0180 -0.1111
  736POPI   PO410634   1.471  18.012   5.463 -0.0346  0.0476 -0.4464
  736POPI   GL110635   1.314  17.797   5.854 -0.0576 -0.0393  0.2814
  736POPI   GL210636   1.183  17.417   5.718  0.1981 -0.0401 -0.1551
  736POPI   C1A10637   1.377  17.934   6.256  0.2064  0.4371 -0.2123
  736POPI   D2A10638   1.526  17.858   6.722  0.1541  0.1423  0.0933
  736POPI   C3A10639   1.346  17.791   7.096  0.1651 -0.1006  0.0070
  736POPI   C4A10640   1.556  17.628   7.437 -0.0550 -0.0307  0.3465
  736POPI   C1B10641   1.350  17.352   6.118 -0.2625 -0.1191 -0.3050
  736POPI   C2B10642   1.438  17.326   6.635  0.2021 -0.0310 -0.3022
  736POPI   C3B10643   1.422  17.161   6.965 -0.1995 -0.0531  0.3295
  736POPI   C4B10644   1.348  17.031   7.405 -0.1927  0.1326  0.0522
  737POPI    C110645  11.525  15.544   5.875 -0.3816 -0.1869 -0.0219
  737POPI    C210646  11.238  15.798   5.758 -0.0749  0.0839 -0.2038
  737POPI    C310647  11.496  15.905   6.045 -0.1589 -0.1621 -0.0331
  737POPI   PO410648  11.383  15.291   5.945  0.0740 -0.2669  0.2490
  737POPI   GL110649  11.135  15.033   6.093  0.1848  0.1186  0.0754
  737POPI   GL210650  11.059  15.286   6.364 -0.3185  0.1437 -0.0009
  737POPI   C1A10651  10.857  14.688   6.197  0.0079 -0.2797  0.2867
  737POPI   D2A10652  10.621  14.465   6.436 -0.0617  0.2216  0.0623
  737POPI   C3A10653  10.844  14.707   6.722 -0.1973  0.5490  0.0899
  737POPI   C4A10654  10.790  14.926   6.971 -0.0760  0.1162 -0.4036
  737POPI   C1B10655  10.823  15.356   6.700  0.2245 -0.1002  0.1233
  737POPI   C2B10656  10.943  15.437   7.035  0.1108 -0.2425  0.2056
  737POPI   C3B10657  11.182  15.708   7.289  0.4000  0.0872 -0.1928
  737POPI   C4B10658  11.310  15.941   7.541 -0.0153 -0.0862 -0.1019
  738POPI    C110659  16.114  11.636   5.296  0.1612  0.1230  0.0193
  738POPI    C210660  16.433  11.536   5.516  0.0574 -0.1792  0.0377
  738POPI    C310661  16.422  11.446   5.126  0.1571  0.1792 -0.0521
  738POPI   PO410662  15.893  11.517   5.450  0.0141  0.1172 -0.0142
  738POPI   GL110663  15.939  11.264   5.864 -0.3988 -0.3658  0.0027
  738POPI   GL210664  16.056  11.029   5.955  0.0261  0.0612  0.1949
  738POPI   C1A10665  16.135  11.576   6.091  0.2016 -0.2050  0.2903
  738POPI   D2A10666  16.359  12.030   6.197 -0.0557  0.0517 -0.1854
  738POPI   C3A10667  16.754  12.036   6.243 -0.0547  0.0558 -0.0931
  738POPI   C4A10668  17.216  12.014   6.372 -0.2267 -0.2803  0.3107
  738POPI   C1B10669  15.872  11.179   6.390  0.1653 -0.1454  0.3907
  738POPI   C2B10670  16.134  11.343   6.675  0.2228  0.0611  0.0132
  738POPI   C3B10671  16.202  11.769   6.611  0.0481 -0.3046  0.0018
  738POPI   C4B10672  16.549  12.110   6.674 -0.0695 -0.3568  0.0828
  739POPI    C110673   5.428   5.518   5.605  0.1319 -0.0295  0.0543
  739POPI    C210674   5.385   5.144   5.469  0.1666 -0.0401  0.0724
  739POPI    C310675   5.749   5.312   5.483  0.1526 -0.0099  0.0755
  739POPI   PO410676   5.266   5.489   5.849 -0.1245 -0.1272  0.0341
  739POPI   GL110677   5.330   5.454   6.248  0.3723 -0.0906 -0.0219
  739POPI   GL210678   5.066   5.172   6.224  0.0551 -0.2208  0.2190
  739POPI   C1A10679   5.468   5.242   6.508 -0.2877 -0.0797  0.0761
  739POPI   D2A10680   5.378   5.110   6.888  0.1967 -0.1928 -0.1703
  739POPI   C3A10681   5.589   5.165   7.174  0.0187 -0.2610  0.3538
  739POPI   C4A10682   5.544   4.981   7.519 -0.1470 -0.2185  0.1170
  739POPI   C1B10683   5.025   5.355   6.715 -0.2429 -0.2688 -0.1104
  739POPI   C2B10684   4.754   5.291   7.120  0.2268 -0.0258  0.1168
  739POPI   C3B10685   4.582   5.173   7.492  0.2645  0.2774 -0.0204
  739POPI   C4B10686   4.415   5.139   7.879 -0.0791 -0.0864  0.2508
  740POPI    C110687  12.999   1.344   5.830 -0.0063 -0.0590  0.1882
  740POPI    C210688  13.045   1.734   5.751 -0.4673 -0.0051  0.1619
  740POPI    C310689  12.948   1.480   5.457 -0.5664 -0.0722  0.2515
  740POPI   PO410690  13.111   1.326   6.170  0.4008 -0.2238  0.4305
  740POPI   GL110691  13.136   1.274   6.491 -0.0296  0.0844 -0.3731
  740POPI   GL210692  12.903   1.423   6.646  0.0580 -0.0207  0.1332
  740POPI   C1A10693  13.407   1.227   6.817 -0.1210 -0.2482  0.1370
  740POPI   D2A10694  13.406   1.285   7.326  0.1163 -0.2903 -0.2206
  740POPI   C3A10695  13.090   1.227   7.639 -0.1269 -0.0686 -0.0761
  740POPI   C4A10696  12.898   1.507   7.866 -0.1561 -0.0208  0.1751
  740POPI   C1B10697  12.938   1.228   7.105  0.2292 -0.0061 -0.0975
  740POPI   C2B10698  12.685   0.926   7.410 -0.0042 -0.1599 -0.0060
  740POPI   C3B10699  12.340   0.851   7.569  0.1674 -0.0124 -0.1759
  740POPI   C4B10700  12.021   0.710   7.726  0.0575 -0.0387 -0.0355
  741POPI    C110701   8.653   7.397   5.612  0.2025 -0.0652  0.0958
  741POPI    C210702   8.421   7.586   5.877  0.2486 -0.3517  0.3462
  741POPI    C310703   8.261   7.437   5.542  0.1833 -0.0192  0.2263
  741POPI   PO410704   8.706   7.084   5.685  0.2350 -0.2013  0.0326
  741POPI   GL110705   9.056   6.852   5.950 -0.2474  0.0134  0.0789
  741POPI   GL210706   9.183   6.615   6.124  0.0846 -0.1337  0.1614
  741POPI   C1A10707   8.852   6.854   6.449  0.0592 -0.0069  0.0348
  741POPI   D2A10708   8.752   6.715   6.894 -0.0110  0.0615  0.2663
  741POPI   C3A10709   8.635   6.821   7.301  0.2717  0.0883  0.1692
  741POPI   C4A10710   8.713   7.066   7.697  0.2510  0.1909 -0.0809
  741POPI   C1B10711   9.111   6.475   6.628  0.1438 -0.3269 -0.2852
  741POPI   C2B10712   9.159   6.511   7.063 -0.1087  0.1958 -0.0079
  741POPI   C3B10713   9.137   6.429   7.467 -0.0259 -0.1295 -0.3570
  741POPI   C4B10714   9.154   6.648   7.877 -0.0683  0.2014  0.1200
  742POPS   CNO10715  18.229  11.870   5.176 -0.4407  0.0981 -0.0351
  742POPS   PO410716  18.223  11.477   5.320  0.0740  0.2333 -0.1200
  742POPS   GL110717  18.310  11.828   5.673 -0.1873  0.1618  0.0100
  742POPS   GL210718  18.388  11.694   6.039  0.1168  0.2205  0.0705
  742POPS   C1A10719  18.055  12.051   5.970 -0.1980  0.0739  0.0231
  742POPS   D2A10720  18.002  12.384   6.260 -0.1623 -0.2503  0.2179
  742POPS   C3A10721  18.082  12.608   6.593 -0.0588 -0.1681 -0.1586
  742POPS   C4A10722  18.067  12.890   7.025 -0.1853 -0.0764  0.0623
  742POPS   C1B10723  18.404  11.661   6.410  0.0055 -0.1402  0.0837
  742POPS   C2B10724  18.062  11.834   6.777  0.0200  0.2658  0.1681
  742POPS   C3B10725  17.931  12.140   6.991 -0.0139 -0.0814 -0.0535
  742POPS   C4B10726  17.863  12.474   7.284  0.1527 -0.2672  0.0041
  743POPS   CNO10727  16.917  13.822   5.320  0.0577 -0.1874 -0.1781
  743POPS   PO410728  16.781  13.464   5.338 -0.2312  0.1469 -0.3183
  743POPS   GL110729  16.725  13.441   5.752  0.0729 -0.0371 -0.1227
  743POPS   GL210730  16.572  13.317   5.863  0.0213 -0.1171 -0.2693
  743POPS   C1A10731  17.023  13.461   6.047 -0.0119  0.0898  0.0094
  743POPS   D2A10732  17.051  13.210   6.383 -0.4148 -0.0595  0.0552
  743POPS   C3A10733  16.910  13.014   6.792  0.0132  0.2704  0.1231
  743POPS   C4A10734  16.812  12.860   7.106  0.1103 -0.1350  0.0335
  743POPS   C1B10735  16.182  13.235   6.008 -0.3264 -0.0447 -0.0418
  743POPS   C2B10736  15.769  13.059   6.222  0.0756 -0.4466  0.0862
  743POPS   C3B10737  15.298  13.028   6.284  0.1788  0.0885  0.2335
  743POPS   C4B10738  14.956  12.931   6.483 -0.1286 -0.3584 -0.0232
  744POPS   CNO10739  10.423  11.731   5.510  0.1905 -0.0001  0.2090
  744POPS   PO410740  10.697  11.629   5.768 -0.1107 -0.5299  0.0967
  744POPS   GL110741  10.489  11.656   6.187  0.0189 -0.3848 -0.0887
  744POPS   GL210742  10.214  11.806   6.070  0.0017  0.1359  0.0517
  744POPS   C1A10743  10.447  11.533   6.643 -0.1178 -0.1798 -0.0817
  744POPS   D2A10744  10.804  11.620   6.832 -0.0684  0.3407 -0.0923
  744POPS   C3A10745  10.912  11.683   7.240  0.1912 -0.1139 -0.0225
  744POPS   C4A10746  10.864  11.753   7.622 -0.1477  0.0739  0.1247
  744POPS   C1B10747  10.239  11.997   6.485  0.0770  0.0656 -0.1585
  744POPS   C2B10748  10.297  11.991   6.910  0.0822  0.0638  0.1763
  744POPS   C3B10749  10.267  12.260   7.126  0.0929  0.2007  0.0555
  744POPS   C4B10750  10.060  12.428   7.479  0.0415 -0.3294  0.0134
  745POPS   CNO10751  16.292  18.344   6.007  0.1661  0.3528  0.3340
  745POPS   PO410752  16.047  18.583   5.865  0.2424 -0.3926  0.2629
  745POPS   GL110753  15.809  18.494   6.320 -0.4156 -0.1538 -0.3149
  745POPS   GL210754  16.004  18.275   6.447  0.1301  0.0705  0.2006
  745POPS   C1A10755  15.570  18.567   6.663  0.0420  0.0001  0.0815
  745POPS   D2A10756  15.584  18.785   7.057  0.0514  0.2041 -0.1843
  745POPS   C3A10757  15.241  18.618   7.264 -0.1003  0.2725  0.1364
  745POPS   C4A10758  15.072  18.406   7.599  0.0480 -0.0476  0.1616
  745POPS   C1B10759  16.023  18.459   6.878 -0.0819  0.1116  0.1025
  745POPS   C2B10760  16.067  18.615   7.249 -0.1154 -0.3406  0.0057
  745POPS   C3B10761  15.778  18.817   7.558 -0.2571 -0.1735 -0.0808
  745POPS   C4B10762  15.496  18.646   7.822  0.0393 -0.1087 -0.0791
  746POPS   CNO10763   3.788  10.037   5.192 -0.3222  0.0378 -0.0335
  746POPS   PO410764   3.632  10.114   5.611 -0.3498 -0.1733 -0.2832
  746POPS   GL110765   3.557  10.050   6.042  0.3218  0.2402  0.3435
  746POPS   GL210766   3.693   9.892   6.265  0.0300  0.4945  0.3001
  746POPS   C1A10767   3.265  10.091   6.447  0.1779 -0.0556  0.4240
  746POPS   D2A10768   3.027  10.136   6.774 -0.0483  0.1283  0.0406
  746POPS   C3A10769   3.211  10.005   7.237 -0.0832  0.0537  0.0355
  746POPS   C4A10770   3.625   9.898   7.372 -0.4318  0.1520 -0.0280
  746POPS   C1B10771   3.921   9.538   6.334  0.0116  0.1777  0.2272
  746POPS   C2B10772   3.899   9.084   6.557  0.1537  0.0656  0.1321
  746POPS   C3B10773   4.006   8.988   6.948  0.1833  0.0579  0.1550
  746POPS   C4B10774   3.842   9.281   7.303 -0.0103 -0.0822  0.2945
  747POPS   CNO10775   4.587  10.098   5.494 -0.0442 -0.0539 -0.1163
  747POPS   PO410776   4.428  10.222   5.856  0.0228 -0.2239 -0.3632
  747POPS   GL110777   4.387  10.176   6.261  0.1075 -0.0289  0.4334
  747POPS   GL210778   4.239   9.910   6.220  0.0849 -0.0275 -0.2405
  747POPS   C1A10779   4.534  10.399   6.577  0.1402  0.2714  0.1368
  747POPS   D2A10780   4.290  10.505   6.927  0.4307 -0.1554 -0.0475
  747POPS   C3A10781   4.417  10.752   7.363  0.1602  0.0006  0.3793
  747POPS   C4A10782   4.361  11.152   7.476  0.0740 -0.1223 -0.0433
  747POPS   C1B10783   3.999   9.984   6.605 -0.2943  0.2086 -0.2094
  747POPS   C2B10784   3.904  10.166   7.042  0.1035  0.1781  0.1192
  747POPS   C3B10785   4.091   9.804   7.349 -0.0098 -0.2195  0.0125
  747POPS   C4B10786   4.270  10.009   7.818  0.0854 -0.1766  0.0458
  748POPS   CNO10787  10.609   8.444   5.379 -0.0375 -0.2916 -0.1342
  748POPS   PO410788  10.555   8.628   5.724  0.0433  0.0644  0.1232
  748POPS   GL110789  10.585   8.469   6.137  0.0093 -0.0504 -0.0009
  748POPS   GL210790  10.373   8.234   6.246  0.0443  0.0297  0.4570
  748POPS   C1A10791  10.784   8.606   6.511  0.3424 -0.1560 -0.0215
  748POPS   D2A10792  10.932   8.545   6.920 -0.0112 -0.0886  0.0971
  748POPS   C3A10793  10.785   8.689   7.340 -0.0833  0.2903  0.5128
  748POPS   C4A10794  10.739   9.005   7.665 -0.3186 -0.1988  0.1571
  748POPS   C1B10795  10.446   8.228   6.734  0.1807 -0.1022  0.0914
  748POPS   C2B10796  10.439   8.306   7.154 -0.3163 -0.1467 -0.1300
  748POPS   C3B10797  10.471   8.395   7.566  0.1567  0.1204 -0.0047
  748POPS   C4B10798  10.758   8.307   7.753 -0.0386 -0.0370  0.0538
  749POPS   CNO10799  14.541   7.974   5.678 -0.1142  0.1991 -0.2565
  749POPS   PO410800  14.119   8.039   5.808  0.1611  0.4089 -0.0379
  749POPS   GL110801  14.234   8.152   6.143  0.0478  0.0783  0.0686
  749POPS   GL210802  14.203   8.522   6.218 -0.1806  0.3250 -0.0697
  749POPS   C1A10803  14.559   8.157   6.370 -0.0780  0.1290  0.1139
  749POPS   D2A10804  14.908   7.971   6.377  0.0658  0.0830 -0.0113
  749POPS   C3A10805  14.971   7.859   6.781  0.2516 -0.2557 -0.1456
  749POPS   C4A10806  14.922   7.634   7.117  0.0608 -0.0339 -0.1887
  749POPS   C1B10807  14.426   8.603   6.637  0.1397  0.0180 -0.0698
  749POPS   C2B10808  14.515   8.810   6.970  0.1089 -0.4263 -0.0437
  749POPS   C3B10809  14.609   8.696   7.346  0.0943 -0.1953  0.2109
  749POPS   C4B10810  14.757   8.674   7.727 -0.1006  0.2397  0.0282
  750POPS   CNO10811   5.671  15.082   5.408 -0.1739  0.0094  0.1911
  750POPS   PO410812   6.039  15.310   5.044 -0.0078  0.1241 -0.0073
  750POPS   GL110813   6.185  15.336   5.429  0.0170  0.3138 -0.5300
  750POPS   GL210814   6.488  15.417   5.557 -0.0041 -0.1666  0.2100
  750POPS   C1A10815   6.059  15.272   5.799  0.0474 -0.1661  0.0615
  750POPS   D2A10816   5.974  15.233   6.127 -0.0876 -0.0158 -0.1553
  750POPS   C3A10817   5.826  15.448   6.511 -0.2222  0.2020  0.0062
  750POPS   C4A10818   5.384  15.551   6.629 -0.1692  0.3717 -0.4191
  750POPS   C1B10819   6.378  15.621   5.986  0.0489 -0.0692  0.0968
  750POPS   C2B10820   6.447  15.594   6.407  0.3507  0.3275  0.0337
  750POPS   C3B10821   6.313  15.817   6.744 -0.0526 -0.2178 -0.0181
  750POPS   C4B10822   6.410  16.099   7.047  0.0127  0.3589  0.2177
  751POPS   CNO10823  15.378   5.216   5.551 -0.2870 -0.2151  0.0116
  751POPS   PO410824  15.469   5.619   5.601 -0.1057 -0.1959  0.0405
  751POPS   GL110825  15.239   5.646   6.008  0.1349  0.3550 -0.1621
  751POPS   GL210826  15.458   5.782   6.214  0.0608 -0.3525  0.0786
  751POPS   C1A10827  14.894   5.776   6.326 -0.1248  0.3649  0.0557
  751POPS   D2A10828  14.650   5.978   6.616  0.1381  0.1353 -0.2142
  751POPS   C3A10829  14.681   5.825   6.968  0.0396 -0.0292 -0.0896
  751POPS   C4A10830  14.877   6.119   7.329  0.1935 -0.4635 -0.1072
  751POPS   C1B10831  15.492   5.860   6.638  0.0620 -0.0827 -0.1159
  751POPS   C2B10832  15.619   5.489   6.886  0.0564  0.0312 -0.0823
  751POPS   C3B10833  15.533   5.332   7.274 -0.2254  0.2193 -0.1340
  751POPS   C4B10834  15.244   5.203   7.430 -0.1158  0.0934 -0.2305
  752POPS   CNO10835   4.293   0.792   4.965  0.1140  0.2185  0.2816
  752POPS   PO410836   3.901   0.602   5.064  0.1241 -0.1989  0.2159
  752POPS   GL110837   4.045   0.362   5.364 -0.1895  0.1534 -0.4005
  752POPS   GL210838   3.905   0.061   5.302  0.0620 -0.2531 -0.0144
  752POPS   C1A10839   4.235   0.474   5.696 -0.1509  0.2692  0.0498
  752POPS   D2A10840   4.612   0.309   5.939  0.0111  0.0299  0.2889
  752POPS   C3A10841   4.735   0.240   6.358  0.0430  0.0494 -0.7701
  752POPS   C4A10842   4.888   0.212   6.796  0.0160  0.0531  0.0291
  752POPS   C1B10843   3.737  -0.044   5.686 -0.2085 -0.1869 -0.1912
  752POPS   C2B10844   3.758  -0.003   6.190  0.1305  0.2535  0.2016
  752POPS   C3B10845   3.893   0.162   6.622 -0.3463 -0.2118  0.1245
  752POPS   C4B10846   4.101   0.021   7.046  0.2760 -0.2547  0.0183
  753POPS   CNO10847   7.083  17.388   4.737 -0.0118 -0.1947  0.1753
  753POPS   PO410848   6.829  17.381   5.236  0.1989 -0.0056  0.2477
  753POPS   GL110849   6.605  17.088   5.539  0.0044 -0.0175 -0.1338
  753POPS   GL210850   6.320  17.065   5.456  0.1444 -0.1278 -0.0572
  753POPS   C1A10851   6.580  16.935   5.913 -0.1336 -0.1114  0.2016
  753POPS   D2A10852   6.726  16.828   6.252 -0.0481 -0.0542 -0.2095
  753POPS   C3A10853   6.622  16.826   6.545 -0.0618  0.2785  0.4307
  753POPS   C4A10854   6.404  16.716   6.858 -0.2401  0.1103 -0.1324
  753POPS   C1B10855   6.010  17.352   5.824  0.0997  0.2474 -0.0421
  753POPS   C2B10856   5.809  17.516   6.098 -0.0757 -0.0313 -0.1883
  753POPS   C3B10857   5.450  17.752   6.305  0.1376 -0.0579 -0.0923
  753POPS   C4B10858   5.395  17.997   6.612 -0.0154  0.3653  0.0191
  754POPS   CNO10859   5.397  14.699   5.215 -0.1331  0.0332 -0.2585
  754POPS   PO410860   5.452  14.340   5.408  0.0673  0.1930 -0.0717
  754POPS   GL110861   5.742  14.539   5.592 -0.0197 -0.0186  0.1729
  754POPS   GL210862   5.864  14.176   5.765  0.1900  0.2101 -0.1769
  754POPS   C1A10863   5.794  14.755   6.022 -0.0397  0.1882 -0.0041
  754POPS   D2A10864   5.625  14.960   6.380  0.0620  0.0752  0.0844
  754POPS   C3A10865   5.211  14.852   6.512 -0.1407  0.0177 -0.0085
  754POPS   C4A10866   4.867  14.863   6.234  0.0382  0.2252  0.1623
  754POPS   C1B10867   6.024  14.328   6.182  0.0018 -0.1127 -0.0627
  754POPS   C2B10868   6.006  14.655   6.544 -0.2333  0.1507  0.1805
  754POPS   C3B10869   6.175  14.541   6.901 -0.1111  0.1286  0.0423
  754POPS   C4B10870   6.404  14.542   7.339 -0.1453  0.2031  0.3793
  755POPS   CNO10871  10.221   9.587   5.684  0.1657  0.1134  0.1268
  755POPS   PO410872  10.035  10.008   5.581  0.0166 -0.0100  0.1980
  755POPS   GL110873  10.128   9.967   5.997  0.4758 -0.0470  0.0491
  755POPS   GL210874   9.888  10.182   6.173  0.0810  0.2705 -0.0242
  755POPS   C1A10875  10.285  10.040   6.392 -0.0274 -0.2673  0.3496
  755POPS   D2A10876  10.284   9.895   6.865  0.0461 -0.3058 -0.3607
  755POPS   C3A10877  10.398   9.855   7.276 -0.1920 -0.0960 -0.0888
  755POPS   C4A10878  10.493   9.960   7.729 -0.2140  0.0142  0.3241
  755POPS   C1B10879   9.836   9.882   6.511  0.0143 -0.2661 -0.0290
  755POPS   C2B10880   9.857   9.611   6.833 -0.0419  0.2357  0.0934
  755POPS   C3B10881   9.869   9.754   7.255  0.0879  0.1686  0.2457
  755POPS   C4B10882   9.653   9.917   7.481  0.0135 -0.2068 -0.0124
  756POPS   CNO10883   7.470   0.363   5.364 -0.1118 -0.3362  0.0609
  756POPS   PO410884   7.581   0.071   5.642 -0.1275  0.1548  0.0138
  756POPS   GL110885   7.413  -0.015   6.122  0.0033 -0.2433  0.2823
  756POPS   GL210886   7.105   0.055   5.994 -0.3954  0.2019  0.3852
  756POPS   C1A10887   7.167  -0.141   6.553 -0.0172 -0.0326 -0.2385
  756POPS   D2A10888   6.855  -0.365   6.845  0.3148  0.1906 -0.2876
  756POPS   C3A10889   6.689  -0.212   7.182 -0.2873 -0.1992  0.1360
  756POPS   C4A10890   6.657   0.195   7.392  0.0571 -0.0556 -0.1689
  756POPS   C1B10891   6.780  -0.042   6.301 -0.2075  0.0132 -0.2044
  756POPS   C2B10892   6.513  -0.156   6.569  0.1111 -0.1401 -0.0113
  756POPS   C3B10893   6.377  -0.486   6.989  0.2646  0.2503 -0.1348
  756POPS   C4B10894   6.395  -0.611   7.450 -0.4545  0.2656 -0.1621
  757POPS   CNO10895   2.577  11.868   5.171 -0.1130  0.2432 -0.2656
  757POPS   PO410896   2.709  11.631   5.510  0.0396  0.2619 -0.0217
  757POPS   GL110897   2.566  11.443   5.866  0.1383 -0.1269  0.2621
  757POPS   GL210898   2.551  11.189   6.079 -0.0479 -0.0027 -0.0987
  757POPS   C1A10899   2.646  11.604   6.337 -0.1067  0.0151 -0.0187
  757POPS   D2A10900   2.644  11.621   6.732  0.0591  0.0605  0.1599
  757POPS   C3A10901   2.921  11.727   7.009 -0.0325 -0.0350 -0.0666
  757POPS   C4A10902   2.903  11.742   7.462 -0.2149 -0.0597  0.2227
  757POPS   C1B10903   2.385  11.185   6.501  0.3142 -0.0146  0.0805
  757POPS   C2B10904   2.340  11.268   6.861  0.2092 -0.1233 -0.1258
  757POPS   C3B10905   2.560  11.353   7.196 -0.2402 -0.0143 -0.0030
  757POPS   C4B10906   2.518  11.148   7.610  0.3390  0.0767 -0.0262
  758POPS   CNO10907  14.594   6.016   5.168  0.0042 -0.3399  0.0447
  758POPS   PO410908  14.890   6.151   5.491  0.1978  0.1867 -0.0212
  758POPS   GL110909  15.043   6.562   5.699  0.3257  0.3608 -0.1168
  758POPS   GL210910  14.830   6.598   5.954  0.2360  0.0996  0.2019
  758POPS   C1A10911  15.428   6.659   6.033  0.0928 -0.0697  0.1031
  758POPS   D2A10912  15.777   6.902   6.305 -0.1068 -0.2454 -0.1294
  758POPS   C3A10913  15.971   6.725   6.611 -0.1770 -0.1210  0.2190
  758POPS   C4A10914  16.251   6.452   6.797 -0.0068  0.0090  0.1551
  758POPS   C1B10915  14.799   6.481   6.399  0.1147 -0.2055 -0.1405
  758POPS   C2B10916  14.690   6.424   6.859  0.2103  0.2430 -0.0712
  758POPS   C3B10917  14.725   6.591   7.314 -0.0458  0.0655  0.2306
  758POPS   C4B10918  14.868   6.921   7.452 -0.2301  0.3583 -0.2193
  759POPS   CNO10919  14.403  10.335   5.343  0.1276  0.0079 -0.1804
  759POPS   PO410920  14.466   9.994   5.694  0.2343  0.0021  0.0386
  759POPS   GL110921  14.234  10.038   6.055 -0.0286  0.2174 -0.1144
  759POPS   GL210922  14.381   9.846   6.313  0.1992  0.1623  0.0130
  759POPS   C1A10923  14.106  10.264   6.383 -0.0059  0.1146  0.0773
  759POPS   D2A10924  14.010  10.384   6.791  0.0448  0.2295 -0.2659
  759POPS   C3A10925  14.340  10.270   7.123  0.3068  0.1183 -0.1529
  759POPS   C4A10926  14.549  10.096   7.509  0.1099 -0.3975  0.4109
  759POPS   C1B10927  14.320   9.936   6.763  0.1399 -0.2455  0.0147
  759POPS   C2B10928  14.410   9.719   7.217 -0.1747  0.4706 -0.0922
  759POPS   C3B10929  14.729   9.543   7.555  0.0167 -0.0879  0.3014
  759POPS   C4B10930  15.063   9.683   7.734  0.0668  0.0420 -0.0883
  760POPS   CNO10931   6.133   2.633   5.340  0.0063 -0.1919 -0.2791
  760POPS   PO410932   6.144   2.207   5.455 -0.2525  0.2382 -0.2689
  760POPS   GL110933   6.130   1.969   5.845 -0.2310 -0.0930  0.1753
  760POPS   GL210934   6.221   2.166   6.140  0.2737  0.3169 -0.1910
  760POPS   C1A10935   5.860   1.873   6.118  0.3491  0.1809  0.0245
  760POPS   D2A10936   5.815   1.652   6.471  0.1587 -0.1191 -0.1711
  760POPS   C3A10937   5.715   1.397   6.837  0.0859  0.1286 -0.0239
  760POPS   C4A10938   5.641   1.087   7.105 -0.0034  0.1461  0.0903
  760POPS   C1B10939   6.047   2.159   6.621 -0.0946 -0.4260  0.3313
  760POPS   C2B10940   6.009   2.362   7.049  0.1349  0.3172 -0.2201
  760POPS   C3B10941   6.112   2.391   7.467 -0.1526  0.0238 -0.2214
  760POPS   C4B10942   6.200   2.208   7.853 -0.2523  0.5919  0.5298
  761POPS   CNO10943  17.402   8.515   5.351  0.0204  0.0868  0.2066
  761POPS   PO410944  17.532   8.181   5.454 -0.1161 -0.1982  0.2820
  761POPS   GL110945  17.496   8.323   5.858  0.0852 -0.0384 -0.0776
  761POPS   GL210946  17.451   8.609   5.944  0.0660 -0.1643 -0.2118
  761POPS   C1A10947  17.076   8.095   6.180  0.0678 -0.3267  0.2159
  761POPS   D2A10948  16.896   7.692   6.276  0.2663 -0.2210 -0.0484
  761POPS   C3A10949  16.769   7.572   6.717  0.1322  0.3726 -0.1170
  761POPS   C4A10950  16.541   7.380   7.035  0.1783 -0.0425  0.1154
  761POPS   C1B10951  17.307   8.501   6.361 -0.0719  0.1830 -0.0172
  761POPS   C2B10952  17.256   8.356   6.830  0.0987  0.4154 -0.0938
  761POPS   C3B10953  17.245   8.192   7.280  0.0430  0.0050  0.2287
  761POPS   C4B10954  17.704   8.061   7.430  0.0897 -0.1618  0.1987
  762POPS   CNO10955   5.215   2.553   5.199  0.0270  0.3093  0.0960
  762POPS   PO410956   5.278   2.240   5.522 -0.0670 -0.2836  0.0595
  762POPS   GL110957   5.315   2.141   5.917  0.0966  0.3566  0.1331
  762POPS   GL210958   5.263   2.450   6.061 -0.1625  0.1613  0.0889
  762POPS   C1A10959   5.344   1.869   6.289  0.0102 -0.0452 -0.0224
  762POPS   D2A10960   5.349   1.696   6.617  0.0168  0.0793 -0.0882
  762POPS   C3A10961   5.287   1.910   7.009  0.0025 -0.0822 -0.1563
  762POPS   C4A10962   5.161   2.121   7.346 -0.1386 -0.1114 -0.0829
  762POPS   C1B10963   5.001   2.812   6.063 -0.0601 -0.2540 -0.1416
  762POPS   C2B10964   4.731   2.987   6.376  0.3028 -0.0667  0.2058
  762POPS   C3B10965   4.715   3.180   6.738 -0.3731  0.2009 -0.0762
  762POPS   C4B10966   4.461   3.468   6.981 -0.1830 -0.3230 -0.0824
  763POPS   CNO10967  15.270   1.113   5.777 -0.0066 -0.3235  0.0235
  763POPS   PO410968  14.876   1.184   5.988  0.1360  0.1061  0.1110
  763POPS   GL110969  14.689   1.377   6.380  0.0246 -0.1385 -0.0720
  763POPS   GL210970  14.512   1.056   6.523  0.2269 -0.1088  0.1567
  763POPS   C1A10971  14.729   1.394   6.810  0.0908 -0.3307  0.2138
  763POPS   D2A10972  14.851   1.374   7.196 -0.1650 -0.0159  0.0573
  763POPS   C3A10973  14.956   1.612   7.590 -0.0480  0.0278 -0.0918
  763POPS   C4A10974  15.160   1.958   7.649  0.0346 -0.0796 -0.0267
  763POPS   C1B10975  14.320   0.872   6.905 -0.5211  0.2149 -0.1907
  763POPS   C2B10976  13.955   0.747   7.194 -0.2101 -0.0151  0.1058
  763POPS   C3B10977  13.572   0.702   7.256 -0.0298 -0.3360 -0.3080
  763POPS   C4B10978  13.230   0.862   7.228  0.1972  0.1326 -0.3434
  764POPS   CNO10979  10.356  18.546   5.383 -0.1262  0.0774  0.2538
  764POPS   PO410980  10.550  18.404   5.746 -0.0811  0.2059  0.1664
  764POPS   GL110981  10.440  18.422   6.180  0.1910  0.1522 -0.0818
  764POPS   GL210982  10.585  18.127   6.238  0.1203 -0.3882 -0.1230
  764POPS   C1A10983  10.013  18.267   6.419 -0.0376 -0.2212  0.0384
  764POPS   D2A10984   9.710  18.077   6.677 -0.3232 -0.1299 -0.1228
  764POPS   C3A10985   9.802  18.121   7.086 -0.2039 -0.3414  0.0972
  764POPS   C4A10986   9.719  17.907   7.466 -0.2041 -0.1340 -0.2000
  764POPS   C1B10987  10.595  17.680   6.323  0.3894 -0.2149 -0.1707
  764POPS   C2B10988  10.540  17.283   6.303  0.0620  0.0180 -0.2527
  764POPS   C3B10989  10.714  17.084   6.638  0.1063 -0.0463 -0.0552
  764POPS   C4B10990  10.861  17.142   7.042 -0.1664  0.0117  0.0378
  765POPS   CNO10991  15.467  15.702   5.738 -0.0394  0.0909 -0.0561
  765POPS   PO410992  15.900  15.764   5.867  0.0466 -0.1321  0.3125
  765POPS   GL110993  16.012  15.823   6.283 -0.1524  0.0366  0.0795
  765POPS   GL210994  15.780  15.653   6.395  0.0566  0.4607  0.0741
  765POPS   C1A10995  16.163  15.991   6.643 -0.1332  0.4788 -0.0862
  765POPS   D2A10996  16.394  16.337   6.762 -0.0255  0.0454  0.0296
  765POPS   C3A10997  16.400  16.484   7.231 -0.2127 -0.0151 -0.1497
  765POPS   C4A10998  16.140  16.708   7.571  0.0035  0.1761  0.1155
  765POPS   C1B10999  15.673  15.314   6.710 -0.2412 -0.1588  0.4714
  765POPS   C2B11000  15.646  15.294   7.175  0.1024  0.1386 -0.2796
  765POPS   C3B11001  15.572  15.411   7.558 -0.1681  0.0926 -0.1618
  765POPS   C4B11002  15.719  15.581   8.004  0.0689  0.0029  0.2742
  766POPS   CNO11003   2.726   5.835   5.732 -0.2497 -0.1203 -0.1478
  766POPS   PO411004   3.018   5.895   5.375 -0.1388  0.1463 -0.1350
  766POPS   GL111005   3.376   5.801   5.724  0.1319 -0.3258 -0.3055
  766POPS   GL211006   3.220   5.772   5.990 -0.0613 -0.0987  0.1672
  766POPS   C1A11007   3.499   6.135   6.086 -0.3057 -0.0472 -0.1461
  766POPS   D2A11008   3.640   6.254   6.383 -0.1219  0.0470  0.0382
  766POPS   C3A11009   3.721   6.108   6.867 -0.0595 -0.2909  0.0598
  766POPS   C4A11010   3.886   6.063   7.342 -0.1840 -0.4018 -0.0333
  766POPS   C1B11011   3.224   5.828   6.468  0.1177  0.0548  0.2484
  766POPS   C2B11012   3.124   5.803   6.889 -0.1554 -0.2917 -0.2473
  766POPS   C3B11013   3.331   5.709   7.325 -0.0567 -0.3764  0.2471
  766POPS   C4B11014   3.467   6.058   7.630  0.0933  0.3462 -0.0871
  767POPS   CNO11015   2.114   6.029   4.976  0.0483 -0.0261 -0.2602
  767POPS   PO411016   1.671   5.944   5.142 -0.1125 -0.4630  0.2534
  767POPS   GL111017   1.562   6.223   5.472  0.0801 -0.1900  0.2620
  767POPS   GL211018   1.484   6.589   5.498  0.1459  0.1537 -0.1579
  767POPS   C1A11019   1.350   6.142   5.752  0.1038 -0.3032 -0.1741
  767POPS   D2A11020   1.161   5.713   5.897 -0.1509  0.0178 -0.3696
  767POPS   C3A11021   0.973   5.601   6.334  0.1929  0.2018 -0.1440
  767POPS   C4A11022   0.865   5.544   6.787 -0.4216 -0.0220 -0.1703
  767POPS   C1B11023   1.469   6.929   5.879  0.0581  0.3355 -0.1863
  767POPS   C2B11024   1.498   6.965   6.390 -0.3591 -0.0496  0.2350
  767POPS   C3B11025   1.332   7.177   6.704 -0.3188  0.0641  0.0416
  767POPS   C4B11026   1.119   7.019   7.041  0.4326 -0.1958  0.0551
  768POPS   CNO11027   2.521   3.522   5.465  0.4006  0.1022  0.2129
  768POPS   PO411028   2.243   3.822   5.378 -0.1053  0.1976  0.0359
  768POPS   GL111029   2.484   3.998   5.730 -0.1045  0.1885 -0.1269
  768POPS   GL211030   2.834   3.870   5.694 -0.2244 -0.0164 -0.0131
  768POPS   C1A11031   2.597   4.199   6.100  0.5473 -0.0454 -0.3504
  768POPS   D2A11032   2.728   4.096   6.525 -0.2267 -0.0067  0.1174
  768POPS   C3A11033   2.944   4.323   6.812  0.1672  0.0357 -0.1043
  768POPS   C4A11034   2.673   4.137   7.150 -0.1980 -0.2426 -0.1215
  768POPS   C1B11035   2.951   3.799   6.101 -0.0786  0.2671 -0.1036
  768POPS   C2B11036   3.169   3.870   6.396 -0.0926 -0.1549 -0.0189
  768POPS   C3B11037   3.518   3.600   6.567 -0.2871  0.0331  0.0459
  768POPS   C4B11038   3.981   3.555   6.595 -0.2404  0.0330 -0.0231
  769POPS   CNO11039  14.792   9.437   5.193  0.2791  0.4170  0.0480
  769POPS   PO411040  15.248   9.653   5.434  0.1227 -0.0871  0.1648
  769POPS   GL111041  15.248   9.579   5.910 -0.0832  0.1786  0.1069
  769POPS   GL211042  15.046   9.270   6.029  0.0704  0.1221 -0.0135
  769POPS   C1A11043  15.517   9.740   6.270  0.3194  0.2802  0.0832
  769POPS   D2A11044  15.858   9.719   6.539 -0.0317  0.1671  0.0271
  769POPS   C3A11045  15.915   9.381   6.787 -0.1034 -0.2205  0.0033
  769POPS   C4A11046  15.890   9.232   7.146 -0.0300  0.2471  0.0746
  769POPS   C1B11047  15.180   9.440   6.447 -0.1603 -0.0285  0.1092
  769POPS   C2B11048  15.315   9.575   6.762  0.2473  0.2836  0.0873
  769POPS   C3B11049  15.178   9.610   7.216  0.1315 -0.1034 -0.0674
  769POPS   C4B11050  15.551   9.656   7.516  0.3023 -0.3246 -0.0041
  770POPS   CNO11051   8.487  13.981   5.031 -0.2463 -0.1659  0.2345
  770POPS   PO411052   8.851  14.050   5.340  0.0434  0.0120 -0.0079
  770POPS   GL111053   8.875  13.986   5.750  0.0473 -0.0310 -0.3107
  770POPS   GL211054   8.602  14.197   5.852 -0.0745 -0.1523 -0.0361
  770POPS   C1A11055   8.830  13.949   6.213  0.0120 -0.3588 -0.0284
  770POPS   D2A11056   8.635  13.794   6.514  0.1596  0.2870  0.1428
  770POPS   C3A11057   8.831  13.918   6.952 -0.0117  0.2684  0.1265
  770POPS   C4A11058   8.672  13.719   7.245 -0.0067 -0.0690 -0.1650
  770POPS   C1B11059   8.597  14.386   6.227  0.0085  0.0347  0.1372
  770POPS   C2B11060   8.507  14.284   6.673  0.0730 -0.2452  0.3923
  770POPS   C3B11061   8.391  14.092   6.986  0.0900  0.3136  0.0727
  770POPS   C4B11062   8.070  13.858   7.223  0.0967  0.0426  0.1184
  771POPS   CNO11063   9.587  11.989   5.281 -0.2071  0.0915 -0.1870
  771POPS   PO411064   9.815  11.757   5.616  0.1709  0.0040  0.2912
  771POPS   GL111065   9.695  11.881   6.009  0.2106  0.1822  0.3220
  771POPS   GL211066   9.651  11.534   6.124 -0.1631  0.2736 -0.2840
  771POPS   C1A11067   9.839  12.280   6.326  0.0529 -0.3603  0.1980
  771POPS   D2A11068   9.651  12.673   6.639 -0.1928 -0.0153  0.1697
  771POPS   C3A11069   9.686  12.587   7.054  0.1158 -0.0762 -0.2244
  771POPS   C4A11070   9.586  12.636   7.441  0.0968  0.1060  0.1216
  771POPS   C1B11071   9.634  11.827   6.489  0.3022 -0.1442  0.0679
  771POPS   C2B11072   9.724  12.152   6.812 -0.2668  0.0526  0.1482
  771POPS   C3B11073   9.621  12.088   7.206 -0.1012  0.1652  0.2171
  771POPS   C4B11074   9.461  11.923   7.578  0.1002  0.1901 -0.2436
  772POPS   CNO11075   2.235   8.646   5.136 -0.0795  0.0272  0.2608
  772POPS   PO411076   2.494   8.396   5.370  0.1748 -0.2540 -0.1435
  772POPS   GL111077   2.600   8.469   5.855 -0.0470 -0.1480 -0.3242
  772POPS   GL211078   2.811   8.241   5.990 -0.2349  0.2829  0.0282
  772POPS   C1A11079   2.456   8.477   6.249 -0.0547 -0.1144  0.0554
  772POPS   D2A11080   2.464   8.124   6.550  0.0777  0.0280 -0.1056
  772POPS   C3A11081   2.368   8.150   7.049 -0.0542  0.0322 -0.1825
  772POPS   C4A11082   2.185   8.234   7.522 -0.1742 -0.1921 -0.1532
  772POPS   C1B11083   2.963   8.388   6.424  0.0439 -0.0126 -0.1246
  772POPS   C2B11084   2.753   8.359   6.847  0.1279  0.1711  0.0640
  772POPS   C3B11085   2.726   8.582   7.195 -0.0675 -0.2675 -0.1766
  772POPS   C4B11086   2.663   8.613   7.654  0.0842 -0.2255 -0.0541
  773POPS   CNO11087  18.526   9.729   5.302  0.0032  0.4010  0.0028
  773POPS   PO411088  18.127   9.691   5.305  0.1783 -0.1446 -0.2383
  773POPS   GL111089  18.315   9.927   5.717 -0.3127 -0.0372 -0.1738
  773POPS   GL211090  18.369   9.649   5.830 -0.5846  0.0175  0.0156
  773POPS   C1A11091  18.244  10.154   6.143 -0.1267 -0.0765 -0.0915
  773POPS   D2A11092  18.130  10.198   6.561 -0.0661 -0.3889 -0.1843
  773POPS   C3A11093  17.714  10.274   6.733  0.0483 -0.1143  0.1122
  773POPS   C4A11094  17.282  10.326   6.714  0.0172 -0.3466  0.0158
  773POPS   C1B11095  18.573   9.696   6.167 -0.1019 -0.3472 -0.4176
  773POPS   C2B11096  18.325   9.727   6.548  0.3069 -0.1889  0.3271
  773POPS   C3B11097  18.354   9.771   6.946 -0.1035  0.1210  0.4201
  773POPS   C4B11098  18.348   9.690   7.316  0.3317 -0.1831  0.0809
  774POPS   CNO11099  15.836   3.944   5.070 -0.0722  0.1548 -0.2949
  774POPS   PO411100  15.755   3.986   5.593  0.0508  0.2037  0.0527
  774POPS   GL111101  15.785   3.863   6.108  0.4240 -0.1330 -0.5194
  774POPS   GL211102  15.623   3.868   6.318  0.0823  0.2243 -0.3339
  774POPS   C1A11103  16.031   3.668   6.519  0.0283 -0.1340 -0.0002
  774POPS   D2A11104  16.250   3.462   6.912 -0.1307 -0.0404 -0.3511
  774POPS   C3A11105  16.429   3.728   7.251  0.0468  0.0588  0.1528
  774POPS   C4A11106  16.685   4.062   7.368 -0.6164 -0.0435 -0.0536
  774POPS   C1B11107  15.554   3.737   6.678  0.1190 -0.1390 -0.1896
  774POPS   C2B11108  15.702   3.489   7.016  0.0251 -0.1766  0.0171
  774POPS   C3B11109  15.976   3.288   7.301  0.3189  0.0349  0.1811
  774POPS   C4B11110  15.862   3.126   7.706 -0.1180 -0.0197  0.0730
  775POPS   CNO11111   1.134  14.894   5.174  0.2063 -0.0719  0.1276
  775POPS   PO411112   1.342  15.076   5.511  0.0477  0.1435 -0.3306
  775POPS   GL111113   1.634  14.957   5.771  0.2400 -0.0416 -0.1306
  775POPS   GL211114   1.942  14.723   5.634  0.2553 -0.2161 -0.2151
  775POPS   C1A11115   1.776  14.857   6.127  0.3559 -0.0415 -0.1433
  775POPS   D2A11116   2.028  14.705   6.468  0.3563 -0.1384 -0.1749
  775POPS   C3A11117   2.061  14.779   6.904 -0.3956  0.0296 -0.1056
  775POPS   C4A11118   2.294  15.005   7.172  0.0917 -0.0021 -0.0165
  775POPS   C1B11119   1.960  14.408   5.937 -0.3595  0.2342  0.0539
  775POPS   C2B11120   2.181  14.319   6.237 -0.0671  0.1688 -0.0669
  775POPS   C3B11121   2.191  14.230   6.665 -0.0312 -0.2165 -0.0909
  775POPS   C4B11122   2.133  14.027   7.074 -0.0152  0.1148  0.0697
  776POPS   CNO11123  14.158  13.576   5.280 -0.0203  0.2960  0.1172
  776POPS   PO411124  14.066  13.953   5.534  0.0938 -0.1527 -0.3595
  776POPS   GL111125  13.949  13.948   5.988 -0.0096 -0.2473 -0.1010
  776POPS   GL211126  13.741  13.749   6.082 -0.4220  0.1736 -0.1868
  776POPS   C1A11127  13.903  14.146   6.303 -0.2043 -0.0093 -0.1439
  776POPS   D2A11128  13.580  14.434   6.552  0.1212 -0.0918 -0.0236
  776POPS   C3A11129  13.687  14.350   6.955 -0.2585 -0.4949 -0.2532
  776POPS   C4A11130  13.553  13.975   7.253  0.1311  0.3447 -0.1164
  776POPS   C1B11131  14.000  13.440   6.445 -0.0587 -0.2794 -0.1671
  776POPS   C2B11132  14.042  13.091   6.610 -0.2132 -0.0264 -0.1357
  776POPS   C3B11133  14.007  13.061   7.005 -0.2368 -0.1190  0.0885
  776POPS   C4B11134  13.754  13.134   7.322 -0.1817 -0.1623 -0.1463
  777POPS   CNO11135   8.316   2.771   6.182 -0.0744  0.3171 -0.1243
  777POPS   PO411136   8.012   2.560   5.820 -0.0905 -0.1542  0.2001
  777POPS   GL111137   7.928   2.388   6.271 -0.0214  0.1237 -0.0345
  777POPS   GL211138   8.217   2.273   6.421  0.0116 -0.0884 -0.1826
  777POPS   C1A11139   7.795   2.295   6.709 -0.0465  0.0017  0.1490
  777POPS   D2A11140   7.850   2.162   7.090 -0.1636  0.0629  0.0900
  777POPS   C3A11141   7.930   2.199   7.529  0.1768  0.0723 -0.1702
  777POPS   C4A11142   7.998   1.994   7.925 -0.3262  0.1648  0.1176
  777POPS   C1B11143   8.308   2.266   6.804  0.2064 -0.0589  0.2565
  777POPS   C2B11144   8.449   2.412   7.127  0.1440  0.0005 -0.3308
  777POPS   C3B11145   8.532   2.355   7.509 -0.2880  0.4706 -0.0724
  777POPS   C4B11146   8.865   2.270   7.770  0.1429 -0.0893  0.3053
  778POPS   CNO11147  14.327   6.341   5.495 -0.1426  0.3571 -0.0852
  778POPS   PO411148  13.977   6.141   5.903  0.0139 -0.5129  0.2157
  778POPS   GL111149  13.635   6.174   6.146 -0.0656 -0.0365  0.1856
  778POPS   GL211150  13.650   6.472   6.283  0.1095  0.1462  0.1416
  778POPS   C1A11151  13.726   5.990   6.543  0.1069  0.1498  0.2171
  778POPS   D2A11152  13.694   5.864   6.955 -0.0991 -0.0264  0.1842
  778POPS   C3A11153  13.822   6.173   7.304 -0.0893  0.1053 -0.0518
  778POPS   C4A11154  14.002   6.076   7.673 -0.1718 -0.2784 -0.1182
  778POPS   C1B11155  13.819   6.495   6.625 -0.0097  0.3251 -0.1546
  778POPS   C2B11156  13.737   6.621   7.058 -0.0553  0.0015 -0.1268
  778POPS   C3B11157  13.537   6.589   7.428 -0.3948  0.1108 -0.0370
  778POPS   C4B11158  13.231   6.517   7.761  0.0730  0.5482 -0.2086
  779POPS   CNO11159   2.942  16.253   5.317  0.0945 -0.0515  0.0499
  779POPS   PO411160   2.674  16.493   5.432 -0.0760 -0.1292 -0.1348
  779POPS   GL111161   2.884  16.442   5.813 -0.0247  0.5020 -0.1740
  779POPS   GL211162   3.239  16.425   5.765  0.0260  0.0566 -0.2037
  779POPS   C1A11163   3.022  16.558   6.217  0.0910 -0.0067 -0.2053
  779POPS   D2A11164   3.215  16.726   6.535 -0.0577 -0.0089  0.0595
  779POPS   C3A11165   3.647  16.858   6.584  0.0824 -0.2124  0.0221
  779POPS   C4A11166   4.012  17.056   6.345  0.1600  0.1458  0.2531
  779POPS   C1B11167   3.502  16.225   6.126  0.2030 -0.1690  0.1808
  779POPS   C2B11168   3.508  16.359   6.479  0.1271  0.4126  0.2526
  779POPS   C3B11169   3.501  16.337   6.910  0.1049  0.0365 -0.1903
  779POPS   C4B11170   3.335  16.013   7.102  0.5220 -0.2830 -0.0709
  780POPS   CNO11171  14.189  10.840   5.500 -0.0677 -0.2906 -0.1703
  780POPS   PO411172  13.780  10.782   5.539 -0.0263  0.2506  0.0344
  780POPS   GL111173  13.678  10.517   6.028  0.1667  0.1805  0.4900
  780POPS   GL211174  13.358  10.367   6.139  0.2850  0.0599 -0.2204
  780POPS   C1A11175  13.748  10.600   6.420 -0.0464 -0.0178  0.1442
  780POPS   D2A11176  13.823  10.929   6.605  0.1903 -0.2814 -0.0637
  780POPS   C3A11177  13.778  10.812   6.966  0.0554  0.1753 -0.0575
  780POPS   C4A11178  13.422  10.737   7.234 -0.0503 -0.2526 -0.0997
  780POPS   C1B11179  13.416  10.334   6.643  0.0162  0.0445 -0.2848
  780POPS   C2B11180  13.539  10.200   7.091 -0.0336 -0.0547 -0.0919
  780POPS   C3B11181  13.876  10.466   7.324 -0.3019  0.0062  0.0575
  780POPS   C4B11182  13.974  10.654   7.722 -0.2973 -0.0566  0.1970
  781POPS   CNO11183  13.903   3.573   5.952 -0.0915 -0.0012  0.1405
  781POPS   PO411184  14.121   3.915   6.047 -0.4129  0.0824  0.1941
  781POPS   GL111185  14.178   3.858   6.512  0.0970 -0.3013  0.1200
  781POPS   GL211186  14.132   4.106   6.576 -0.0696  0.0415 -0.1603
  781POPS   C1A11187  14.224   3.879   6.974  0.0032 -0.1831 -0.1363
  781POPS   D2A11188  14.147   3.924   7.420  0.0133  0.0551 -0.0693
  781POPS   C3A11189  14.360   4.251   7.606 -0.4548  0.1343 -0.0364
  781POPS   C4A11190  14.672   4.596   7.634  0.0641 -0.0573 -0.0524
  781POPS   C1B11191  13.709   4.167   6.693 -0.4202  0.0131  0.0729
  781POPS   C2B11192  13.393   4.364   7.018  0.0496  0.1325  0.4192
  781POPS   C3B11193  13.589   4.754   7.269 -0.2284 -0.0296  0.0592
  781POPS   C4B11194  13.942   4.915   7.101  0.1333 -0.4496 -0.0469
  782POPS   CNO11195  11.638  14.271   5.848 -0.1457  0.0369 -0.3166
  782POPS   PO411196  11.761  14.681   5.929  0.0101  0.0562  0.2340
  782POPS   GL111197  11.967  14.788   6.430  0.2086 -0.0339 -0.2065
  782POPS   GL211198  12.048  14.512   6.535 -0.0038  0.0824  0.0885
  782POPS   C1A11199  11.874  14.875   6.775 -0.0755 -0.1719  0.1546
  782POPS   D2A11200  11.883  14.772   7.147 -0.0938  0.1797  0.0216
  782POPS   C3A11201  11.555  14.856   7.421 -0.2312  0.1200 -0.1700
  782POPS   C4A11202  11.411  14.909   7.870  0.0658  0.1405  0.3668
  782POPS   C1B11203  11.788  14.371   6.872 -0.0741 -0.1467  0.0243
  782POPS   C2B11204  11.782  14.361   7.409 -0.2002  0.1556  0.0152
  782POPS   C3B11205  11.658  14.102   7.709 -0.1099  0.1560 -0.0543
  782POPS   C4B11206  11.567  13.689   7.755  0.0233 -0.3804  0.0296
  783POPS   CNO11207   6.397   6.379   5.562 -0.0969  0.2828 -0.2125
  783POPS   PO411208   6.869   6.472   5.483  0.1263  0.0349  0.1383
  783POPS   GL111209   6.736   6.389   5.935 -0.2158  0.2884 -0.0317
  783POPS   GL211210   6.949   6.451   6.193  0.2212 -0.4384 -0.2762
  783POPS   C1A11211   6.422   6.146   6.174 -0.1293  0.0736  0.4044
  783POPS   D2A11212   6.103   6.070   6.421  0.2160  0.2324 -0.2489
  783POPS   C3A11213   6.342   5.810   6.749  0.0962 -0.0599  0.2054
  783POPS   C4A11214   6.290   5.808   7.214 -0.0034  0.1578  0.2522
  783POPS   C1B11215   7.203   6.417   6.459 -0.2093  0.2052 -0.1542
  783POPS   C2B11216   7.160   6.430   6.910 -0.0749 -0.1315  0.1831
  783POPS   C3B11217   7.016   6.269   7.367  0.3010 -0.1137 -0.0045
  783POPS   C4B11218   7.260   6.211   7.786 -0.1860 -0.4830 -0.0225
  784POPS   CNO11219   1.349   1.458   5.419 -0.0658  0.0246  0.0422
  784POPS   PO411220   1.430   1.010   5.405  0.0206 -0.0133  0.4091
  784POPS   GL111221   1.443   1.216   5.821  0.0891  0.1481  0.0360
  784POPS   GL211222   1.718   1.406   5.838 -0.0437  0.1579 -0.1622
  784POPS   C1A11223   1.286   1.260   6.093  0.4514  0.0917  0.2394
  784POPS   D2A11224   1.111   0.987   6.261  0.1015  0.1816 -0.1059
  784POPS   C3A11225   1.159   0.816   6.679  0.1139 -0.3315 -0.0495
  784POPS   C4A11226   1.364   0.489   6.805 -0.1408  0.1585 -0.3859
  784POPS   C1B11227   1.889   1.330   6.203 -0.1953 -0.0243 -0.1091
  784POPS   C2B11228   1.948   1.367   6.633 -0.1602  0.1802 -0.1076
  784POPS   C3B11229   2.211   1.465   6.981 -0.1192 -0.0392 -0.4706
  784POPS   C4B11230   2.572   1.543   7.206  0.2545  0.2848 -0.2169
  785POPS   CNO11231  18.239  16.733   5.666  0.0499  0.0586 -0.2847
  785POPS   PO411232  18.287  16.360   5.931 -0.0386  0.0663  0.0088
  785POPS   GL111233  18.445  16.087   6.233  0.1749 -0.0146 -0.1104
  785POPS   GL211234  18.278  15.788   6.408 -0.1517 -0.0526  0.3008
  785POPS   C1A11235  18.612  16.005   6.764 -0.2319  0.3739 -0.1110
  785POPS   D2A11236  18.559  15.824   7.174 -0.0386 -0.4151 -0.1599
  785POPS   C3A11237  18.708  15.415   7.325 -0.0548 -0.4427 -0.1460
  785POPS   C4A11238  18.780  15.067   7.684  0.1493 -0.0153 -0.4327
  785POPS   C1B11239  18.155  15.760   6.788 -0.1962 -0.0197 -0.0909
  785POPS   C2B11240  18.113  15.566   7.364 -0.0184 -0.0528 -0.1983
  785POPS   C3B11241  18.292  15.846   7.593  0.1082  0.3256  0.1061
  785POPS   C4B11242  18.624  16.063   7.661  0.0482  0.0657  0.0224
  786POPS   CNO11243  15.996  13.880   4.916 -0.0189 -0.1623 -0.0454
  786POPS   PO411244  15.992  13.760   5.343 -0.1926  0.1456  0.2160
  786POPS   GL111245  16.106  13.655   5.813  0.1049 -0.2375 -0.0881
  786POPS   GL211246  16.043  13.984   5.892  0.0171 -0.1666 -0.1584
  786POPS   C1A11247  15.890  13.625   6.201  0.0047 -0.0543 -0.2885
  786POPS   D2A11248  15.604  13.434   6.568 -0.0822 -0.4131 -0.0003
  786POPS   C3A11249  15.681  13.053   6.749 -0.3336  0.0159 -0.2176
  786POPS   C4A11250  15.356  12.759   6.696 -0.0168 -0.1158  0.0324
  786POPS   C1B11251  16.139  14.024   6.317  0.1267  0.0917 -0.4017
  786POPS   C2B11252  16.120  13.759   6.687 -0.3308 -0.1095  0.0485
  786POPS   C3B11253  16.285  13.761   7.140  0.0605  0.1679 -0.0997
  786POPS   C4B11254  16.455  13.711   7.559  0.0396 -0.4094 -0.0737
  787POPS   CNO11255   4.208   9.399   5.498 -0.0870  0.2454  0.0184
  787POPS   PO411256   4.502   9.163   5.700  0.0176 -0.1182  0.0590
  787POPS   GL111257   4.621   9.159   6.089 -0.3064  0.1396 -0.1604
  787POPS   GL211258   4.623   8.911   6.177  0.3543 -0.4031 -0.0984
  787POPS   C1A11259   4.383   9.312   6.493  0.0769 -0.0906 -0.0057
  787POPS   D2A11260   4.252   9.421   6.966  0.0706 -0.0292 -0.0064
  787POPS   C3A11261   3.823   9.646   6.939  0.1561  0.1485 -0.0773
  787POPS   C4A11262   3.523   9.872   6.871  0.2406  0.3272 -0.2055
  787POPS   C1B11263   4.949   8.683   6.573  0.2517  0.3143  0.2085
  787POPS   C2B11264   4.894   8.864   6.914  0.1388  0.1312 -0.0719
  787POPS   C3B11265   5.210   8.781   7.256  0.0793 -0.1043 -0.0531
  787POPS   C4B11266   5.550   8.600   7.575  0.0052  0.2207  0.0810
  788POPS   CNO11267   4.275  16.578   4.970  0.1608  0.4735  0.3477
  788POPS   PO411268   4.244  16.247   5.155  0.0883  0.0321 -0.1263
  788POPS   GL111269   4.255  16.262   5.615  0.2039 -0.1304 -0.0856
  788POPS   GL211270   4.542  16.242   5.853 -0.2377 -0.1832  0.0092
  788POPS   C1A11271   4.038  16.131   6.009  0.2135 -0.0521  0.2754
  788POPS   D2A11272   3.824  15.977   6.418 -0.1297  0.1987  0.1333
  788POPS   C3A11273   3.926  16.113   6.869  0.0053 -0.3929  0.0552
  788POPS   C4A11274   3.967  15.924   7.323 -0.1343 -0.1704  0.0120
  788POPS   C1B11275   4.540  16.158   6.206 -0.5308  0.1462 -0.0951
  788POPS   C2B11276   4.568  16.236   6.633 -0.2749  0.2353 -0.0055
  788POPS   C3B11277   4.468  16.390   6.994  0.0868 -0.0144  0.0629
  788POPS   C4B11278   4.347  16.202   7.419 -0.1116  0.1018 -0.0974
  789POPS   CNO11279  16.778  15.207   5.841 -0.1868  0.0373 -0.2542
  789POPS   PO411280  16.849  15.574   5.859  0.1209  0.2096 -0.0761
  789POPS   GL111281  17.062  15.433   6.209 -0.2129 -0.0187 -0.0847
  789POPS   GL211282  17.255  15.254   6.060 -0.0216  0.0494 -0.0490
  789POPS   C1A11283  17.027  15.221   6.607 -0.2576  0.1643  0.2739
  789POPS   D2A11284  16.871  14.943   6.906 -0.2063 -0.0139 -0.2072
  789POPS   C3A11285  17.167  14.883   7.317  0.1874 -0.0141 -0.0309
  789POPS   C4A11286  17.384  15.054   7.709 -0.0134 -0.0970 -0.2002
  789POPS   C1B11287  17.341  15.007   6.292  0.1924  0.0939 -0.0138
  789POPS   C2B11288  17.454  14.919   6.733  0.1228  0.2600 -0.1265
  789POPS   C3B11289  17.622  15.061   7.173 -0.0077 -0.0608  0.2363
  789POPS   C4B11290  17.703  15.261   7.412  0.2421 -0.0128 -0.2787
  790POPS   CNO11291   0.412  17.161   5.343  0.0574 -0.2784  0.0643
  790POPS   PO411292   0.614  17.505   5.627  0.1841  0.3267 -0.1664
  790POPS   GL111293   0.491  17.817   5.883 -0.1470 -0.1818 -0.1372
  790POPS   GL211294   0.418  18.166   5.887 -0.1841 -0.2554  0.0233
  790POPS   C1A11295   0.451  17.893   6.352  0.0352  0.2200  0.0716
  790POPS   D2A11296   0.439  17.937   6.754 -0.0376 -0.0635 -0.0073
  790POPS   C3A11297   0.260  18.255   7.118  0.2500  0.4228 -0.2154
  790POPS   C4A11298   0.042  18.538   7.483  0.1294  0.1652 -0.2204
  790POPS   C1B11299   0.475  18.372   6.251 -0.1682 -0.3025 -0.1360
  790POPS   C2B11300   0.822  18.524   6.700  0.1127 -0.0025 -0.0419
  790POPS   C3B11301   0.921  18.807   7.025  0.0389  0.0581 -0.0982
  790POPS   C4B11302   1.071  19.022   7.428 -0.0790 -0.0256  0.1065
  791POPS   CNO11303   5.339  12.862   5.412  0.2079  0.0272 -0.1431
  791POPS   PO411304   4.983  12.530   5.499  0.1059  0.2115  0.2037
  791POPS   GL111305   4.988  12.683   5.983 -0.0490 -0.2239 -0.1856
  791POPS   GL211306   4.968  12.405   6.075 -0.2803  0.1997 -0.1325
  791POPS   C1A11307   4.859  12.977   6.152  0.4183 -0.0277  0.0312
  791POPS   D2A11308   4.947  13.016   6.594  0.0346  0.0667 -0.1102
  791POPS   C3A11309   5.156  12.845   6.868 -0.0841  0.0973  0.0018
  791POPS   C4A11310   5.408  12.920   7.289  0.1364 -0.0541 -0.0446
  791POPS   C1B11311   4.763  12.396   6.520  0.1116 -0.0794 -0.0998
  791POPS   C2B11312   4.945  12.339   6.892 -0.4355 -0.0033  0.0274
  791POPS   C3B11313   5.038  12.616   7.349 -0.0044 -0.0825  0.1889
  791POPS   C4B11314   5.049  12.923   7.669  0.3799 -0.1158  0.2746
  792POPS   CNO11315   9.112  12.165   5.529  0.2444  0.0489 -0.2937
  792POPS   PO411316   8.857  12.238   5.864 -0.1884 -0.2134 -0.0621
  792POPS   GL111317   8.797  12.034   6.212  0.0738 -0.0705  0.1505
  792POPS   GL211318   8.465  11.961   6.208 -0.0577  0.0285  0.1337
  792POPS   C1A11319   9.049  11.870   6.528  0.2400  0.1899  0.1663
  792POPS   D2A11320   9.247  11.846   6.893 -0.0342  0.0098 -0.0917
  792POPS   C3A11321   9.338  11.634   7.207  0.3512  0.1019  0.0613
  792POPS   C4A11322   9.237  11.222   7.390  0.2344  0.1836  0.0458
  792POPS   C1B11323   8.631  12.116   6.642 -0.0478 -0.1063  0.0335
  792POPS   C2B11324   8.775  12.058   6.930 -0.0778  0.1501 -0.1279
  792POPS   C3B11325   8.923  11.894   7.335  0.1831 -0.2401  0.1001
  792POPS   C4B11326   9.005  11.575   7.619 -0.0114  0.0662  0.1043
  793POPS   CNO11327   3.138  15.025   5.256  0.0029 -0.1625  0.0907
  793POPS   PO411328   2.802  15.283   5.387 -0.3297 -0.0454  0.1325
  793POPS   GL111329   2.888  15.264   5.868 -0.1708  0.5566 -0.1954
  793POPS   GL211330   2.652  15.113   5.935  0.1253 -0.1675  0.2308
  793POPS   C1A11331   3.087  15.343   6.102 -0.0166 -0.3465 -0.1642
  793POPS   D2A11332   3.052  15.479   6.523  0.0032 -0.0975  0.4975
  793POPS   C3A11333   3.229  15.302   6.867 -0.0861  0.1613 -0.0397
  793POPS   C4A11334   3.127  15.407   7.378  0.1618  0.0815 -0.0391
  793POPS   C1B11335   2.609  15.132   6.429  0.0230  0.0959 -0.1413
  793POPS   C2B11336   2.527  14.887   6.752  0.3391  0.4058  0.1598
  793POPS   C3B11337   2.435  14.533   7.018 -0.0949  0.0870 -0.1791
  793POPS   C4B11338   2.482  14.248   7.435 -0.0184  0.0379 -0.1141
  794POPS   CNO11339   0.287   7.172   5.471  0.2128  0.0196 -0.4412
  794POPS   PO411340   0.383   7.636   5.479 -0.2449  0.2902 -0.0540
  794POPS   GL111341   0.561   7.543   5.742 -0.0853  0.2682  0.0154
  794POPS   GL211342   0.743   7.247   5.835  0.0636 -0.1796  0.0738
  794POPS   C1A11343   0.839   7.577   6.219  0.2943 -0.1398 -0.2443
  794POPS   D2A11344   1.122   7.581   6.442 -0.1387 -0.2981 -0.0527
  794POPS   C3A11345   1.387   7.802   6.646 -0.1912 -0.0811  0.0751
  794POPS   C4A11346   1.847   7.902   6.738  0.1341 -0.0856  0.1692
  794POPS   C1B11347   0.964   6.977   6.210 -0.3141  0.0889  0.0463
  794POPS   C2B11348   1.142   6.712   6.591 -0.1339  0.1281  0.1276
  794POPS   C3B11349   1.306   6.505   6.958 -0.3662 -0.0314 -0.0183
  794POPS   C4B11350   1.437   6.377   7.415 -0.2333 -0.1345  0.0042
  795POPS   CNO11351   8.024  16.582   5.006 -0.1303  0.0899  0.1121
  795POPS   PO411352   8.462  16.592   5.176 -0.2488  0.1567  0.2364
  795POPS   GL111353   8.379  16.648   5.643  0.1709 -0.1092 -0.2974
  795POPS   GL211354   8.125  16.831   5.577  0.3617  0.1505 -0.1565
  795POPS   C1A11355   8.647  16.653   5.978  0.3572 -0.1948 -0.1604
  795POPS   D2A11356   8.807  16.753   6.372 -0.0624 -0.2247  0.0701
  795POPS   C3A11357   8.793  16.845   6.826  0.2113  0.1341  0.0554
  795POPS   C4A11358   8.897  17.137   7.077  0.0371 -0.1325 -0.0693
  795POPS   C1B11359   7.894  16.897   6.034  0.3140  0.1376  0.0848
  795POPS   C2B11360   7.949  16.720   6.401 -0.0898 -0.4274  0.0278
  795POPS   C3B11361   7.781  16.558   6.845  0.1125 -0.0409  0.4074
  795POPS   C4B11362   7.352  16.441   7.139 -0.2159  0.3400 -0.0106
  796POPS   CNO11363  18.249   7.227   5.767 -0.1431 -0.0579  0.0438
  796POPS   PO411364  17.931   7.009   5.912 -0.0964 -0.1585  0.1820
  796POPS   GL111365  17.910   6.800   6.245 -0.2222 -0.2010  0.3652
  796POPS   GL211366  17.680   6.578   6.349 -0.0698  0.0127  0.1179
  796POPS   C1A11367  18.061   6.592   6.649  0.1922 -0.0836 -0.0248
  796POPS   D2A11368  18.073   6.181   6.738 -0.3332 -0.0998  0.1996
  796POPS   C3A11369  18.024   5.878   7.084 -0.1419  0.0978 -0.0831
  796POPS   C4A11370  18.045   5.608   7.499 -0.0150  0.4520 -0.2687
  796POPS   C1B11371  17.580   6.513   6.798  0.1157  0.0191 -0.0723
  796POPS   C2B11372  17.801   6.328   7.163 -0.2434  0.0769 -0.1227
  796POPS   C3B11373  17.571   6.000   7.432 -0.2085 -0.1496  0.0535
  796POPS   C4B11374  17.506   5.669   7.669 -0.3301  0.2462  0.0853
  797POPS   CNO11375   7.404  17.991   5.552  0.1711  0.1905  0.0781
  797POPS   PO411376   7.735  17.613   5.452 -0.1487 -0.1189 -0.0478
  797POPS   GL111377   7.778  17.603   5.877  0.2024  0.0973  0.0902
  797POPS   GL211378   7.991  17.470   6.040 -0.0683 -0.0161 -0.0926
  797POPS   C1A11379   7.639  17.749   6.276 -0.0976 -0.0665 -0.2791
  797POPS   D2A11380   7.745  17.602   6.716  0.0050 -0.0064  0.1772
  797POPS   C3A11381   7.528  17.539   7.156 -0.5397  0.2599  0.2507
  797POPS   C4A11382   7.337  17.410   7.410  0.0026  0.0665  0.0512
  797POPS   C1B11383   7.815  17.262   6.369 -0.1928 -0.0541  0.1352
  797POPS   C2B11384   7.861  17.137   6.820  0.0304  0.0581  0.0049
  797POPS   C3B11385   8.066  16.875   7.110  0.2482  0.2620 -0.0637
  797POPS   C4B11386   8.532  16.866   7.247 -0.0535 -0.2059 -0.0228
  798POPS   CNO11387  18.670   8.847   5.954  0.0564 -0.1553  0.0005
  798POPS   PO411388  18.283   8.648   5.881  0.2720 -0.1707  0.2108
  798POPS   GL111389  18.425   8.694   6.343 -0.0788  0.0969 -0.2000
  798POPS   GL211390  18.169   8.794   6.456  0.0399 -0.0282 -0.1710
  798POPS   C1A11391  18.734   8.604   6.679 -0.5334  0.0214 -0.0049
  798POPS   D2A11392  18.788   8.414   7.123  0.0562  0.0879 -0.3292
  798POPS   C3A11393  18.845   8.598   7.459 -0.2818 -0.0125 -0.2659
  798POPS   C4A11394  18.961   9.013   7.528 -0.1652 -0.1826  0.2551
  798POPS   C1B11395  17.976   8.691   6.877 -0.1889  0.1651 -0.1345
  798POPS   C2B11396  17.691   8.566   7.139 -0.1513 -0.1142  0.1210
  798POPS   C3B11397  17.539   8.547   7.513  0.0874  0.0214 -0.2147
  798POPS   C4B11398  17.188   8.676   7.699 -0.1833 -0.0050 -0.0306
  799POPS   CNO11399   8.800   2.472   5.957 -0.1368 -0.0810 -0.1091
  799POPS   PO411400   8.632   2.139   6.005  0.2287 -0.3258  0.2122
  799POPS   GL111401   8.687   2.153   6.408 -0.1991  0.2071 -0.2117
  799POPS   GL211402   8.622   1.986   6.570 -0.0026 -0.0180  0.0216
  799POPS   C1A11403   8.848   2.370   6.833  0.0419  0.2348  0.1695
  799POPS   D2A11404   8.960   2.447   7.252  0.3375 -0.0382 -0.2451
  799POPS   C3A11405   9.273   2.474   7.593 -0.0904  0.0639  0.0770
  799POPS   C4A11406   9.665   2.669   7.664  0.0299  0.0713 -0.3450
  799POPS   C1B11407   8.754   1.961   7.068  0.0583 -0.0768  0.0611
  799POPS   C2B11408   9.017   1.811   7.361 -0.1506  0.1353 -0.1437
  799POPS   C3B11409   9.058   1.430   7.649  0.1982 -0.0116  0.0553
  799POPS   C4B11410   8.867   1.027   7.792  0.5579 -0.0824 -0.2443
  800POPS   CNO11411   9.959   3.541   5.650 -0.0933  0.0228  0.2588
  800POPS   PO411412   9.969   3.793   5.955  0.2828  0.2854 -0.2174
  800POPS   GL111413   9.568   3.836   6.233 -0.0147  0.2864  0.1344
  800POPS   GL211414   9.261   3.669   6.314  0.1838 -0.2303  0.2673
  800POPS   C1A11415   9.461   4.002   6.692  0.0800  0.3190 -0.1890
  800POPS   D2A11416   9.452   4.000   7.138  0.1756  0.3831  0.1928
  800POPS   C3A11417   9.440   4.361   7.347  0.1072 -0.2550 -0.2556
  800POPS   C4A11418   9.210   4.687   7.342  0.0967 -0.0113  0.0517
  800POPS   C1B11419   8.911   3.398   6.390  0.0008 -0.2385  0.0502
  800POPS   C2B11420   8.703   3.433   6.871 -0.4906  0.0666 -0.1903
  800POPS   C3B11421   8.606   3.508   7.243 -0.0402 -0.0368  0.0326
  800POPS   C4B11422   8.584   3.341   7.680  0.1437  0.3012  0.1390
  801POPS   CNO11423  15.721  11.607   4.973  0.1924  0.0055  0.1908
  801POPS   PO411424  15.353  11.421   5.104  0.0008 -0.0299  0.2877
  801POPS   GL111425  15.357  11.318   5.523 -0.1970 -0.1806  0.0445
  801POPS   GL211426  15.542  11.088   5.661  0.1098 -0.0531  0.0549
  801POPS   C1A11427  15.189  11.327   6.031  0.2499 -0.0175  0.1406
  801POPS   D2A11428  15.014  11.407   6.480 -0.3988 -0.3383 -0.2434
  801POPS   C3A11429  15.167  11.313   6.873 -0.0615  0.0551  0.0931
  801POPS   C4A11430  15.426  11.176   7.290  0.0722  0.4147  0.1195
  801POPS   C1B11431  15.523  11.015   6.079  0.1423 -0.1043  0.0690
  801POPS   C2B11432  15.527  10.857   6.500 -0.0159  0.1572 -0.0929
  801POPS   C3B11433  15.766  10.726   6.807  0.1286 -0.1305  0.2431
  801POPS   C4B11434  15.733  10.748   7.254  0.1084  0.1069 -0.2182
  802POPS   CNO11435   6.308   8.607   5.399  0.0631  0.2224 -0.3920
  802POPS   PO411436   6.328   8.780   5.746  0.2445  0.2871  0.3149
  802POPS   GL111437   6.394   9.030   6.139  0.0868 -0.2174  0.1124
  802POPS   GL211438   6.666   9.005   6.134  0.0108 -0.0317 -0.0930
  802POPS   C1A11439   6.146   9.176   6.401  0.0444 -0.1815  0.0599
  802POPS   D2A11440   5.907   9.015   6.739  0.3426  0.0632 -0.1236
  802POPS   C3A11441   5.837   8.753   6.586 -0.0317 -0.4081  0.0372
  802POPS   C4A11442   5.985   8.423   6.391  0.0659  0.1501 -0.3141
  802POPS   C1B11443   6.768   9.002   6.486 -0.0015 -0.0984 -0.3894
  802POPS   C2B11444   6.850   9.008   6.882 -0.2823  0.0229  0.2201
  802POPS   C3B11445   6.890   8.916   7.284  0.0288  0.2569  0.0655
  802POPS   C4B11446   6.925   9.075   7.619 -0.0739 -0.2040 -0.0750
  803POPS   CNO11447  14.560   4.773   5.422 -0.0748 -0.2757  0.1268
  803POPS   PO411448  14.841   5.163   5.561 -0.2004  0.1521  0.0375
  803POPS   GL111449  14.716   5.489   5.928 -0.0989 -0.0205  0.0426
  803POPS   GL211450  14.590   5.247   6.204 -0.1141 -0.2880  0.2060
  803POPS   C1A11451  14.419   5.712   6.250  0.1567  0.1641 -0.0857
  803POPS   D2A11452  14.083   5.618   6.559  0.0542  0.3762 -0.1116
  803POPS   C3A11453  13.814   5.397   6.565 -0.1669  0.1387 -0.1190
  803POPS   C4A11454  13.423   5.549   6.661  0.1504  0.2444  0.2333
  803POPS   C1B11455  14.565   5.420   6.614 -0.2001  0.0706 -0.1824
  803POPS   C2B11456  14.823   5.080   6.895  0.2561  0.1562 -0.2106
  803POPS   C3B11457  14.743   4.962   7.282  0.0339 -0.1205 -0.0851
  803POPS   C4B11458  14.588   5.082   7.633  0.1471 -0.1435 -0.0533
  804POPS   CNO11459  16.046   4.595   5.851 -0.4669 -0.1218  0.0949
  804POPS   PO411460  16.029   4.859   5.464 -0.0362 -0.2472  0.0174
  804POPS   GL111461  15.969   5.081   5.839 -0.2110 -0.0351 -0.3392
  804POPS   GL211462  15.766   5.310   5.985  0.0065 -0.1342 -0.0033
  804POPS   C1A11463  15.940   4.934   6.279 -0.0568  0.0494 -0.3559
  804POPS   D2A11464  15.677   5.029   6.531 -0.0844  0.0359 -0.1884
  804POPS   C3A11465  15.292   5.291   6.526 -0.2809 -0.0128  0.0161
  804POPS   C4A11466  15.049   5.563   6.859 -0.1379 -0.1040  0.0192
  804POPS   C1B11467  15.808   5.452   6.353  0.2196 -0.0502  0.0303
  804POPS   C2B11468  16.013   5.318   6.724  0.1892  0.0629 -0.0400
  804POPS   C3B11469  16.260   5.412   7.013 -0.1794 -0.0606  0.2288
  804POPS   C4B11470  16.330   5.620   7.464  0.3008  0.1034  0.0511
  805POPS   CNO11471  12.312  14.837   5.934  0.1536  0.1724 -0.0458
  805POPS   PO411472  12.192  14.418   5.992 -0.2888 -0.0445  0.2173
  805POPS   GL111473  12.212  14.095   6.251 -0.2753 -0.2439 -0.2231
  805POPS   GL211474  12.081  13.815   6.219  0.1303 -0.3411  0.0544
  805POPS   C1A11475  11.996  13.965   6.667  0.1415  0.0407 -0.1167
  805POPS   D2A11476  11.749  13.962   7.131 -0.1306 -0.1275 -0.2310
  805POPS   C3A11477  12.007  13.835   7.461 -0.4980 -0.0086 -0.3224
  805POPS   C4A11478  12.439  13.725   7.499  0.1251  0.1205 -0.2190
  805POPS   C1B11479  12.242  13.470   6.491 -0.2711 -0.0988 -0.0212
  805POPS   C2B11480  12.592  13.241   6.734  0.1041  0.0963 -0.1531
  805POPS   C3B11481  12.607  13.302   7.147  0.0627 -0.2994  0.0418
  805POPS   C4B11482  12.437  13.193   7.604 -0.1242 -0.0651 -0.0202
  806POPS   CNO11483  11.834  11.394   5.405  0.2928  0.2344  0.1185
  806POPS   PO411484  11.776  11.532   5.779  0.3359 -0.0141 -0.2432
  806POPS   GL111485  12.006  11.537   6.136 -0.2417 -0.0381  0.1069
  806POPS   GL211486  12.007  11.272   6.222  0.0741 -0.1885  0.0419
  806POPS   C1A11487  12.390  11.380   6.536 -0.3235  0.1247 -0.3071
  806POPS   D2A11488  12.514  11.555   6.969 -0.4232  0.1031  0.0733
  806POPS   C3A11489  12.619  11.892   7.064  0.0170 -0.0465 -0.1036
  806POPS   C4A11490  12.279  12.333   7.116 -0.0781 -0.2101 -0.2328
  806POPS   C1B11491  11.931  11.315   6.751  0.0201  0.1840 -0.0641
  806POPS   C2B11492  11.628  11.167   7.010 -0.2072 -0.1579  0.0352
  806POPS   C3B11493  11.444  11.358   7.355  0.0098 -0.0784 -0.2906
  806POPS   C4B11494  11.367  11.664   7.723  0.1709 -0.0296  0.0155
  807POPS   CNO11495   4.897  10.858   5.320 -0.0642  0.2150 -0.1520
  807POPS   PO411496   5.144  10.735   5.629 -0.4666  0.0433 -0.1734
  807POPS   GL111497   5.387  10.606   5.979 -0.2863 -0.2683  0.1901
  807POPS   GL211498   5.287  10.849   6.161  0.1551  0.0083  0.0204
  807POPS   C1A11499   5.726  10.693   6.331  0.1841 -0.0830  0.0400
  807POPS   D2A11500   5.572  10.559   6.687 -0.1662 -0.1792  0.2233
  807POPS   C3A11501   5.811  10.532   7.059  0.0033 -0.0258  0.2164
  807POPS   C4A11502   6.146  10.364   7.131 -0.0147 -0.0625 -0.1020
  807POPS   C1B11503   5.460  11.163   6.441 -0.1247 -0.0331  0.0215
  807POPS   C2B11504   5.623  11.229   6.776  0.2180 -0.1211  0.0087
  807POPS   C3B11505   5.768  11.307   7.059  0.1555  0.0914  0.1165
  807POPS   C4B11506   6.092  11.423   7.271  0.0486  0.1960 -0.1469
  808POPS   CNO11507  11.078   9.105   5.685  0.2685 -0.0114  0.0158
  808POPS   PO411508  11.272   8.754   5.686  0.0912 -0.0890 -0.0137
  808POPS   GL111509  11.218   8.697   6.113 -0.2223  0.3312 -0.1090
  808POPS   GL211510  11.080   8.956   6.288  0.1033 -0.1106 -0.0369
  808POPS   C1A11511  11.282   8.424   6.514  0.0771  0.0147 -0.3634
  808POPS   D2A11512  11.402   8.007   6.652  0.0863  0.2269 -0.2371
  808POPS   C3A11513  11.517   7.956   7.032 -0.0277  0.0450 -0.0875
  808POPS   C4A11514  11.581   8.052   7.446 -0.0763 -0.3292 -0.2167
  808POPS   C1B11515  11.239   8.917   6.710 -0.1080  0.1020  0.1452
  808POPS   C2B11516  11.256   8.892   7.156 -0.2599  0.1027 -0.2891
  808POPS   C3B11517  11.357   8.933   7.569 -0.1229 -0.0485 -0.1594
  808POPS   C4B11518  11.727   8.827   7.834 -0.2563  0.2092  0.2672
  809POPS   CNO11519  13.461   7.444   5.894  0.4724  0.0704 -0.0622
  809POPS   PO411520  13.448   7.118   5.766 -0.0254 -0.1723  0.2160
  809POPS   GL111521  13.634   7.055   6.203  0.4114  0.0130  0.0074
  809POPS   GL211522  13.894   6.913   6.304 -0.2794  0.0712  0.1337
  809POPS   C1A11523  13.687   6.970   6.697 -0.2397  0.0152 -0.1584
  809POPS   D2A11524  13.877   7.098   7.145  0.0037  0.1274  0.0377
  809POPS   C3A11525  14.002   6.804   7.479 -0.0976  0.1370  0.1806
  809POPS   C4A11526  13.828   6.565   7.856 -0.0002 -0.2047  0.0978
  809POPS   C1B11527  14.164   6.937   6.751  0.0864 -0.0408  0.2005
  809POPS   C2B11528  14.293   6.618   7.038 -0.0984  0.0260  0.0811
  809POPS   C3B11529  14.276   6.348   7.317  0.1907  0.0501 -0.1906
  809POPS   C4B11530  14.377   6.453   7.687  0.0591  0.2674  0.1288
  810POPS   CNO11531   9.311  13.826   5.494 -0.3277 -0.1441 -0.0835
  810POPS   PO411532   9.404  14.139   5.597 -0.2635  0.0789 -0.4422
  810POPS   GL111533   9.605  14.103   5.997 -0.1275 -0.1580  0.0355
  810POPS   GL211534   9.707  14.412   6.038 -0.2684 -0.0740  0.0142
  810POPS   C1A11535   9.699  14.142   6.462 -0.3323 -0.1340  0.1331
  810POPS   D2A11536   9.889  14.399   6.653  0.3385 -0.3253 -0.1565
  810POPS   C3A11537   9.911  14.745   6.883 -0.1346  0.0097  0.0748
  810POPS   C4A11538  10.024  14.710   7.342 -0.0107  0.1377  0.3229
  810POPS   C1B11539   9.540  14.706   6.248  0.2555  0.1429 -0.1770
  810POPS   C2B11540   9.436  14.742   6.670  0.1405  0.1583 -0.0435
  810POPS   C3B11541   9.590  14.441   7.008  0.0863  0.1556 -0.0201
  810POPS   C4B11542   9.810  14.004   6.986 -0.0419 -0.2063 -0.2987
  811POPS   CNO11543   9.673  15.901   5.275  0.0079 -0.3892 -0.2369
  811POPS   PO411544   9.806  16.043   5.651 -0.1519 -0.0276 -0.1141
  811POPS   GL111545   9.506  15.830   6.017 -0.0845 -0.0826  0.0310
  811POPS   GL211546   9.431  15.921   6.339  0.0070  0.0516 -0.1374
  811POPS   C1A11547   9.513  15.455   6.317  0.1795 -0.3765  0.1368
  811POPS   D2A11548   9.346  15.344   6.739  0.1422 -0.0499 -0.2080
  811POPS   C3A11549   9.275  15.449   7.037  0.0147  0.0977 -0.3220
  811POPS   C4A11550   9.250  15.747   7.318  0.0166 -0.1149 -0.2532
  811POPS   C1B11551   9.303  15.921   6.680  0.2006 -0.1243  0.0373
  811POPS   C2B11552   8.942  15.918   6.885  0.1634  0.0280 -0.2356
  811POPS   C3B11553   8.755  15.691   7.153  0.1211  0.0923 -0.1689
  811POPS   C4B11554   8.492  15.801   7.510 -0.0263 -0.4108 -0.0626
  812YOPS   CNO11555  12.569   7.283   5.787  0.1447  0.0046 -0.3500
  812YOPS   PO411556  12.196   7.286   5.467  0.2732 -0.1496 -0.1817
  812YOPS   GL111557  12.129   6.920   5.830  0.1074 -0.3628 -0.0494
  812YOPS   GL211558  12.292   6.833   5.832 -0.0979 -0.0758 -0.1673
  812YOPS   C1A11559  11.961   6.953   6.256 -0.2751 -0.1447  0.2855
  812YOPS   D2A11560  11.925   6.753   6.640  0.0649 -0.0304  0.2226
  812YOPS   C3A11561  12.100   6.737   7.039  0.1356  0.1778  0.3367
  812YOPS   C4A11562  12.145   6.933   7.451 -0.0497 -0.1914 -0.1261
  812YOPS   C1B11563  12.609   6.849   6.120 -0.1461  0.1139  0.2548
  812YOPS   C2B11564  12.774   6.979   6.422  0.0635 -0.0949 -0.4447
  812YOPS   D3B11565  13.207   6.994   6.635  0.2871 -0.0197  0.0152
  812YOPS   C4B11566  13.273   6.826   7.078 -0.2588  0.0430 -0.0667
  813YOPS   CNO11567  12.059  11.072   5.789  0.0587 -0.3945 -0.0369
  813YOPS   PO411568  12.546  11.079   5.522 -0.3583  0.0560  0.0670
  813YOPS   GL111569  12.449  10.871   5.922  0.0003  0.3364 -0.0990
  813YOPS   GL211570  12.581  11.127   6.017 -0.1259 -0.1658  0.0206
  813YOPS   C1A11571  12.181  10.793   6.307  0.0387 -0.1973  0.2975
  813YOPS   D2A11572  12.136  10.891   6.629  0.1717 -0.1965 -0.0020
  813YOPS   C3A11573  11.954  10.772   7.038  0.2993  0.0542 -0.0380
  813YOPS   C4A11574  11.965  10.877   7.519 -0.0533  0.0707  0.4581
  813YOPS   C1B11575  12.692  10.974   6.431 -0.0322  0.0583 -0.0357
  813YOPS   C2B11576  12.496  11.053   6.926  0.1879  0.0255  0.0011
  813YOPS   D3B11577  12.269  11.177   7.226 -0.1774 -0.0735 -0.3628
  813YOPS   C4B11578  12.557  11.446   7.468  0.1341  0.0642  0.1525
  814YOPS   CNO11579   7.840   1.467   5.321 -0.1392 -0.0501  0.0123
  814YOPS   PO411580   7.623   1.695   5.549 -0.1253  0.1553  0.0421
  814YOPS   GL111581   7.336   1.746   5.914 -0.0338 -0.2326  0.0461
  814YOPS   GL211582   7.244   1.451   5.996  0.1897  0.0370 -0.3179
  814YOPS   C1A11583   7.304   2.012   6.234  0.0834  0.0864 -0.1092
  814YOPS   D2A11584   7.226   2.033   6.628 -0.1720  0.3179 -0.0269
  814YOPS   C3A11585   6.932   2.356   6.895 -0.0455 -0.1392  0.0095
  814YOPS   C4A11586   7.001   2.855   6.834 -0.1387 -0.3150 -0.1239
  814YOPS   C1B11587   7.384   1.517   6.372 -0.0259 -0.0964  0.0567
  814YOPS   C2B11588   7.294   1.462   6.830  0.3019 -0.0088  0.2700
  814YOPS   D3B11589   7.386   1.353   7.303  0.4003 -0.0183  0.2260
  814YOPS   C4B11590   7.214   0.939   7.378 -0.1575 -0.2702 -0.1506
  815YOPS   CNO11591   7.442  13.754   5.091 -0.3282  0.0162 -0.0522
  815YOPS   PO411592   7.561  13.350   5.332  0.4710  0.1136  0.3435
  815YOPS   GL111593   7.453  13.704   5.601  0.0592 -0.1395  0.0165
  815YOPS   GL211594   7.713  13.831   5.575  0.1515 -0.1290 -0.0824
  815YOPS   C1A11595   7.493  13.880   6.036 -0.1456 -0.0898 -0.0270
  815YOPS   D2A11596   7.659  13.754   6.480 -0.2348  0.0116  0.0549
  815YOPS   C3A11597   7.687  13.890   6.865 -0.1273 -0.1465 -0.1760
  815YOPS   C4A11598   7.509  13.855   7.313 -0.1464  0.0446 -0.0156
  815YOPS   C1B11599   7.993  13.884   5.975  0.0492  0.2033 -0.0270
  815YOPS   C2B11600   8.224  14.019   6.217 -0.0459 -0.0040 -0.3330
  815YOPS   D3B11601   8.116  13.937   6.602 -0.2819 -0.3183  0.2288
  815YOPS   C4B11602   8.347  13.615   6.904 -0.4073 -0.1603 -0.1388
  816YOPS   CNO11603   7.161  16.118   4.685 -0.1091  0.2936 -0.1039
  816YOPS   PO411604   6.799  15.929   4.928  0.3157  0.0093  0.1379
  816YOPS   GL111605   6.745  16.059   5.290 -0.0887 -0.0830 -0.0750
  816YOPS   GL211606   6.390  16.143   5.363 -0.0803  0.3733  0.2192
  816YOPS   C1A11607   6.689  15.882   5.723  0.0344  0.1733 -0.0182
  816YOPS   D2A11608   6.711  15.967   6.141  0.0424  0.1230 -0.3080
  816YOPS   C3A11609   6.686  16.310   6.547 -0.0250  0.1209 -0.1432
  816YOPS   C4A11610   7.088  16.227   6.733 -0.2599 -0.0259  0.0976
  816YOPS   C1B11611   6.027  15.897   5.705  0.1851  0.0109 -0.0294
  816YOPS   C2B11612   5.779  15.673   5.972 -0.0509 -0.0382  0.0879
  816YOPS   D3B11613   5.438  15.380   6.169 -0.0151  0.2457  0.3117
  816YOPS   C4B11614   5.318  14.872   5.967 -0.0998  0.0144  0.0213
  817YOPS   CNO11615  15.276  13.501   5.411 -0.0822  0.3135  0.0390
  817YOPS   PO411616  15.141  13.629   5.745 -0.3763  0.0794 -0.1743
  817YOPS   GL111617  15.324  13.630   6.152 -0.1034 -0.1596  0.0473
  817YOPS   GL211618  14.972  13.478   6.283 -0.0118 -0.0467 -0.0169
  817YOPS   C1A11619  15.301  13.783   6.536 -0.2628 -0.1278 -0.0476
  817YOPS   D2A11620  15.077  13.751   6.956 -0.3839 -0.0293  0.2372
  817YOPS   C3A11621  15.281  14.004   7.238  0.0637 -0.0554 -0.0891
  817YOPS   C4A11622  15.545  14.322   7.051  0.1865  0.1875  0.1613
  817YOPS   C1B11623  15.122  13.314   6.752 -0.0392 -0.0441  0.0335
  817YOPS   C2B11624  15.317  13.279   7.182 -0.2027  0.3940 -0.0943
  817YOPS   D3B11625  15.662  13.011   7.312 -0.2502 -0.0314  0.0121
  817YOPS   C4B11626  15.692  13.410   7.625  0.1381  0.0272 -0.0388
  818YOPS   CNO11627  16.508   5.954   6.010  0.0641 -0.0018  0.4743
  818YOPS   PO411628  16.959   5.965   5.868  0.1184 -0.1569 -0.0912
  818YOPS   GL111629  17.217   5.933   6.236 -0.2884 -0.0443 -0.1412
  818YOPS   GL211630  16.952   5.886   6.452 -0.1319  0.2612 -0.0547
  818YOPS   C1A11631  17.481   6.064   6.497 -0.0404  0.4886 -0.0357
  818YOPS   D2A11632  17.545   6.054   6.871 -0.0999  0.2408  0.0724
  818YOPS   C3A11633  17.574   5.616   7.118 -0.0709  0.2774  0.0025
  818YOPS   C4A11634  17.327   5.322   7.387  0.0811  0.0795  0.1314
  818YOPS   C1B11635  17.033   5.928   6.870 -0.0586 -0.1579 -0.0213
  818YOPS   C2B11636  17.134   5.875   7.325  0.0045  0.0216 -0.0123
  818YOPS   D3B11637  17.091   5.959   7.707  0.2320 -0.0277 -0.0495
  818YOPS   C4B11638  17.029   6.362   7.909 -0.1367  0.0566  0.2159
  819YOPS   CNO11639   4.521  13.802   5.089 -0.2947 -0.1558 -0.0267
  819YOPS   PO411640   4.235  13.759   5.441  0.2911 -0.0892 -0.1794
  819YOPS   GL111641   4.259  13.783   5.903  0.3047 -0.0664  0.1261
  819YOPS   GL211642   4.217  14.100   6.075  0.1296 -0.1970  0.2169
  819YOPS   C1A11643   4.237  13.754   6.411  0.0352  0.0168  0.0958
  819YOPS   D2A11644   4.182  13.746   6.860 -0.1107 -0.0828  0.1321
  819YOPS   C3A11645   4.022  13.945   7.092 -0.2174 -0.4810  0.1460
  819YOPS   C4A11646   3.715  13.932   7.339 -0.1954 -0.0146 -0.0344
  819YOPS   C1B11647   4.053  14.195   6.475  0.2066  0.0309  0.0751
  819YOPS   C2B11648   4.051  14.478   6.810  0.3242  0.2368  0.0524
  819YOPS   D3B11649   3.865  14.420   7.240 -0.1230 -0.3982  0.0026
  819YOPS   C4B11650   4.108  14.600   7.645 -0.1754  0.1152 -0.1826
  820YOPS   CNO11651   0.381  11.327   5.214  0.0022 -0.2363 -0.0039
  820YOPS   PO411652   0.328  11.302   5.571 -0.1821 -0.0516  0.1938
  820YOPS   GL111653   0.305  11.618   5.795  0.0639 -0.1246  0.1393
  820YOPS   GL211654   0.156  11.806   5.854  0.2747  0.0269 -0.1132
  820YOPS   C1A11655   0.427  11.467   6.184 -0.3178 -0.0670  0.1257
  820YOPS   D2A11656   0.422  11.568   6.583  0.0872  0.0020  0.1485
  820YOPS   C3A11657   0.198  11.614   7.056  0.2675 -0.1305  0.2167
  820YOPS   C4A11658  -0.150  11.559   7.294 -0.0568  0.0002 -0.3487
  820YOPS   C1B11659   0.099  11.903   6.276 -0.3328  0.0502  0.0614
  820YOPS   C2B11660   0.024  11.923   6.695  0.3414  0.0452 -0.3683
  820YOPS   D3B11661  -0.263  11.941   6.959 -0.0457 -0.1166 -0.1693
  820YOPS   C4B11662  -0.082  12.110   7.401  0.1608 -0.0277  0.2329
  821YOPS   CNO11663   1.388  18.423   5.038 -0.0503 -0.1001  0.1447
  821YOPS   PO411664   1.106  18.337   5.335  0.1745  0.0339  0.0870
  821YOPS   GL111665   1.159  18.305   5.830  0.5063 -0.0983  0.0513
  821YOPS   GL211666   0.943  18.131   5.999 -0.0776 -0.4064 -0.0261
  821YOPS   C1A11667   0.977  18.605   6.206  0.2820 -0.1986 -0.0665
  821YOPS   D2A11668   1.183  18.882   6.595 -0.0502  0.1656 -0.2262
  821YOPS   C3A11669   0.841  19.221   6.671 -0.3048 -0.0620  0.1664
  821YOPS   C4A11670   0.475  18.907   6.802  0.0649 -0.2179 -0.0244
  821YOPS   C1B11671   0.914  18.094   6.374 -0.3313 -0.2692 -0.0073
  821YOPS   C2B11672   1.060  18.058   6.731 -0.0730 -0.0262 -0.0610
  821YOPS   D3B11673   0.885  18.037   7.097 -0.0908  0.0355 -0.1199
  821YOPS   C4B11674   0.670  18.195   7.376  0.1504  0.3624  0.2263
  822YOPS   CNO11675   0.703   2.695   4.865 -0.1852  0.4004 -0.0268
  822YOPS   PO411676   1.026   2.954   5.215 -0.1784  0.0194  0.1459
  822YOPS   GL111677   1.066   2.822   5.694  0.3355 -0.0032  0.1125
  822YOPS   GL211678   0.788   2.909   5.930 -0.2086 -0.0192  0.0710
  822YOPS   C1A11679   1.216   3.199   5.975 -0.1489 -0.2559  0.1667
  822YOPS   D2A11680   1.485   3.387   6.117 -0.0779  0.2657 -0.1678
  822YOPS   C3A11681   1.648   3.551   6.365 -0.1980 -0.1746 -0.2194
  822YOPS   C4A11682   2.110   3.412   6.411  0.3593  0.0358 -0.1458
  822YOPS   C1B11683   0.474   2.638   6.159 -0.3017 -0.0495  0.0457
  822YOPS   C2B11684   0.565   2.342   6.420 -0.0471 -0.0474  0.3168
  822YOPS   D3B11685   0.529   2.073   6.835 -0.0883  0.1513  0.4039
  822YOPS   C4B11686   0.882   2.221   7.167  0.3635  0.0268  0.1521
  823YOPS   CNO11687  13.209   8.802   5.311  0.0310 -0.3712 -0.2973
  823YOPS   PO411688  12.826   8.885   5.503 -0.0876 -0.4904  0.1224
  823YOPS   GL111689  12.784   9.036   5.960 -0.1213  0.3726  0.1309
  823YOPS   GL211690  12.744   8.791   6.201  0.1200 -0.0616 -0.3229
  823YOPS   C1A11691  12.979   9.363   6.109 -0.0210  0.1042  0.1372
  823YOPS   D2A11692  12.752   9.718   6.074 -0.0208 -0.0308  0.0464
  823YOPS   C3A11693  12.882  10.107   6.194 -0.2983 -0.1418 -0.3256
  823YOPS   C4A11694  12.981  10.163   6.509  0.1678 -0.0288 -0.1077
  823YOPS   C1B11695  12.474   8.982   6.384  0.0542  0.1545 -0.4313
  823YOPS   C2B11696  12.394   9.318   6.712  0.2307  0.2243 -0.0028
  823YOPS   D3B11697  12.340   9.173   7.079 -0.0704 -0.1885  0.0059
  823YOPS   C4B11698  12.277   9.456   7.515  0.2485 -0.0313 -0.4225
  824YOPS   CNO11699   8.301   0.869   4.996  0.1374 -0.0412  0.2661
  824YOPS   PO411700   8.463   0.572   5.321  0.0352  0.2411 -0.0223
  824YOPS   GL111701   8.348   0.611   5.871  0.0071  0.0624  0.1289
  824YOPS   GL211702   8.183   0.922   6.021  0.1519 -0.1334 -0.0735
  824YOPS   C1A11703   8.352   0.363   6.335 -0.2342  0.2978  0.1304
  824YOPS   D2A11704   8.269   0.173   6.666 -0.2886 -0.0941 -0.0265
  824YOPS   C3A11705   8.187   0.139   6.947  0.1816  0.2118  0.2015
  824YOPS   C4A11706   8.133  -0.307   6.942 -0.0242  0.1908  0.1157
  824YOPS   C1B11707   8.035   0.798   6.384  0.2285  0.1621 -0.5117
  824YOPS   C2B11708   8.124   0.646   6.759 -0.0353  0.1086  0.1433
  824YOPS   D3B11709   8.019   0.652   7.086  0.0212 -0.1330 -0.3960
  824YOPS   C4B11710   8.306   0.461   7.468 -0.1070 -0.1849 -0.2423
  825YOPS   CNO11711   7.151   0.763   5.357  0.1932  0.2458  0.0643
  825YOPS   PO411712   7.245   0.952   5.769 -0.0298  0.0460 -0.2116
  825YOPS   GL111713   7.133   0.930   6.145 -0.2354 -0.3363  0.1390
  825YOPS   GL211714   7.013   0.671   6.168  0.0594 -0.1741 -0.2631
  825YOPS   C1A11715   7.038   1.075   6.613  0.1899  0.0407 -0.0765
  825YOPS   D2A11716   6.923   1.117   7.037  0.0196 -0.0454 -0.1204
  825YOPS   C3A11717   6.675   0.848   7.370 -0.0976  0.2198 -0.2485
  825YOPS   C4A11718   6.273   0.801   7.371 -0.2616 -0.1300 -0.0821
  825YOPS   C1B11719   6.737   0.406   6.474  0.0297 -0.2365  0.0184
  825YOPS   C2B11720   6.751   0.196   6.833 -0.0794 -0.1454  0.2619
  825YOPS   D3B11721   7.103   0.071   7.020  0.1983 -0.3254 -0.0845
  825YOPS   C4B11722   7.195  -0.334   7.194 -0.1794 -0.0801  0.1275
  826YOPS   CNO11723   3.602   4.908   5.283 -0.1945 -0.0708  0.0848
  826YOPS   PO411724   3.483   4.576   5.484 -0.1422  0.1113 -0.1448
  826YOPS   GL111725   3.672   4.512   5.908 -0.0793 -0.0829 -0.0511
  826YOPS   GL211726   4.034   4.441   5.962 -0.0346 -0.3507 -0.0964
  826YOPS   C1A11727   3.664   4.819   6.247 -0.0565 -0.0378 -0.2720
  826YOPS   D2A11728   4.054   5.024   6.550  0.1668 -0.1704  0.1696
  826YOPS   C3A11729   3.973   5.469   6.692 -0.0096 -0.0778 -0.1664
  826YOPS   C4A11730   3.781   5.667   7.048 -0.1858  0.3190 -0.3690
  826YOPS   C1B11731   4.041   4.443   6.430  0.1256 -0.1190  0.2056
  826YOPS   C2B11732   4.031   4.183   6.879 -0.0532 -0.2431  0.2658
  826YOPS   D3B11733   3.848   4.247   7.366  0.0732  0.1757  0.2548
  826YOPS   C4B11734   4.092   4.126   7.719 -0.0335  0.1672 -0.1267
  827YOPS   CNO11735   6.034   4.773   5.794  0.1842  0.1420  0.4139
  827YOPS   PO411736   6.183   5.250   5.703  0.0249 -0.2826 -0.0368
  827YOPS   GL111737   6.127   5.206   6.192 -0.0638  0.5089 -0.2355
  827YOPS   GL211738   5.911   4.976   6.296  0.0038 -0.2007  0.2229
  827YOPS   C1A11739   6.083   5.439   6.574 -0.1333 -0.2052 -0.2377
  827YOPS   D2A11740   5.937   5.496   7.064 -0.1448 -0.0086  0.0243
  827YOPS   C3A11741   5.913   5.637   7.504  0.4758 -0.1130  0.2878
  827YOPS   C4A11742   5.464   5.448   7.716  0.1457  0.0965 -0.0222
  827YOPS   C1B11743   5.878   5.013   6.761 -0.1707  0.0707 -0.0724
  827YOPS   C2B11744   5.941   4.762   7.182  0.2253  0.2596  0.1529
  827YOPS   D3B11745   5.919   4.509   7.529  0.2494  0.1215  0.0455
  827YOPS   C4B11746   5.812   4.736   7.840  0.0014 -0.1593 -0.0344
  828YOPS   CNO11747   7.125  10.466   5.534 -0.0705  0.2205  0.2807
  828YOPS   PO411748   7.378   9.973   5.513  0.1603  0.1291  0.0081
  828YOPS   GL111749   7.365  10.112   5.830  0.0278  0.0535 -0.3628
  828YOPS   GL211750   7.537  10.374   5.863  0.1066 -0.1270  0.0884
  828YOPS   C1A11751   7.225  10.208   6.353 -0.0954 -0.1808  0.0621
  828YOPS   D2A11752   7.046  10.130   6.815 -0.0182  0.2144  0.0943
  828YOPS   C3A11753   6.858   9.859   7.194  0.1426  0.0251  0.1438
  828YOPS   C4A11754   6.877   9.462   7.206 -0.0547  0.1965  0.0179
  828YOPS   C1B11755   7.651  10.434   6.370 -0.2224 -0.1941  0.0789
  828YOPS   C2B11756   7.474  10.915   6.632 -0.2672  0.2557  0.0698
  828YOPS   D3B11757   7.585  10.923   7.142 -0.0755  0.2296 -0.1571
  828YOPS   C4B11758   7.797  10.577   7.202 -0.2847 -0.0442 -0.1202
  829YOPS   CNO11759  10.692   7.445   5.859 -0.0033 -0.1290  0.0813
  829YOPS   PO411760  10.565   7.112   5.708 -0.0255 -0.1233 -0.1926
  829YOPS   GL111761  10.603   7.039   6.155  0.2023 -0.2042  0.0284
  829YOPS   GL211762  10.848   7.195   6.342  0.0487 -0.3246  0.0280
  829YOPS   C1A11763  10.378   7.141   6.549 -0.0824 -0.2215  0.0079
  829YOPS   D2A11764  10.379   7.267   6.978 -0.1432  0.1220  0.0400
  829YOPS   C3A11765  10.305   7.395   7.347  0.0357 -0.3172 -0.1932
  829YOPS   C4A11766  10.149   7.187   7.691 -0.1386  0.2067  0.2857
  829YOPS   C1B11767  10.857   7.350   6.779  0.1672 -0.2690 -0.2978
  829YOPS   C2B11768  10.797   7.392   7.226 -0.4155  0.2667  0.0477
  829YOPS   D3B11769  11.024   7.460   7.610  0.1473  0.0483  0.1149
  829YOPS   C4B11770  11.404   7.390   7.772  0.0268  0.0420  0.0471
  830YOPS   CNO11771   7.794   8.874   5.227  0.0927  0.2203  0.0412
  830YOPS   PO411772   7.958   9.216   5.340  0.1297  0.0357  0.0829
  830YOPS   GL111773   8.002   9.158   5.839 -0.1576 -0.0132  0.1768
  830YOPS   GL211774   8.353   9.096   6.027  0.1482  0.1358 -0.0096
  830YOPS   C1A11775   8.051   9.544   6.252  0.0151  0.2212 -0.0128
  830YOPS   D2A11776   7.828   9.643   6.584 -0.0792 -0.0686  0.0027
  830YOPS   C3A11777   7.734   9.576   7.062 -0.0410  0.4103  0.0714
  830YOPS   C4A11778   7.923   9.788   7.536 -0.1366 -0.1915 -0.2721
  830YOPS   C1B11779   8.531   9.319   6.398  0.0617  0.0638 -0.2151
  830YOPS   C2B11780   8.626   9.308   6.840 -0.2339 -0.0570 -0.0808
  830YOPS   D3B11781   8.483   9.262   7.244 -0.0178 -0.1589 -0.0593
  830YOPS   C4B11782   8.554   9.100   7.682  0.2664  0.1041 -0.2258
  831YOPS   CNO11783  15.123  16.903   5.841 -0.1239  0.2168  0.0725
  831YOPS   PO411784  14.932  17.017   6.269  0.0937 -0.1805 -0.1341
  831YOPS   GL111785  14.900  16.764   6.539  0.1396 -0.2468 -0.0751
  831YOPS   GL211786  14.722  16.464   6.627 -0.4538 -0.0833 -0.3732
  831YOPS   C1A11787  14.925  16.792   6.991 -0.1106  0.0137  0.1204
  831YOPS   D2A11788  14.778  16.585   7.352 -0.2210  0.3071  0.1081
  831YOPS   C3A11789  14.683  16.632   7.818  0.1799 -0.2128  0.1132
  831YOPS   C4A11790  14.886  16.831   8.208 -0.0013 -0.1392 -0.1116
  831YOPS   C1B11791  14.603  16.259   7.005 -0.1057 -0.1259  0.0642
  831YOPS   C2B11792  14.605  16.104   7.508  0.3207 -0.1966  0.0644
  831YOPS   D3B11793  14.479  16.171   7.999  0.1167 -0.1045 -0.0366
  831YOPS   C4B11794  14.163  15.941   8.217 -0.3571 -0.3133 -0.0141
  832YOPS   CNO11795  17.878  17.491   6.051  0.2424  0.1320 -0.1474
  832YOPS   PO411796  17.594  17.795   5.898  0.1149  0.2217  0.1005
  832YOPS   GL111797  17.628  18.081   6.162 -0.1650 -0.1099 -0.0655
  832YOPS   GL211798  17.959  18.011   6.174 -0.0350  0.1210  0.1725
  832YOPS   C1A11799  17.708  18.214   6.573  0.1566 -0.0580 -0.2211
  832YOPS   D2A11800  17.514  18.462   6.769  0.0512 -0.1912  0.0657
  832YOPS   C3A11801  17.497  18.758   7.052  0.3072  0.0286  0.1680
  832YOPS   C4A11802  17.875  18.774   7.194 -0.2871  0.0669 -0.0738
  832YOPS   C1B11803  18.416  18.108   6.372  0.0805 -0.3067 -0.0870
  832YOPS   C2B11804  18.766  18.379   6.174 -0.1496  0.0789 -0.2691
  832YOPS   D3B11805  19.025  18.791   6.153  0.1157 -0.0124  0.3924
  832YOPS   C4B11806  19.326  18.913   6.326 -0.2728  0.1763  0.0961
  833YOPS   CNO11807   9.280   6.397   5.669  0.2896 -0.1507  0.2810
  833YOPS   PO411808   8.970   6.132   5.855 -0.0245 -0.0673  0.4538
  833YOPS   GL111809   8.650   6.438   6.110 -0.2566 -0.3525  0.0582
  833YOPS   GL211810   8.540   6.764   6.028 -0.3799  0.1801  0.1624
  833YOPS   C1A11811   8.485   6.440   6.589 -0.1384  0.0661  0.3488
  833YOPS   D2A11812   8.272   6.494   6.987 -0.1772  0.0826  0.1076
  833YOPS   C3A11813   8.018   6.273   7.134 -0.1192  0.2172  0.3166
  833YOPS   C4A11814   8.094   5.880   6.941  0.3660  0.0070 -0.0871
  833YOPS   C1B11815   8.386   6.867   6.359  0.2576  0.2231 -0.2535
  833YOPS   C2B11816   8.328   6.911   6.780 -0.0385 -0.3014  0.2112
  833YOPS   D3B11817   8.155   7.035   7.184  0.0521  0.1127  0.2289
  833YOPS   C4B11818   8.220   6.728   7.544  0.0327 -0.0237 -0.2719
  834YOPS   CNO11819   6.916   3.201   5.517 -0.1183 -0.3521  0.1288
  834YOPS   PO411820   6.829   3.304   5.912 -0.1271 -0.1011 -0.2650
  834YOPS   GL111821   6.818   3.204   6.428  0.3480 -0.0711  0.0509
  834YOPS   GL211822   6.557   2.988   6.442 -0.1765 -0.1590  0.0385
  834YOPS   C1A11823   6.713   3.297   6.837  0.0234 -0.3208  0.0514
  834YOPS   D2A11824   6.611   3.218   7.240 -0.3342 -0.0460  0.0265
  834YOPS   C3A11825   6.763   2.945   7.453 -0.1427 -0.1398  0.0847
  834YOPS   C4A11826   7.006   2.710   7.304 -0.2772 -0.1201  0.2916
  834YOPS   C1B11827   6.256   2.993   6.667  0.1220  0.0558 -0.1292
  834YOPS   C2B11828   6.155   3.195   6.961 -0.1530  0.0595  0.4528
  834YOPS   D3B11829   6.314   3.658   6.998  0.1047  0.0349  0.1913
  834YOPS   C4B11830   6.410   3.891   6.702  0.1000 -0.0262  0.4520
  835YOPS   CNO11831  14.987   2.574   5.606 -0.1380  0.1514  0.0560
  835YOPS   PO411832  15.068   2.588   6.109 -0.0676 -0.4648 -0.1261
  835YOPS   GL111833  14.818   2.743   6.358 -0.0650 -0.4161  0.0660
  835YOPS   GL211834  14.632   2.949   6.282  0.1861 -0.1076  0.1468
  835YOPS   C1A11835  14.940   2.958   6.727 -0.2818  0.0006  0.1341
  835YOPS   D2A11836  14.877   3.053   7.115  0.3184 -0.3207  0.1178
  835YOPS   C3A11837  14.830   3.130   7.566  0.0805 -0.1479 -0.0716
  835YOPS   C4A11838  15.055   2.761   7.626 -0.2707 -0.3631 -0.1802
  835YOPS   C1B11839  14.480   3.209   6.698  0.0596  0.0977 -0.0195
  835YOPS   C2B11840  14.508   3.593   6.748 -0.0047  0.1502 -0.0886
  835YOPS   D3B11841  14.703   3.981   6.706  0.2939 -0.0215  0.1754
  835YOPS   C4B11842  15.030   3.821   6.517  0.1471 -0.1927 -0.0876
  836YOPS   CNO11843  11.911   2.361   5.622 -0.0362 -0.0095 -0.3625
  836YOPS   PO411844  11.832   2.595   5.960 -0.3133  0.1214  0.0259
  836YOPS   GL111845  11.822   2.490   6.331 -0.1180 -0.2698 -0.0911
  836YOPS   GL211846  12.079   2.572   6.463  0.1869 -0.1742 -0.0814
  836YOPS   C1A11847  11.647   2.257   6.581 -0.0478  0.0833  0.0368
  836YOPS   D2A11848  11.448   2.299   6.928 -0.0655  0.0132  0.1567
  836YOPS   C3A11849  11.301   2.315   7.350 -0.2449 -0.1594 -0.0014
  836YOPS   C4A11850  11.478   2.464   7.621  0.2589 -0.0880  0.0988
  836YOPS   C1B11851  11.959   2.507   6.825  0.2355 -0.1503 -0.2094
  836YOPS   C2B11852  11.879   2.349   7.217  0.1130  0.4085  0.0863
  836YOPS   D3B11853  11.779   1.995   7.307 -0.1272  0.0216 -0.1760
  836YOPS   C4B11854  12.070   1.709   7.438 -0.1769  0.0376  0.4132
  837YOPS   CNO11855   3.206   1.438   5.051 -0.0152  0.2232 -0.0383
  837YOPS   PO411856   3.550   1.606   5.269 -0.0683 -0.0357 -0.2644
  837YOPS   GL111857   3.334   1.146   5.425 -0.2846  0.0129  0.2772
  837YOPS   GL211858   3.101   1.333   5.559  0.2495 -0.0124 -0.2936
  837YOPS   C1A11859   3.517   1.052   5.771  0.1401 -0.1069  0.0207
  837YOPS   D2A11860   3.603   1.110   6.218  0.0183  0.0403  0.2230
  837YOPS   C3A11861   3.539   1.403   6.459  0.0862 -0.0160 -0.2425
  837YOPS   C4A11862   3.348   1.780   6.315 -0.2576  0.0696 -0.2256
  837YOPS   C1B11863   3.323   1.427   6.011  0.1793 -0.0115 -0.0161
  837YOPS   C2B11864   3.024   1.373   6.363  0.3800 -0.1921 -0.1279
  837YOPS   D3B11865   2.896   1.522   6.730  0.0353  0.0030 -0.1479
  837YOPS   C4B11866   3.000   1.295   7.179  0.1584  0.0808 -0.4409
  838YOPS   CNO11867   7.075   2.534   5.398  0.0233  0.1121 -0.0406
  838YOPS   PO411868   6.843   2.626   5.782 -0.2052  0.1212  0.0718
  838YOPS   GL111869   6.648   2.455   6.135  0.0467  0.4068 -0.1184
  838YOPS   GL211870   6.928   2.472   6.292 -0.0584 -0.2494 -0.0988
  838YOPS   C1A11871   6.527   2.473   6.627 -0.0729 -0.0155 -0.0180
  838YOPS   D2A11872   6.542   2.712   6.971  0.0678  0.1944  0.1738
  838YOPS   C3A11873   6.284   2.810   7.257 -0.0945  0.0599  0.1247
  838YOPS   C4A11874   6.310   3.085   7.649 -0.3048  0.2802 -0.0714
  838YOPS   C1B11875   7.311   2.534   6.514  0.0487  0.4067 -0.2396
  838YOPS   C2B11876   7.417   2.494   6.990  0.0345 -0.0929 -0.3224
  838YOPS   D3B11877   7.509   2.482   7.393 -0.2170  0.0144  0.2418
  838YOPS   C4B11878   7.545   2.292   7.850  0.2329 -0.1922  0.2557
  839YOPS   CNO11879   9.091  17.571   5.532 -0.2053 -0.1452 -0.2284
  839YOPS   PO411880   8.613  17.560   5.447  0.0583  0.0651  0.0851
  839YOPS   GL111881   8.722  17.717   5.836  0.2132  0.0929 -0.4279
  839YOPS   GL211882   8.606  18.136   5.934 -0.2330  0.0817 -0.2629
  839YOPS   C1A11883   8.680  17.620   6.261 -0.2882  0.0202  0.0459
  839YOPS   D2A11884   8.589  17.662   6.725 -0.0774  0.1892  0.2763
  839YOPS   C3A11885   8.618  17.673   7.161 -0.0084 -0.0895  0.1759
  839YOPS   C4A11886   8.274  17.787   7.393  0.1404 -0.0886  0.0522
  839YOPS   C1B11887   8.508  18.085   6.387  0.1514  0.2702  0.2263
  839YOPS   C2B11888   8.440  18.119   6.792  0.0047  0.0154 -0.0572
  839YOPS   D3B11889   8.486  18.176   7.178 -0.1741 -0.3197 -0.0200
  839YOPS   C4B11890   8.185  18.251   7.440 -0.0005 -0.0327  0.0737
  840YOPS   CNO11891   4.621   3.823   5.117 -0.0721 -0.4003 -0.1696
  840YOPS   PO411892   4.934   3.982   5.348 -0.2798 -0.1873  0.0185
  840YOPS   GL111893   4.897   3.970   5.848 -0.0938  0.0568  0.0374
  840YOPS   GL211894   5.103   4.180   6.099 -0.1348 -0.0359  0.0880
  840YOPS   C1A11895   4.727   3.879   6.269 -0.4066  0.0252  0.1036
  840YOPS   D2A11896   4.892   3.801   6.734  0.1033 -0.1573 -0.1505
  840YOPS   C3A11897   4.767   3.873   7.234 -0.0592  0.1861  0.4329
  840YOPS   C4A11898   4.605   3.636   7.511  0.0407 -0.3817 -0.1033
  840YOPS   C1B11899   4.934   4.272   6.509  0.1433  0.0599 -0.0333
  840YOPS   C2B11900   4.845   4.269   6.938  0.0108  0.0450 -0.0431
  840YOPS   D3B11901   4.943   4.370   7.327 -0.2337 -0.3502 -0.0844
  840YOPS   C4B11902   4.737   4.698   7.542 -0.0605 -0.1035 -0.2345
  841YOPS   CNO11903  10.606  13.004   5.254  0.3646  0.1608 -0.0406
  841YOPS   PO411904  10.988  13.153   5.405  0.0074 -0.0235 -0.0819
  841YOPS   GL111905  10.597  13.106   5.730  0.0012 -0.0207 -0.2807
  841YOPS   GL211906  10.729  12.775   5.665  0.3857  0.0020 -0.0047
  841YOPS   C1A11907  10.378  12.989   6.111 -0.1608 -0.2399 -0.3078
  841YOPS   D2A11908  10.281  12.829   6.511 -0.1212  0.2513 -0.1242
  841YOPS   C3A11909  10.006  12.895   6.934 -0.3672  0.1069  0.1608
  841YOPS   C4A11910  10.208  12.846   7.339  0.1506  0.1230 -0.1214
  841YOPS   C1B11911  10.807  12.627   6.008  0.2369  0.1426 -0.0353
  841YOPS   C2B11912  10.772  12.730   6.510 -0.2213 -0.1013  0.0752
  841YOPS   D3B11913  11.089  12.696   6.927 -0.1635  0.0724 -0.0458
  841YOPS   C4B11914  10.972  12.667   7.361 -0.2375  0.3224  0.3703
  842POPE   NH311915  13.683  11.774   5.729 -0.1992 -0.1611 -0.0408
  842POPE   PO411916  13.324  11.413   5.710 -0.2174 -0.0845 -0.2182
  842POPE   GL111917  13.238  11.445   6.212  0.2497 -0.2041  0.1425
  842POPE   GL211918  12.930  11.420   6.343 -0.1378  0.0578 -0.2040
  842POPE   C1A11919  13.463  11.280   6.532  0.1594  0.2045  0.0181
  842POPE   D2A11920  13.476  11.198   6.915  0.0794  0.1135 -0.1077
  842POPE   C3A11921  13.848  11.456   7.040 -0.1033  0.5355 -0.0653
  842POPE   C4A11922  14.156  11.165   6.933  0.2830 -0.0757 -0.1790
  842POPE   C1B11923  12.989  11.348   6.765  0.1574  0.0492 -0.0244
  842POPE   C2B11924  13.069  11.284   7.237  0.0118 -0.1473  0.0684
  842POPE   C3B11925  13.228  11.080   7.564  0.2922 -0.0299 -0.0999
  842POPE   C4B11926  13.469  10.641   7.706 -0.3034 -0.2963 -0.0555
  843POPE   NH311927   0.465   3.179   5.729  0.0976  0.1014 -0.1651
  843POPE   PO411928   0.464   3.589   5.551  0.1195 -0.1143  0.2187
  843POPE   GL111929   0.165   3.553   5.926  0.0342  0.0719 -0.1450
  843POPE   GL211930  -0.096   3.677   6.011 -0.2126 -0.2211  0.0779
  843POPE   C1A11931   0.252   3.455   6.410 -0.0761 -0.1043  0.0170
  843POPE   D2A11932   0.257   3.300   6.839  0.1491 -0.1287  0.1245
  843POPE   C3A11933   0.592   3.160   7.006 -0.1832 -0.2444  0.0504
  843POPE   C4A11934   0.860   3.212   7.416 -0.1402 -0.0391  0.0414
  843POPE   C1B11935   0.125   3.920   6.315  0.0707  0.2621  0.2313
  843POPE   C2B11936   0.172   3.816   6.791 -0.2306  0.0092  0.1045
  843POPE   C3B11937   0.254   4.018   7.114  0.1209 -0.1720  0.0291
  843POPE   C4B11938   0.272   4.088   7.490  0.0269 -0.1110 -0.0857
  844POPE   NH311939  10.148   3.274   5.205  0.2042  0.2505  0.2207
  844POPE   PO411940   9.745   3.127   5.454 -0.1621 -0.1833  0.3349
  844POPE   GL111941   9.766   3.125   5.919 -0.1511  0.0534 -0.1793
  844POPE   GL211942   9.862   3.306   6.135 -0.3238 -0.1371 -0.4471
  844POPE   C1A11943   9.720   2.883   6.300  0.1128  0.0158 -0.0782
  844POPE   D2A11944   9.703   2.570   6.637  0.1186  0.0101 -0.0703
  844POPE   C3A11945   9.567   2.127   6.627  0.1104 -0.0648  0.1316
  844POPE   C4A11946   9.117   1.984   6.672  0.1365  0.0706 -0.0430
  844POPE   C1B11947   9.603   3.375   6.494  0.0019 -0.1792 -0.3544
  844POPE   C2B11948   9.582   3.021   6.854 -0.1145 -0.0520  0.1534
  844POPE   C3B11949   9.754   2.662   7.103 -0.1692 -0.1501  0.2071
  844POPE   C4B11950  10.076   2.463   6.935  0.1682  0.0012  0.0217
  845POPE   NH311951   2.413   7.161   5.433 -0.2526 -0.0654  0.1758
  845POPE   PO411952   2.298   6.737   5.306  0.1284  0.0463 -0.0629
  845POPE   GL111953   2.475   6.668   5.624 -0.0521 -0.2105 -0.0336
  845POPE   GL211954   2.375   6.836   5.820  0.2344  0.1810 -0.1047
  845POPE   C1A11955   2.554   6.298   5.826 -0.1904  0.2227 -0.1039
  845POPE   D2A11956   2.675   6.047   6.189  0.1143  0.0320  0.0814
  845POPE   C3A11957   2.682   6.307   6.639 -0.2825 -0.0157 -0.0834
  845POPE   C4A11958   2.727   6.165   7.027  0.0403  0.1065 -0.2877
  845POPE   C1B11959   2.574   6.567   6.215  0.1549  0.1918 -0.1355
  845POPE   C2B11960   3.036   6.346   6.261 -0.1008  0.1734 -0.3578
  845POPE   C3B11961   3.239   6.249   6.735 -0.0216 -0.3483  0.0254
  845POPE   C4B11962   3.372   6.254   7.154  0.1186  0.1720  0.3333
  846POPE   NH311963   3.278  12.919   5.334  0.0643 -0.2542  0.1217
  846POPE   PO411964   3.399  13.291   5.395  0.2284  0.1661  0.1137
  846POPE   GL111965   3.642  13.506   5.725  0.1440 -0.5456  0.1717
  846POPE   GL211966   3.894  13.410   5.846 -0.2057  0.0093 -0.1405
  846POPE   C1A11967   3.796  13.756   6.160  0.1483  0.1862 -0.0902
  846POPE   D2A11968   3.758  13.811   6.564 -0.0980  0.2875  0.2548
  846POPE   C3A11969   3.639  14.228   6.836  0.2352  0.2928  0.1006
  846POPE   C4A11970   3.384  14.426   7.252  0.1586  0.1816  0.1715
  846POPE   C1B11971   3.988  13.309   6.196 -0.4558  0.4401  0.1742
  846POPE   C2B11972   3.999  13.313   6.644  0.0627  0.0103  0.3526
  846POPE   C3B11973   4.297  13.282   6.978  0.3331 -0.2529 -0.2825
  846POPE   C4B11974   4.110  13.075   7.376 -0.0192 -0.2879  0.1553
  847POPE   NH311975   4.831   1.809   5.220 -0.2400 -0.2074  0.0192
  847POPE   PO411976   4.462   1.630   5.278 -0.1688  0.0990  0.0054
  847POPE   GL111977   4.509   1.643   5.697  0.0309 -0.0421  0.1438
  847POPE   GL211978   4.365   1.364   5.818 -0.4908  0.3289 -0.3248
  847POPE   C1A11979   4.497   1.652   6.164 -0.0452  0.0418  0.2135
  847POPE   D2A11980   4.405   1.328   6.539 -0.1400 -0.0236  0.2194
  847POPE   C3A11981   4.450   1.437   7.031  0.0160 -0.0105  0.0690
  847POPE   C4A11982   4.332   1.375   7.360  0.0205 -0.3900 -0.0907
  847POPE   C1B11983   4.060   1.124   6.073 -0.0897 -0.2034 -0.1639
  847POPE   C2B11984   3.962   1.148   6.589 -0.1435 -0.0216 -0.0802
  847POPE   C3B11985   3.639   1.062   6.916  0.1173 -0.1313 -0.1125
  847POPE   C4B11986   3.349   0.861   7.169 -0.1337  0.2620  0.1079
  848POPE   NH311987  14.928  15.220   5.982 -0.0892  0.0053 -0.2724
  848POPE   PO411988  15.017  15.611   6.082  0.1096 -0.3451  0.0167
  848POPE   GL111989  14.796  15.428   6.411  0.1043  0.1737  0.1313
  848POPE   GL211990  14.452  15.501   6.419 -0.2878 -0.1416  0.0788
  848POPE   C1A11991  14.658  15.260   6.847  0.1946 -0.4045  0.1912
  848POPE   D2A11992  14.680  15.112   7.191  0.0845  0.1163 -0.0342
  848POPE   C3A11993  14.694  14.878   7.548 -0.0462 -0.1920 -0.1182
  848POPE   C4A11994  14.794  14.496   7.617 -0.0490  0.1012  0.3053
  848POPE   C1B11995  14.274  15.712   6.886 -0.0500  0.1818  0.1046
  848POPE   C2B11996  14.366  15.605   7.309  0.1173  0.0491  0.1360
  848POPE   C3B11997  14.390  15.283   7.638 -0.3896 -0.4422 -0.2246
  848POPE   C4B11998  14.717  15.252   7.891  0.0302  0.0214  0.1045
  849POPE   NH311999   9.016  14.434   5.565  0.1494  0.0611 -0.1789
  849POPE   PO412000   8.662  14.831   5.414 -0.1547  0.1559  0.1026
  849POPE   GL112001   8.523  15.137   5.706  0.4234 -0.1262 -0.0465
  849POPE   GL212002   8.170  15.136   5.633 -0.0257  0.0937 -0.0906
  849POPE   C1A12003   8.252  15.367   6.034 -0.0366  0.2219 -0.2931
  849POPE   D2A12004   7.976  15.360   6.385  0.0787 -0.2060 -0.0356
  849POPE   C3A12005   7.853  15.574   6.601 -0.2401 -0.0138  0.2320
  849POPE   C4A12006   8.012  15.616   6.968 -0.1996 -0.0768 -0.2107
  849POPE   C1B12007   7.947  14.897   6.056  0.0278  0.2634 -0.1625
  849POPE   C2B12008   7.854  14.937   6.599  0.1387  0.5075 -0.2280
  849POPE   C3B12009   8.116  15.121   6.864  0.2383 -0.1880  0.0783
  849POPE   C4B12010   8.336  15.369   7.179 -0.0780  0.1882 -0.0707
  850POPE   NH312011   0.864   1.856   5.280  0.0741  0.0904 -0.1563
  850POPE   PO412012   0.601   1.466   5.308  0.2652 -0.0606  0.1312
  850POPE   GL112013   0.884   1.597   5.661 -0.0832  0.0230 -0.1633
  850POPE   GL212014   0.829   1.855   5.882  0.4771  0.1886  0.0368
  850POPE   C1A12015   1.349   1.761   5.928 -0.1115  0.1913 -0.1254
  850POPE   D2A12016   1.533   1.757   6.313 -0.0316  0.2292  0.1310
  850POPE   C3A12017   1.368   1.445   6.563 -0.1641 -0.2276  0.0731
  850POPE   C4A12018   1.019   1.287   6.764  0.1227  0.2202 -0.1310
  850POPE   C1B12019   1.026   2.207   6.014  0.3089 -0.0835 -0.0677
  850POPE   C2B12020   0.983   2.509   6.165 -0.1791  0.1887  0.1455
  850POPE   C3B12021   0.971   2.855   6.416 -0.3272  0.2509 -0.4945
  850POPE   C4B12022   1.059   3.049   6.798 -0.1093 -0.1053 -0.0648
  851POPE   NH312023  16.774   5.548   6.132  0.0740  0.1780 -0.5063
  851POPE   PO412024  16.816   5.214   6.043  0.1639  0.1986 -0.1728
  851POPE   GL112025  17.223   5.026   6.135  0.1224 -0.0890 -0.1677
  851POPE   GL212026  17.524   4.971   5.962  0.1474  0.0401 -0.0438
  851POPE   C1A12027  17.410   5.038   6.525  0.4630  0.0129  0.1383
  851POPE   D2A12028  17.615   5.220   6.824 -0.0078 -0.0194 -0.0881
  851POPE   C3A12029  17.837   5.158   7.280 -0.0035 -0.0581  0.4999
  851POPE   C4A12030  17.757   5.262   7.771 -0.0017 -0.2983 -0.3223
  851POPE   C1B12031  17.856   4.665   6.222 -0.0204 -0.4577  0.1380
  851POPE   C2B12032  17.917   4.301   6.505 -0.0941  0.1591  0.0913
  851POPE   C3B12033  18.002   3.945   6.730  0.0224 -0.0823 -0.4546
  851POPE   C4B12034  17.922   3.547   6.987  0.0162 -0.4285 -0.0120
  852POPE   NH312035  17.671  16.605   5.984  0.0157  0.1020  0.0789
  852POPE   PO412036  17.268  16.888   5.971 -0.1056 -0.1492 -0.0975
  852POPE   GL112037  17.103  17.074   6.357  0.1788 -0.1224 -0.0650
  852POPE   GL212038  16.759  17.152   6.398 -0.0948 -0.3706  0.2197
  852POPE   C1A12039  17.338  16.889   6.705  0.0021 -0.0173  0.3481
  852POPE   D2A12040  17.560  16.813   7.006  0.1967  0.0182 -0.1829
  852POPE   C3A12041  17.316  16.714   7.362 -0.1272  0.0623 -0.1623
  852POPE   C4A12042  17.116  16.802   7.738 -0.0819  0.2082 -0.0966
  852POPE   C1B12043  16.746  17.278   6.783  0.3229  0.2349 -0.3820
  852POPE   C2B12044  16.833  17.442   7.163 -0.1984 -0.1888 -0.0018
  852POPE   C3B12045  16.763  17.495   7.622 -0.0170  0.0885  0.1716
  852POPE   C4B12046  16.484  17.540   7.967 -0.1599 -0.0604  0.2712
  853POPE   NH312047   4.990  14.535   5.508 -0.0851  0.1291  0.2725
  853POPE   PO412048   4.526  14.686   5.529  0.1832 -0.0784 -0.0952
  853POPE   GL112049   4.556  14.572   5.927 -0.1112 -0.1407 -0.1569
  853POPE   GL212050   4.785  14.365   5.957  0.2887 -0.4430 -0.0143
  853POPE   C1A12051   4.493  14.510   6.430  0.2449 -0.2504 -0.0708
  853POPE   D2A12052   4.473  14.213   6.814  0.2593 -0.0061 -0.0125
  853POPE   C3A12053   4.396  14.216   7.263 -0.0131  0.2195  0.0868
  853POPE   C4A12054   4.584  14.085   7.635  0.2014 -0.0038 -0.0861
  853POPE   C1B12055   4.970  14.368   6.286 -0.1102 -0.2376 -0.0332
  853POPE   C2B12056   5.016  14.412   6.711  0.2626  0.0768  0.0893
  853POPE   C3B12057   4.903  14.301   7.196 -0.2409  0.0415  0.1458
  853POPE   C4B12058   5.118  13.916   7.511  0.0220  0.0810 -0.0821
  854POPE   NH312059  18.304   1.689   5.792  0.1693  0.1650 -0.3978
  854POPE   PO412060  18.356   1.342   5.585  0.0829 -0.2421  0.5131
  854POPE   GL112061  18.269   1.154   5.958  0.1328 -0.1019  0.0308
  854POPE   GL212062  17.981   1.051   6.029 -0.0380 -0.2737  0.2380
  854POPE   C1A12063  18.413   1.060   6.413 -0.0321 -0.0688  0.1782
  854POPE   D2A12064  18.152   1.157   6.793  0.0196  0.0654 -0.3867
  854POPE   C3A12065  17.988   0.845   7.057 -0.1076 -0.1504 -0.4348
  854POPE   C4A12066  17.715   0.935   7.452 -0.0345 -0.1227 -0.1249
  854POPE   C1B12067  18.005   1.399   6.364  0.1974 -0.0394  0.1774
  854POPE   C2B12068  18.010   1.647   6.712 -0.1225  0.1730  0.0334
  854POPE   C3B12069  18.094   1.740   7.152 -0.3045 -0.0527 -0.0944
  854POPE   C4B12070  18.216   2.075   7.543  0.0137  0.2217  0.0201
  855POPE   NH312071  12.244   0.487   5.915  0.0667 -0.0029  0.1784
  855POPE   PO412072  12.523   0.099   5.819  0.1368  0.3345  0.2635
  855POPE   GL112073  12.602   0.252   6.171 -0.2801 -0.2188 -0.1023
  855POPE   GL212074  12.585   0.064   6.425 -0.1424  0.0513 -0.0793
  855POPE   C1A12075  12.831   0.596   6.388 -0.0342  0.2135 -0.1175
  855POPE   D2A12076  13.012   0.815   6.771  0.2061  0.1114  0.2401
  855POPE   C3A12077  13.515   0.709   6.768  0.1107 -0.0713 -0.1608
  855POPE   C4A12078  13.766   0.378   6.870  0.0885 -0.1107 -0.0208
  855POPE   C1B12079  12.680   0.267   6.719 -0.3028 -0.1120  0.1122
  855POPE   C2B12080  12.761   0.284   7.125 -0.1506 -0.3392 -0.0627
  855POPE   C3B12081  12.727   0.337   7.552 -0.1922  0.1463  0.0535
  855POPE   C4B12082  12.976   0.684   7.716  0.1511  0.2150  0.3378
  856POPE   NH312083   9.361   5.866   5.684  0.1818  0.1972  0.0030
  856POPE   PO412084   9.337   5.441   5.677 -0.2362 -0.3370  0.1691
  856POPE   GL112085   9.291   5.287   6.041  0.1454  0.1041  0.0573
  856POPE   GL212086   9.238   5.593   6.143 -0.3113  0.1813 -0.0598
  856POPE   C1A12087   9.505   5.107   6.466 -0.0911  0.0131  0.2411
  856POPE   D2A12088   9.398   5.234   6.887 -0.0567 -0.1074  0.1019
  856POPE   C3A12089   9.065   5.130   7.075 -0.1015 -0.3238 -0.0706
  856POPE   C4A12090   8.875   5.234   7.478  0.1585 -0.0486  0.0279
  856POPE   C1B12091   9.173   5.631   6.601  0.0348 -0.1344 -0.1270
  856POPE   C2B12092   9.067   5.664   7.101  0.0966 -0.1610 -0.0692
  856POPE   C3B12093   8.739   5.695   7.378  0.1338 -0.2130 -0.0605
  856POPE   C4B12094   8.631   5.663   7.779  0.1436  0.0563 -0.1289
  857POPE   NH312095   0.867  12.551   5.089  0.1197  0.2213 -0.0946
  857POPE   PO412096   0.946  12.848   5.034 -0.1720  0.0849  0.0762
  857POPE   GL112097   1.269  12.959   5.273  0.0473  0.2245  0.0273
  857POPE   GL212098   1.433  13.265   5.110 -0.1653  0.1790  0.2114
  857POPE   C1A12099   1.319  13.158   5.644 -0.0278 -0.1576 -0.0014
  857POPE   D2A12100   1.100  13.392   5.768 -0.2653  0.0761 -0.1588
  857POPE   C3A12101   1.111  13.616   6.204  0.0843 -0.1928  0.2801
  857POPE   C4A12102   0.830  13.615   6.611 -0.0589  0.1738 -0.2146
  857POPE   C1B12103   1.257  13.568   5.349 -0.0725 -0.1770  0.0237
  857POPE   C2B12104   1.338  13.836   5.680 -0.1359  0.1155 -0.1459
  857POPE   C3B12105   1.479  14.008   6.048 -0.0788  0.3780  0.2009
  857POPE   C4B12106   1.844  13.919   6.163 -0.2976  0.1719  0.0802
  858POPE   NH312107   2.974  15.745   5.294  0.0839 -0.1146 -0.4071
  858POPE   PO412108   2.539  15.917   5.390  0.3486  0.1055 -0.2444
  858POPE   GL112109   2.573  15.958   5.824 -0.2316 -0.3060 -0.1449
  858POPE   GL212110   2.956  15.909   5.836 -0.1259  0.1346 -0.1086
  858POPE   C1A12111   2.637  15.643   6.199  0.1565  0.0546  0.1310
  858POPE   D2A12112   2.579  15.627   6.663 -0.0025  0.3281  0.3294
  858POPE   C3A12113   2.765  15.263   6.917 -0.2630  0.0016  0.1093
  858POPE   C4A12114   2.845  14.915   7.233  0.0912 -0.2081  0.0384
  858POPE   C1B12115   3.032  15.863   6.203 -0.0890  0.0846  0.0641
  858POPE   C2B12116   3.333  15.894   6.533  0.0121  0.0987  0.1755
  858POPE   C3B12117   3.602  15.719   6.822 -0.0760 -0.2477 -0.0758
  858POPE   C4B12118   3.566  15.598   7.227 -0.0356  0.0096  0.1423
  859POPE   NH312119  16.085  16.290   5.930  0.2454  0.1310 -0.1031
  859POPE   PO412120  15.951  16.801   5.947 -0.1028 -0.1533  0.1839
  859POPE   GL112121  16.183  16.627   6.319  0.0697 -0.1145  0.1985
  859POPE   GL212122  15.981  16.369   6.438 -0.0261 -0.3503 -0.1533
  859POPE   C1A12123  16.273  16.826   6.652  0.2277  0.0744  0.0334
  859POPE   D2A12124  16.369  16.993   7.075  0.0953 -0.0628 -0.0633
  859POPE   C3A12125  16.387  17.204   7.498  0.1645  0.1786  0.1156
  859POPE   C4A12126  16.212  17.081   7.889  0.0721 -0.1365 -0.0297
  859POPE   C1B12127  15.683  15.984   6.751 -0.3857 -0.1339 -0.0660
  859POPE   C2B12128  15.551  15.767   7.122  0.2181  0.2368  0.1224
  859POPE   C3B12129  15.596  15.977   7.497  0.1860 -0.2468 -0.0694
  859POPE   C4B12130  15.596  16.120   7.933  0.4005 -0.2350  0.0465
  860POPE   NH312131   8.363   8.906   5.433  0.4806  0.0829 -0.1152
  860POPE   PO412132   8.811   8.931   5.583  0.1227 -0.0178 -0.0623
  860POPE   GL112133   9.008   8.858   6.078  0.0978  0.1237 -0.2357
  860POPE   GL212134   9.321   8.938   5.975 -0.3330  0.1847 -0.0018
  860POPE   C1A12135   9.124   8.590   6.453 -0.1687 -0.2196  0.2722
  860POPE   D2A12136   8.999   8.376   6.768  0.0126 -0.0434  0.0400
  860POPE   C3A12137   8.970   8.528   7.170 -0.1275  0.0780 -0.0007
  860POPE   C4A12138   8.963   8.724   7.650  0.2567 -0.1641 -0.1613
  860POPE   C1B12139   9.460   8.942   6.347 -0.1584 -0.1626  0.3743
  860POPE   C2B12140   9.166   9.106   6.550  0.2035  0.1699  0.0390
  860POPE   C3B12141   9.277   9.380   6.955  0.1100 -0.1750  0.0017
  860POPE   C4B12142   9.517   9.464   7.326 -0.0709  0.2568  0.0444
  861POPE   NH312143   6.816   3.719   5.517  0.0195  0.1449 -0.0953
  861POPE   PO412144   7.200   3.907   5.411 -0.0969 -0.0393  0.1045
  861POPE   GL112145   7.118   4.034   5.835 -0.0649  0.4992 -0.2615
  861POPE   GL212146   7.249   3.936   6.147  0.2355 -0.4779  0.1677
  861POPE   C1A12147   6.902   4.299   6.181 -0.0308  0.0820 -0.1280
  861POPE   D2A12148   6.874   4.626   6.279  0.2142 -0.0152 -0.2286
  861POPE   C3A12149   7.071   5.034   6.416  0.2670 -0.1789  0.0204
  861POPE   C4A12150   7.281   5.324   6.600 -0.1515 -0.0590  0.2500
  861POPE   C1B12151   7.304   4.275   6.460 -0.3309  0.0561 -0.2069
  861POPE   C2B12152   7.206   4.624   6.604 -0.2369  0.1995  0.0845
  861POPE   C3B12153   7.005   4.750   6.835  0.3316  0.0871 -0.1264
  861POPE   C4B12154   7.005   5.159   7.032 -0.2892 -0.0959 -0.1950
  862POPE   NH312155   8.875   1.878   5.640  0.0947 -0.1570  0.0323
  862POPE   PO412156   8.665   1.549   5.441 -0.0333  0.1807 -0.1776
  862POPE   GL112157   8.693   1.428   5.876 -0.1200 -0.1198 -0.3618
  862POPE   GL212158   8.523   1.652   6.013  0.1271  0.1603 -0.3898
  862POPE   C1A12159   8.798   1.027   6.092  0.0775 -0.0315  0.2549
  862POPE   D2A12160   8.567   0.782   6.438 -0.1722  0.1742  0.1170
  862POPE   C3A12161   8.539   0.813   6.944 -0.3333  0.4557 -0.1747
  862POPE   C4A12162   8.643   0.969   7.342 -0.0596  0.0059 -0.2255
  862POPE   C1B12163   8.395   1.269   6.296  0.3067 -0.1360  0.0107
  862POPE   C2B12164   8.290   1.164   6.685 -0.2252  0.1967  0.1307
  862POPE   C3B12165   8.196   1.154   7.032  0.0648  0.1040 -0.1455
  862POPE   C4B12166   8.174   1.138   7.433 -0.0918 -0.0251 -0.0822
  863POPE   NH312167  13.692   3.129   5.898  0.1871  0.0084 -0.0598
  863POPE   PO412168  13.435   2.797   6.133  0.3301  0.0719 -0.0788
  863POPE   GL112169  13.282   2.437   6.466  0.2138  0.0472  0.0226
  863POPE   GL212170  13.390   2.176   6.616  0.0383 -0.1997 -0.0250
  863POPE   C1A12171  12.972   2.319   6.796 -0.0222  0.1399 -0.0374
  863POPE   D2A12172  12.769   2.238   7.131  0.1283  0.4710 -0.0693
  863POPE   C3A12173  12.906   2.407   7.441 -0.1963 -0.1993 -0.0866
  863POPE   C4A12174  12.973   2.480   7.904  0.1333 -0.0429  0.2949
  863POPE   C1B12175  13.383   2.311   7.047 -0.2393  0.0532 -0.0417
  863POPE   C2B12176  13.401   2.316   7.425 -0.0408  0.0985 -0.0681
  863POPE   C3B12177  13.466   2.491   7.855 -0.1119  0.0129 -0.0656
  863POPE   C4B12178  13.445   2.934   8.092  0.1187  0.1099 -0.0894
  864POPE   NH312179  15.845  18.087   5.945 -0.2186 -0.0165  0.4624
  864POPE   PO412180  15.412  18.169   5.948  0.0009 -0.0885 -0.0196
  864POPE   GL112181  15.281  18.328   6.290 -0.0197 -0.0707  0.1126
  864POPE   GL212182  15.250  18.654   6.291 -0.0111 -0.1856 -0.0095
  864POPE   C1A12183  15.216  18.256   6.685 -0.1079 -0.0693  0.4051
  864POPE   D2A12184  15.045  18.203   7.019 -0.0119 -0.1184 -0.0312
  864POPE   C3A12185  15.160  17.960   7.496  0.0786 -0.1989  0.1883
  864POPE   C4A12186  14.965  17.523   7.462 -0.1349 -0.0036 -0.0373
  864POPE   C1B12187  15.133  18.817   6.762 -0.1030  0.3817  0.1229
  864POPE   C2B12188  15.166  19.071   7.031  0.1586 -0.1304  0.0853
  864POPE   C3B12189  15.149  19.159   7.456 -0.1141  0.1013 -0.0176
  864POPE   C4B12190  15.002  18.889   7.859 -0.0512 -0.0470  0.1376
  865POPE   NH312191  17.135  18.088   5.875  0.1069 -0.0179 -0.1328
  865POPE   PO412192  16.807  18.461   6.029  0.2035  0.0119 -0.0150
  865POPE   GL112193  17.005  18.456   6.345 -0.0207  0.0352  0.2617
  865POPE   GL212194  17.169  18.286   6.354  0.1099  0.2512 -0.2426
  865POPE   C1A12195  17.037  18.534   6.847 -0.3969 -0.0175  0.4182
  865POPE   D2A12196  17.008  18.547   7.258 -0.1284 -0.1073 -0.0899
  865POPE   C3A12197  17.041  18.160   7.553  0.3131 -0.0487 -0.0702
  865POPE   C4A12198  17.246  18.327   7.846  0.1430  0.1234  0.0808
  865POPE   C1B12199  17.256  18.058   6.775 -0.0482 -0.2691  0.0932
  865POPE   C2B12200  17.382  18.138   7.147  0.2170  0.1815  0.1716
  865POPE   C3B12201  17.555  18.024   7.502  0.1156  0.4401 -0.2947
  865POPE   C4B12202  17.639  17.558   7.576 -0.1508 -0.0051 -0.2464
  866POPE   NH312203  13.767   8.361   6.015  0.1464 -0.2795  0.0492
  866POPE   PO412204  13.473   8.211   5.873 -0.1874  0.2848 -0.0585
  866POPE   GL112205  13.304   8.344   6.202 -0.0358 -0.0274 -0.0787
  866POPE   GL212206  13.312   8.184   6.389  0.0112  0.2593 -0.0013
  866POPE   C1A12207  13.074   8.547   6.589 -0.2557  0.2400  0.3771
  866POPE   D2A12208  12.776   8.488   6.956  0.0369  0.0786  0.0297
  866POPE   C3A12209  13.042   8.296   7.255  0.1079  0.0835 -0.0332
  866POPE   C4A12210  13.350   8.191   7.519 -0.3858 -0.4140 -0.3127
  866POPE   C1B12211  13.329   8.012   6.820 -0.0615  0.0974  0.0053
  866POPE   C2B12212  13.315   7.758   7.238 -0.0061  0.3182  0.1033
  866POPE   C3B12213  13.616   7.692   7.442  0.1765 -0.0671 -0.2201
  866POPE   C4B12214  13.930   7.471   7.516  0.3879  0.0342  0.0944
  867POPE   NH312215   3.022  14.234   5.139  0.1200  0.2373  0.0390
  867POPE   PO412216   2.693  14.267   4.897  0.2120  0.4949  0.2233
  867POPE   GL112217   2.542  14.154   5.314 -0.2236  0.0494  0.0001
  867POPE   GL212218   2.363  13.895   5.371  0.1972 -0.0927  0.2569
  867POPE   C1A12219   2.385  14.429   5.644 -0.1220  0.1392  0.1173
  867POPE   D2A12220   2.416  14.699   6.039 -0.0690 -0.1515  0.0494
  867POPE   C3A12221   2.880  14.765   6.198 -0.0308 -0.0891 -0.1062
  867POPE   C4A12222   3.108  14.952   6.469  0.4413  0.3652 -0.1536
  867POPE   C1B12223   2.255  13.982   5.837  0.2678  0.0160  0.0564
  867POPE   C2B12224   2.454  13.799   6.223 -0.3448  0.1035  0.1268
  867POPE   C3B12225   2.505  13.742   6.612 -0.3085 -0.2382  0.1181
  867POPE   C4B12226   2.614  14.008   6.836  0.2050  0.0579 -0.0777
  868POPE   NH312227   1.130   9.661   5.485  0.1432  0.0768 -0.2787
  868POPE   PO412228   1.180  10.155   5.458  0.2362  0.0609  0.1572
  868POPE   GL112229   1.056  10.078   5.857 -0.1568  0.0221  0.0089
  868POPE   GL212230   1.001   9.741   5.964  0.0979  0.0669  0.1380
  868POPE   C1A12231   0.955  10.195   6.235  0.1547  0.0983  0.2080
  868POPE   D2A12232   1.085   9.993   6.647  0.0854 -0.0962 -0.1405
  868POPE   C3A12233   0.890   9.960   7.134  0.0538 -0.1080  0.3055
  868POPE   C4A12234   0.909  10.256   7.370 -0.2686 -0.2474  0.2629
  868POPE   C1B12235   0.908   9.612   6.387  0.0765 -0.2764  0.1208
  868POPE   C2B12236   0.883   9.506   6.904 -0.1672 -0.0669 -0.0286
  868POPE   C3B12237   0.988   9.246   7.150  0.0352 -0.0588  0.0327
  868POPE   C4B12238   1.427   9.205   7.060 -0.2202  0.0119 -0.2122
  869POPE   NH312239   7.300  16.227   5.207 -0.1167  0.0125  0.1152
  869POPE   PO412240   7.448  16.760   5.239 -0.1735 -0.0294 -0.0716
  869POPE   GL112241   7.693  16.606   5.497  0.0176 -0.2869  0.0697
  869POPE   GL212242   7.561  16.674   5.737 -0.1216  0.0310 -0.1103
  869POPE   C1A12243   7.834  16.250   5.657  0.1558  0.1035 -0.1486
  869POPE   D2A12244   7.499  15.847   5.740  0.1658 -0.3092 -0.0491
  869POPE   C3A12245   7.071  16.118   5.867 -0.2453 -0.0420 -0.1982
  869POPE   C4A12246   7.107  16.501   6.174  0.1227 -0.0019  0.1193
  869POPE   C1B12247   7.545  16.325   5.991 -0.1420  0.1467  0.1794
  869POPE   C2B12248   7.571  16.416   6.382  0.1941  0.0596  0.1074
  869POPE   C3B12249   7.581  16.134   6.744  0.0957 -0.0588 -0.1926
  869POPE   C4B12250   7.628  15.868   7.153  0.0168 -0.3940  0.1829
  870POPE   NH312251  15.376  16.839   6.328 -0.0864  0.2966  0.1936
  870POPE   PO412252  15.021  16.522   6.143 -0.3706  0.1416 -0.1190
  870POPE   GL112253  15.043  16.132   6.381 -0.3497 -0.0344 -0.2163
  870POPE   GL212254  15.280  15.896   6.447 -0.3093  0.2596 -0.2085
  870POPE   C1A12255  14.810  15.914   6.657  0.0027 -0.1447  0.1503
  870POPE   D2A12256  14.809  15.776   7.126  0.0651  0.2992  0.1932
  870POPE   C3A12257  15.088  15.755   7.467 -0.0240  0.2447 -0.0641
  870POPE   C4A12258  15.202  15.597   7.854 -0.0450 -0.1203 -0.3122
  870POPE   C1B12259  15.148  15.597   6.774 -0.0090 -0.1365  0.0811
  870POPE   C2B12260  15.133  15.312   7.082 -0.3165  0.1899  0.1770
  870POPE   C3B12261  15.117  15.176   7.487  0.1532 -0.3132  0.1073
  870POPE   C4B12262  15.127  14.844   7.809 -0.0627 -0.1199  0.1178
  871POPE   NH312263  13.779  16.343   6.075  0.1484  0.0963 -0.0826
  871POPE   PO412264  13.339  16.180   6.160 -0.2901  0.1017  0.2617
  871POPE   GL112265  13.293  16.508   6.546  0.1503  0.2892 -0.0998
  871POPE   GL212266  13.715  16.495   6.588 -0.1539  0.2203 -0.0336
  871POPE   C1A12267  13.415  16.531   7.038  0.1160 -0.0542 -0.1102
  871POPE   D2A12268  13.766  16.430   7.349  0.1739 -0.0620 -0.1754
  871POPE   C3A12269  13.697  16.029   7.580  0.4799  0.0813 -0.1885
  871POPE   C4A12270  13.736  16.004   8.006 -0.1832  0.0782 -0.0160
  871POPE   C1B12271  13.841  16.750   6.833 -0.4026  0.1790  0.2838
  871POPE   C2B12272  13.817  16.997   7.273 -0.1205  0.0369  0.0914
  871POPE   C3B12273  13.758  17.040   7.739  0.0982  0.2805 -0.0384
  871POPE   C4B12274  13.922  16.937   8.142  0.0495  0.0243 -0.0573
  872YOPE   NH312275   9.984   8.693   5.596 -0.0169 -0.1949  0.1243
  872YOPE   PO412276  10.289   9.035   5.859  0.2668 -0.4417 -0.2654
  872YOPE   GL112277  10.535   9.040   6.208  0.2523 -0.0639 -0.0266
  872YOPE   GL212278  10.812   9.304   6.119  0.1412  0.2230 -0.0410
  872YOPE   C1A12279  10.775   9.073   6.651 -0.0886 -0.2895  0.2071
  872YOPE   D2A12280  10.876   9.134   6.996  0.0699  0.0060  0.1481
  872YOPE   C3A12281  11.148   9.350   7.299  0.0559  0.0070 -0.0989
  872YOPE   C4A12282  11.476   9.698   7.302  0.4325  0.3007 -0.0656
  872YOPE   C1B12283  10.808   9.545   6.600 -0.0244 -0.1815 -0.2875
  872YOPE   C2B12284  10.782   9.981   6.680  0.0717  0.1208 -0.0781
  872YOPE   D3B12285  10.793  10.245   7.026 -0.0755 -0.1510 -0.0155
  872YOPE   C4B12286  10.668  10.273   7.398 -0.1384 -0.1874  0.1336
  873YOPE   NH312287   7.384  18.400   5.780 -0.1547 -0.0865  0.2706
  873YOPE   PO412288   6.990  18.239   5.702  0.0418 -0.1668 -0.0895
  873YOPE   GL112289   6.946  17.863   5.937 -0.0164 -0.2072 -0.2052
  873YOPE   GL212290   7.187  17.756   6.125 -0.0044 -0.0490  0.0430
  873YOPE   C1A12291   6.707  17.730   6.306  0.0474 -0.1142 -0.3688
  873YOPE   D2A12292   6.876  17.772   6.708 -0.0639  0.3355 -0.1867
  873YOPE   C3A12293   6.809  17.484   7.045 -0.1447  0.0652 -0.2715
  873YOPE   C4A12294   6.494  17.599   7.323 -0.0909 -0.0725 -0.5357
  873YOPE   C1B12295   7.236  17.502   6.468 -0.0169  0.1377 -0.0096
  873YOPE   C2B12296   7.320  17.244   6.824 -0.0641  0.0290  0.0185
  873YOPE   D3B12297   7.463  16.930   7.128  0.1075 -0.3076 -0.1716
  873YOPE   C4B12298   7.796  16.509   7.341 -0.2753 -0.0319 -0.1188
  874YOPE   NH312299   6.253   4.368   5.394  0.0465 -0.0192  0.0606
  874YOPE   PO412300   6.539   4.659   5.658 -0.0030  0.2339 -0.0712
  874YOPE   GL112301   6.412   4.334   5.949 -0.2671  0.0541  0.2289
  874YOPE   GL212302   6.138   4.283   5.881 -0.2251  0.1085 -0.3377
  874YOPE   C1A12303   6.470   4.333   6.454 -0.2466  0.2689  0.1127
  874YOPE   D2A12304   6.721   4.331   6.751  0.1271  0.1606  0.1379
  874YOPE   C3A12305   7.037   4.323   7.093 -0.0099 -0.0230  0.3945
  874YOPE   C4A12306   7.122   4.192   7.421 -0.0194 -0.0459 -0.1228
  874YOPE   C1B12307   5.995   4.436   6.326 -0.4251 -0.2668  0.0216
  874YOPE   C2B12308   6.083   4.577   6.739 -0.1086  0.1258  0.3294
  874YOPE   D3B12309   6.311   4.372   7.052 -0.0353  0.1294 -0.2311
  874YOPE   C4B12310   6.596   4.141   7.261 -0.2168  0.4424  0.1682
  875YOPE   NH312311  14.551  11.826   5.495 -0.0028 -0.1707  0.0670
  875YOPE   PO412312  14.129  11.668   5.503  0.0232  0.2962  0.1250
  875YOPE   GL112313  14.239  11.702   5.871  0.0265 -0.1797 -0.1717
  875YOPE   GL212314  14.582  11.740   6.014  0.4392  0.2416 -0.0620
  875YOPE   C1A12315  14.248  12.063   6.174 -0.2240  0.2682 -0.2907
  875YOPE   D2A12316  14.258  12.412   6.460 -0.0113  0.0240 -0.3511
  875YOPE   C3A12317  14.293  12.434   6.873 -0.2263  0.3201 -0.1298
  875YOPE   C4A12318  14.213  12.463   7.262  0.2458 -0.1994 -0.0289
  875YOPE   C1B12319  14.618  11.775   6.491  0.1318 -0.1141  0.1909
  875YOPE   C2B12320  14.595  12.021   6.833  0.1641 -0.1228 -0.4552
  875YOPE   D3B12321  14.674  12.340   7.151  0.1229 -0.0367  0.0376
  875YOPE   C4B12322  14.946  12.553   7.410 -0.0242  0.0813 -0.1921
  876YOPE   NH312323  17.929  14.650   5.689  0.0488  0.1215  0.3336
  876YOPE   PO412324  18.344  14.842   5.731 -0.0148 -0.1334 -0.0803
  876YOPE   GL112325  18.397  14.711   6.083  0.1746  0.0757 -0.1206
  876YOPE   GL212326  18.747  14.888   6.153  0.0648  0.1621 -0.1572
  876YOPE   C1A12327  18.339  14.774   6.474 -0.2828  0.0531 -0.0327
  876YOPE   D2A12328  18.504  14.640   6.849  0.0452  0.0356  0.0103
  876YOPE   C3A12329  18.586  14.824   7.285  0.0315  0.4069  0.1152
  876YOPE   C4A12330  18.421  14.649   7.556 -0.0013  0.3308 -0.0280
  876YOPE   C1B12331  18.820  14.827   6.535  0.2997  0.1477  0.2094
  876YOPE   C2B12332  18.992  14.665   6.876  0.2785 -0.0003 -0.2536
  876YOPE   D3B12333  19.163  14.815   7.270  0.3637  0.0442  0.0475
  876YOPE   C4B12334  19.225  15.255   7.432 -0.3467  0.0416 -0.3136
  877YOPE   NH312335  11.273   0.796   5.942  0.0092 -0.0986 -0.3806
  877YOPE   PO412336  10.923   0.919   6.027  0.1246 -0.0871 -0.4209
  877YOPE   GL112337  10.894   1.249   6.221 -0.0523 -0.3992 -0.1220
  877YOPE   GL212338  10.902   1.581   6.141  0.1022 -0.2618  0.1418
  877YOPE   C1A12339  10.878   1.412   6.635 -0.4214 -0.0185 -0.2785
  877YOPE   D2A12340  10.859   1.106   6.948  0.0013 -0.1837 -0.1082
  877YOPE   C3A12341  10.833   1.073   7.341 -0.0781 -0.0771  0.1059
  877YOPE   C4A12342  11.060   1.348   7.584  0.0987 -0.1737 -0.0049
  877YOPE   C1B12343  10.901   1.914   6.520  0.0666  0.2189  0.1903
  877YOPE   C2B12344  11.018   2.006   6.890 -0.1318 -0.0819 -0.2599
  877YOPE   D3B12345  10.811   2.055   7.221 -0.1025  0.3160 -0.0034
  877YOPE   C4B12346  10.567   2.410   7.254  0.0375 -0.1729 -0.3051
  878YOPE   NH312347   7.143   0.429   5.725 -0.3264 -0.3178 -0.1045
  878YOPE   PO412348   6.782   0.294   5.475 -0.1125  0.1790  0.1032
  878YOPE   GL112349   6.645   0.088   5.781  0.0141  0.1127 -0.1777
  878YOPE   GL212350   6.624   0.300   5.975 -0.1354  0.2656  0.1493
  878YOPE   C1A12351   6.408  -0.278   6.002 -0.0426  0.1969  0.3764
  878YOPE   D2A12352   6.659  -0.577   6.200 -0.2275 -0.1194 -0.0223
  878YOPE   C3A12353   6.506  -0.710   6.583  0.1353 -0.0619  0.0596
  878YOPE   C4A12354   6.359  -0.966   6.896 -0.1286  0.2878 -0.0802
  878YOPE   C1B12355   6.295   0.200   6.298  0.0349 -0.1351 -0.3834
  878YOPE   C2B12356   6.135   0.244   6.712 -0.2333  0.1794  0.1903
  878YOPE   D3B12357   6.016  -0.049   6.999  0.1854 -0.0327 -0.2100
  878YOPE   C4B12358   5.979  -0.343   7.400 -0.2050  0.3049  0.1835
  879YOPE   NH312359  13.898  15.035   5.834 -0.1006  0.2052 -0.3182
  879YOPE   PO412360  13.901  14.498   5.720  0.0582 -0.2160  0.2503
  879YOPE   GL112361  14.048  14.614   6.163  0.1580 -0.1112  0.1453
  879YOPE   GL212362  13.782  14.896   6.335 -0.1298 -0.0203  0.3010
  879YOPE   C1A12363  14.073  14.558   6.583 -0.0564 -0.2571 -0.0477
  879YOPE   D2A12364  14.066  14.697   6.967 -0.0625 -0.2895  0.0098
  879YOPE   C3A12365  13.846  14.512   7.365 -0.0399 -0.2174  0.3479
  879YOPE   C4A12366  13.878  14.352   7.777  0.2139 -0.2997  0.0198
  879YOPE   C1B12367  13.648  14.960   6.770 -0.0048  0.0603 -0.1353
  879YOPE   C2B12368  13.513  15.025   7.155  0.0156  0.0061  0.1362
  879YOPE   D3B12369  13.617  14.883   7.578  0.1331 -0.1663  0.1679
  879YOPE   C4B12370  13.622  14.742   8.002 -0.2112 -0.0427  0.3779
  880YOPE   NH312371   6.440   8.161   5.649  0.0355  0.1359 -0.2468
  880YOPE   PO412372   6.234   7.777   5.690  0.0643  0.0918 -0.2182
  880YOPE   GL112373   6.113   7.978   6.149 -0.1108 -0.1443  0.1640
  880YOPE   GL212374   6.052   7.685   6.274  0.0435  0.1397 -0.2611
  880YOPE   C1A12375   6.174   8.046   6.616 -0.4393  0.3118  0.4177
  880YOPE   D2A12376   6.213   8.081   7.012 -0.0004  0.4081 -0.0588
  880YOPE   C3A12377   6.413   8.209   7.321  0.1396 -0.0588 -0.2367
  880YOPE   C4A12378   6.745   8.427   7.309  0.3218 -0.1930 -0.3432
  880YOPE   C1B12379   5.898   7.594   6.738 -0.0873  0.0936  0.4021
  880YOPE   C2B12380   5.806   7.597   7.129 -0.0148 -0.1599  0.0001
  880YOPE   D3B12381   5.656   8.040   7.355 -0.0136 -0.0173  0.0223
  880YOPE   C4B12382   5.296   8.289   7.317  0.0695  0.4119  0.0862
  881YOPE   NH312383  12.350  15.847   6.432 -0.3734  0.3198  0.0325
  881YOPE   PO412384  11.974  15.645   6.187 -0.0450 -0.0439 -0.1032
  881YOPE   GL112385  11.555  15.511   6.371 -0.0849 -0.1097 -0.0327
  881YOPE   GL212386  11.440  15.723   6.539 -0.5672  0.0110 -0.2942
  881YOPE   C1A12387  11.564  15.293   6.808  0.0638  0.1397 -0.0644
  881YOPE   D2A12388  11.356  15.184   7.107 -0.3381  0.0650 -0.2197
  881YOPE   C3A12389  11.040  14.987   7.410 -0.2469 -0.5437 -0.1602
  881YOPE   C4A12390  10.926  14.987   7.794 -0.0270 -0.0396  0.0978
  881YOPE   C1B12391  11.649  15.884   6.937 -0.0270  0.3051  0.1032
  881YOPE   C2B12392  11.714  15.747   7.254 -0.2785  0.1806  0.1683
  881YOPE   D3B12393  11.679  15.690   7.723  0.0598  0.0528  0.1765
  881YOPE   C4B12394  11.552  15.710   8.088 -0.2799  0.0712  0.1409
  882YOPE   NH312395  13.164   3.202   5.896  0.0562  0.0057  0.1017
  882YOPE   PO412396  12.799   3.456   5.639  0.0607 -0.1324  0.1282
  882YOPE   GL112397  12.719   3.378   6.130 -0.3531  0.0022  0.2532
  882YOPE   GL212398  12.442   3.350   6.246 -0.1117  0.1243  0.0349
  882YOPE   C1A12399  12.825   3.229   6.601  0.1672  0.1318 -0.0309
  882YOPE   D2A12400  13.005   3.345   7.058  0.2055  0.0296  0.0703
  882YOPE   C3A12401  13.449   3.349   7.140 -0.1318 -0.0817 -0.0054
  882YOPE   C4A12402  13.815   3.195   7.364  0.1937 -0.0716  0.2541
  882YOPE   C1B12403  12.291   3.445   6.759  0.0695 -0.2965  0.1746
  882YOPE   C2B12404  12.564   3.202   7.048 -0.2065  0.1008 -0.3167
  882YOPE   D3B12405  12.497   3.180   7.461  0.2833  0.1049  0.0642
  882YOPE   C4B12406  12.439   3.319   7.825  0.0424  0.1169 -0.1150
  883YOPE   NH312407  18.344   9.178   5.595  0.2010 -0.2398  0.2190
  883YOPE   PO412408  18.016   9.042   5.678 -0.1490  0.0815 -0.2841
  883YOPE   GL112409  17.850   8.884   6.010  0.0793 -0.3186 -0.0493
  883YOPE   GL212410  17.892   8.529   6.168  0.2148 -0.0863 -0.0152
  883YOPE   C1A12411  17.624   8.928   6.378  0.2648 -0.2510  0.2367
  883YOPE   D2A12412  17.520   8.828   6.722 -0.0494 -0.2338 -0.3543
  883YOPE   C3A12413  17.395   8.965   7.099  0.1057 -0.1515  0.3614
  883YOPE   C4A12414  17.379   9.086   7.603 -0.0720 -0.0487  0.5080
  883YOPE   C1B12415  17.707   8.369   6.618 -0.0395 -0.0630 -0.1284
  883YOPE   C2B12416  17.661   8.139   6.922  0.3184  0.1967 -0.1700
  883YOPE   D3B12417  17.846   7.761   7.097  0.1985 -0.0687  0.0479
  883YOPE   C4B12418  17.988   7.506   7.463 -0.0158 -0.2821 -0.2132
  884YOPE   NH312419   1.535  12.032   5.224 -0.0553  0.2554  0.0905
  884YOPE   PO412420   1.330  12.429   5.211 -0.1904  0.1351  0.4197
  884YOPE   GL112421   1.091  12.556   5.564  0.2410  0.0824  0.2821
  884YOPE   GL212422   0.824  12.807   5.558 -0.2212 -0.0655 -0.2062
  884YOPE   C1A12423   1.249  12.766   5.960 -0.1851  0.2845 -0.0125
  884YOPE   D2A12424   1.628  12.947   6.079 -0.1592  0.0467 -0.4504
  884YOPE   C3A12425   1.643  13.017   6.443 -0.2036  0.3767 -0.2732
  884YOPE   C4A12426   1.616  13.351   6.779 -0.3592  0.1324 -0.0078
  884YOPE   C1B12427   0.739  13.081   5.928  0.0293  0.0718 -0.2861
  884YOPE   C2B12428   0.695  13.096   6.365  0.2797 -0.1058 -0.0785
  884YOPE   D3B12429   0.918  13.095   6.878 -0.1266  0.2901 -0.2122
  884YOPE   C4B12430   1.265  12.932   7.012  0.0741 -0.0861 -0.4053
  885YOPE   NH312431   3.048  13.614   5.475  0.0104  0.1291  0.0804
  885YOPE   PO412432   2.654  13.521   5.519  0.4850 -0.1551 -0.0816
  885YOPE   GL112433   2.637  13.476   5.882  0.1214 -0.0975  0.2361
  885YOPE   GL212434   2.516  13.151   5.954 -0.0230 -0.0817 -0.1325
  885YOPE   C1A12435   2.913  13.515   6.213 -0.0442 -0.3187 -0.1224
  885YOPE   D2A12436   3.155  13.726   6.454  0.2787  0.2257  0.3102
  885YOPE   C3A12437   3.372  14.028   6.427 -0.1314  0.0203  0.1095
  885YOPE   C4A12438   3.703  14.274   6.180  0.2005  0.1102 -0.1762
  885YOPE   C1B12439   2.549  13.272   6.434 -0.1378  0.5874 -0.0028
  885YOPE   C2B12440   2.824  13.432   6.832  0.0666 -0.2261 -0.0800
  885YOPE   D3B12441   2.936  13.748   7.154 -0.3091  0.0005  0.3227
  885YOPE   C4B12442   2.738  13.852   7.569  0.0150  0.0419  0.1212
  886YOPE   NH312443   9.004   9.385   5.589  0.1461 -0.3232  0.0690
  886YOPE   PO412444   9.355   9.279   5.618 -0.0002  0.4125  0.2988
  886YOPE   GL112445   9.337   9.429   6.036 -0.1026 -0.1584  0.0940
  886YOPE   GL212446   9.040   9.363   6.135  0.1066 -0.0930 -0.3966
  886YOPE   C1A12447   9.486   9.421   6.497 -0.0337  0.1793 -0.1462
  886YOPE   D2A12448   9.701   9.079   6.766  0.0822 -0.0112  0.0091
  886YOPE   C3A12449   9.908   9.108   7.171  0.2404 -0.1272 -0.5861
  886YOPE   C4A12450   9.935   9.340   7.501  0.1880 -0.0111  0.1134
  886YOPE   C1B12451   9.003   9.615   6.516 -0.0130 -0.2951  0.2457
  886YOPE   C2B12452   8.789   9.793   6.920 -0.1901 -0.2233  0.1163
  886YOPE   D3B12453   8.803   9.904   7.280 -0.0596 -0.2605 -0.0689
  886YOPE   C4B12454   9.167   9.806   7.569  0.2248 -0.0347 -0.2296
  887YOPE   NH312455   4.601  14.380   5.148 -0.2966 -0.0363 -0.0871
  887YOPE   PO412456   4.179  14.628   5.145  0.0903 -0.2594 -0.1802
  887YOPE   GL112457   4.066  14.650   5.614 -0.0108 -0.0164  0.0675
  887YOPE   GL212458   4.050  14.465   5.796 -0.0612  0.2036  0.0678
  887YOPE   C1A12459   3.772  14.900   5.922 -0.0969 -0.1022 -0.0183
  887YOPE   D2A12460   3.336  14.965   6.027 -0.2613  0.3260  0.1501
  887YOPE   C3A12461   3.131  14.836   5.695 -0.0180  0.0197 -0.1417
  887YOPE   C4A12462   2.836  14.534   5.754 -0.2602 -0.0467  0.0905
  887YOPE   C1B12463   4.058  14.622   6.199  0.1191 -0.1875  0.1308
  887YOPE   C2B12464   3.743  14.735   6.473  0.0083 -0.0992  0.2167
  887YOPE   D3B12465   3.442  14.791   6.868 -0.1254  0.2473  0.0480
  887YOPE   C4B12466   3.421  15.009   7.310 -0.2436  0.1734  0.2218
  888YOPE   NH312467   8.180   1.979   5.862  0.0875  0.1362  0.0962
  888YOPE   PO412468   8.165   1.423   5.729  0.0628 -0.0248 -0.2026
  888YOPE   GL112469   7.967   1.484   6.051 -0.1203 -0.0037  0.1051
  888YOPE   GL212470   7.811   1.657   6.110  0.0682 -0.1714 -0.1141
  888YOPE   C1A12471   7.836   1.406   6.516  0.2850 -0.3800  0.0447
  888YOPE   D2A12472   7.782   1.418   7.036  0.0280 -0.0427  0.0138
  888YOPE   C3A12473   7.804   1.646   7.434 -0.5881  0.0434 -0.0755
  888YOPE   C4A12474   7.616   1.773   7.815 -0.0948  0.0808  0.3647
  888YOPE   C1B12475   7.718   1.894   6.359  0.2396  0.0124 -0.3514
  888YOPE   C2B12476   7.653   1.815   6.800  0.3428 -0.0660  0.2250
  888YOPE   D3B12477   7.443   1.885   7.162 -0.1448  0.0419  0.0510
  888YOPE   C4B12478   7.100   2.223   7.401  0.1752  0.0127 -0.2049
  889YOPE   NH312479  11.394   2.979   5.773 -0.1587  0.1538 -0.0622
  889YOPE   PO412480  11.294   3.358   5.648 -0.0924  0.0603  0.0682
  889YOPE   GL112481  11.246   3.279   6.076  0.1708  0.0182 -0.1809
  889YOPE   GL212482  10.919   3.248   6.168 -0.2171 -0.0844  0.1542
  889YOPE   C1A12483  11.342   3.248   6.536  0.3415 -0.0292  0.1259
  889YOPE   D2A12484  11.227   3.125   6.940  0.0952  0.0913 -0.1965
  889YOPE   C3A12485  11.131   3.235   7.232  0.1113  0.0648 -0.0773
  889YOPE   C4A12486  10.983   3.198   7.616 -0.1262 -0.2541  0.0903
  889YOPE   C1B12487  10.886   3.083   6.525  0.1174 -0.0922  0.1076
  889YOPE   C2B12488  10.745   3.234   6.870 -0.2020 -0.3324  0.1533
  889YOPE   D3B12489  10.555   3.570   7.112 -0.0458 -0.0434 -0.0072
  889YOPE   C4B12490  10.334   3.772   7.332  0.1666  0.0465 -0.1464
  890YOPE   NH312491   7.558   3.843   5.763 -0.0509 -0.0093 -0.0069
  890YOPE   PO412492   7.898   3.552   5.845 -0.0079 -0.1752 -0.0921
  890YOPE   GL112493   7.960   3.429   6.295 -0.1574 -0.1086 -0.1631
  890YOPE   GL212494   8.258   3.506   6.569  0.1171 -0.0657  0.2510
  890YOPE   C1A12495   7.786   3.258   6.681 -0.2490  0.4108  0.1439
  890YOPE   D2A12496   7.765   3.039   7.008 -0.1550 -0.0335 -0.0950
  890YOPE   C3A12497   7.392   3.021   7.202 -0.2377 -0.1316 -0.2342
  890YOPE   C4A12498   7.367   3.013   7.634  0.0060  0.0914 -0.1523
  890YOPE   C1B12499   8.198   3.384   6.958 -0.2425 -0.0760  0.1060
  890YOPE   C2B12500   8.048   3.517   7.352 -0.0119  0.0834  0.0700
  890YOPE   D3B12501   7.840   3.599   7.717 -0.0765  0.0085 -0.2283
  890YOPE   C4B12502   7.403   3.417   7.948 -0.2060  0.1405  0.2570
  891YOPE   NH312503   9.332  18.523   5.533 -0.1832 -0.2453 -0.1501
  891YOPE   PO412504   9.442  18.236   5.185  0.2700 -0.0061  0.0086
  891YOPE   GL112505   9.463  18.017   5.639 -0.0822  0.2439 -0.0262
  891YOPE   GL212506   9.145  18.070   5.731 -0.3276  0.2474 -0.0107
  891YOPE   C1A12507   9.586  17.848   6.013  0.1794  0.1183 -0.0908
  891YOPE   D2A12508   9.399  17.729   6.476 -0.0469  0.3285 -0.0438
  891YOPE   C3A12509   9.503  17.448   6.628 -0.0504  0.0752  0.1791
  891YOPE   C4A12510   9.463  17.239   7.000  0.0871 -0.1836  0.0413
  891YOPE   C1B12511   9.146  18.055   6.186  0.0987 -0.3570 -0.1408
  891YOPE   C2B12512   8.987  17.980   6.560 -0.1220  0.0142 -0.1699
  891YOPE   D3B12513   8.948  18.039   6.888 -0.1726  0.0848 -0.1094
  891YOPE   C4B12514   8.945  18.013   7.386 -0.2243 -0.0458  0.1161
  892YOPE   NH312515  18.776  13.374   5.383 -0.1434  0.0482 -0.3415
  892YOPE   PO412516  19.061  13.628   5.136  0.2725  0.3067 -0.0847
  892YOPE   GL112517  18.967  13.784   5.637 -0.1452  0.0856  0.4075
  892YOPE   GL212518  18.988  14.046   5.744 -0.3502 -0.1579 -0.1536
  892YOPE   C1A12519  18.769  13.697   6.039  0.1146  0.1510  0.3548
  892YOPE   D2A12520  18.831  13.616   6.458 -0.1050  0.0765  0.0293
  892YOPE   C3A12521  19.041  13.741   6.779  0.3972  0.1817  0.0065
  892YOPE   C4A12522  19.477  13.599   7.079 -0.1124  0.2339 -0.2043
  892YOPE   C1B12523  19.110  13.988   6.183 -0.1409  0.0739  0.0501
  892YOPE   C2B12524  19.303  14.072   6.475 -0.3775  0.0013 -0.4672
  892YOPE   D3B12525  19.227  14.169   6.910  0.0921  0.0285 -0.3684
  892YOPE   C4B12526  19.124  13.906   7.287 -0.2981  0.2419 -0.3159
  893YOPE   NH312527   1.361   2.585   5.237 -0.1698 -0.0696  0.1232
  893YOPE   PO412528   1.283   2.219   4.951 -0.1064 -0.0720 -0.1089
  893YOPE   GL112529   1.422   2.053   5.341  0.2785 -0.1518  0.1014
  893YOPE   GL212530   1.206   2.061   5.591 -0.1798 -0.1289 -0.2958
  893YOPE   C1A12531   1.749   2.051   5.666  0.2169  0.3140  0.0050
  893YOPE   D2A12532   1.973   1.929   6.006 -0.0017  0.0731 -0.3805
  893YOPE   C3A12533   2.281   1.613   6.009  0.0584  0.0811 -0.0553
  893YOPE   C4A12534   2.389   1.415   6.400  0.2465 -0.0166  0.0054
  893YOPE   C1B12535   1.426   2.375   5.820 -0.2232  0.4536  0.1313
  893YOPE   C2B12536   1.467   2.228   6.247 -0.0714  0.0793  0.0210
  893YOPE   D3B12537   1.545   2.140   6.642 -0.1391  0.3744 -0.1493
  893YOPE   C4B12538   1.237   1.918   6.979  0.1029 -0.0278 -0.0728
  894YOPE   NH312539  16.494   1.936   5.651  0.3014  0.1676 -0.1543
  894YOPE   PO412540  16.231   2.287   5.712  0.0395  0.0046 -0.2543
  894YOPE   GL112541  16.279   2.166   6.144 -0.2694  0.3531 -0.0684
  894YOPE   GL212542  16.525   2.016   6.337 -0.1558 -0.0599 -0.1929
  894YOPE   C1A12543  16.346   2.476   6.425 -0.0642  0.1451 -0.0918
  894YOPE   D2A12544  16.431   2.797   6.616  0.1987 -0.3924 -0.1027
  894YOPE   C3A12545  16.312   2.938   7.074 -0.0711  0.2329 -0.0920
  894YOPE   C4A12546  16.187   2.873   7.424 -0.1654 -0.1122  0.0963
  894YOPE   C1B12547  16.573   2.099   6.767  0.1805  0.1353 -0.1202
  894YOPE   C2B12548  16.798   2.112   7.232  0.1278  0.0484 -0.1892
  894YOPE   D3B12549  16.825   2.014   7.598 -0.0555  0.0755  0.2996
  894YOPE   C4B12550  16.592   1.765   7.787  0.1821  0.2997 -0.1277
  895YOPE   NH312551  12.062  16.833   5.978 -0.0758 -0.1258 -0.4011
  895YOPE   PO412552  11.587  16.935   6.059  0.2219  0.0662  0.0282
  895YOPE   GL112553  11.628  16.900   6.532  0.1253  0.4128 -0.0800
  895YOPE   GL212554  11.805  16.647   6.390 -0.2025  0.1207 -0.1776
  895YOPE   C1A12555  11.741  16.918   6.915 -0.0095 -0.1913  0.1130
  895YOPE   D2A12556  11.897  17.073   7.226  0.2384  0.2270  0.1601
  895YOPE   C3A12557  12.014  16.704   7.347  0.0713  0.1238 -0.1672
  895YOPE   C4A12558  12.347  16.482   7.626  0.0347 -0.4656  0.0596
  895YOPE   C1B12559  11.998  16.466   6.684  0.3970 -0.2000  0.1404
  895YOPE   C2B12560  11.933  16.265   7.095  0.1031 -0.0278 -0.2805
  895YOPE   D3B12561  11.773  16.223   7.457  0.3078  0.2544 -0.3514
  895YOPE   C4B12562  11.609  16.234   7.884  0.1355 -0.0376 -0.3403
  896YOPE   NH312563  13.476   0.066   6.026 -0.1590  0.0008 -0.4440
  896YOPE   PO412564  13.116  -0.106   6.227 -0.0414  0.0303 -0.1717
  896YOPE   GL112565  13.395  -0.247   6.539 -0.0491  0.1667 -0.0020
  896YOPE   GL212566  13.617  -0.055   6.526  0.0836  0.2036  0.0735
  896YOPE   C1A12567  13.287  -0.348   6.972 -0.1246 -0.0757 -0.0337
  896YOPE   D2A12568  13.280  -0.431   7.352  0.1622  0.0917 -0.1846
  896YOPE   C3A12569  13.189  -0.192   7.735  0.0390  0.1104 -0.0090
  896YOPE   C4A12570  13.089  -0.110   8.140  0.1672  0.1684  0.2149
  896YOPE   C1B12571  13.696  -0.087   6.967 -0.2521 -0.1809 -0.2195
  896YOPE   C2B12572  13.703  -0.142   7.447 -0.1022  0.0581  0.1762
  896YOPE   D3B12573  14.013   0.100   7.790  0.1134 -0.1272  0.1898
  896YOPE   C4B12574  13.753   0.563   7.806 -0.2286  0.0324  0.1837
  897YOPE   NH312575   9.136   7.289   5.749 -0.3178 -0.1642 -0.2948
  897YOPE   PO412576   9.048   7.669   5.423 -0.3769  0.2833  0.0228
  897YOPE   GL112577   8.909   7.735   5.960 -0.1616  0.0297 -0.2019
  897YOPE   GL212578   9.109   7.551   6.140 -0.2167  0.0104  0.1361
  897YOPE   C1A12579   8.580   7.947   6.312 -0.0557 -0.0276 -0.2972
  897YOPE   D2A12580   8.360   8.126   6.591 -0.1265  0.0454 -0.1742
  897YOPE   C3A12581   8.463   8.293   6.962  0.4736 -0.0313  0.1473
  897YOPE   C4A12582   8.423   8.707   7.143  0.0467  0.0556 -0.0849
  897YOPE   C1B12583   9.042   7.346   6.519  0.1123 -0.2225  0.0923
  897YOPE   C2B12584   8.978   7.240   6.891  0.0461 -0.1352 -0.1470
  897YOPE   D3B12585   8.679   7.296   7.257 -0.1174 -0.0260  0.0010
  897YOPE   C4B12586   8.303   7.334   7.517 -0.1334  0.1581  0.0712
  898YOPE   NH312587  16.022   9.539   5.244 -0.1095 -0.0198 -0.5031
  898YOPE   PO412588  15.651   9.708   5.095 -0.2091  0.1073  0.0229
  898YOPE   GL112589  15.758   9.795   5.480 -0.2463 -0.1406 -0.1919
  898YOPE   GL212590  16.051   9.741   5.711  0.0535 -0.0783 -0.2076
  898YOPE   C1A12591  15.675  10.035   5.889  0.2788 -0.3317  0.0991
  898YOPE   D2A12592  15.650  10.292   6.351 -0.1250 -0.0447  0.2857
  898YOPE   C3A12593  15.641  10.082   6.711  0.1024  0.1711 -0.1737
  898YOPE   C4A12594  15.743   9.784   7.055 -0.1369 -0.0947 -0.1679
  898YOPE   C1B12595  16.106  10.016   6.077 -0.0983 -0.0238 -0.0463
  898YOPE   C2B12596  16.164  10.165   6.424 -0.4046  0.1105  0.1027
  898YOPE   D3B12597  16.221  10.370   6.815 -0.2334  0.0845  0.3051
  898YOPE   C4B12598  16.050  10.304   7.323 -0.0172  0.0682 -0.0258
  899YOPE   NH312599  14.801  17.493   6.287  0.1433 -0.1139  0.0155
  899YOPE   PO412600  14.486  17.174   6.276  0.2937  0.2223  0.3328
  899YOPE   GL112601  14.524  17.482   6.730 -0.0421  0.2542  0.2914
  899YOPE   GL212602  14.336  17.723   6.656 -0.2183 -0.0784  0.2063
  899YOPE   C1A12603  14.699  17.241   7.141 -0.0893  0.2845 -0.0272
  899YOPE   D2A12604  14.528  17.081   7.522 -0.2557  0.0988 -0.0006
  899YOPE   C3A12605  14.792  17.216   7.819 -0.3953 -0.2215 -0.1757
  899YOPE   C4A12606  14.818  17.332   8.216  0.1947  0.0199 -0.1939
  899YOPE   C1B12607  14.258  18.051   6.983 -0.2735  0.0444  0.1385
  899YOPE   C2B12608  14.529  18.186   7.264 -0.1325  0.1742 -0.2857
  899YOPE   D3B12609  14.685  18.111   7.623 -0.1339  0.2500 -0.1561
  899YOPE   C4B12610  14.796  17.719   7.888  0.2680  0.2815  0.2322
  900YOPE   NH312611   0.405   5.077   5.480  0.2426  0.0554 -0.4838
  900YOPE   PO412612   0.642   5.438   5.408  0.0149  0.2289  0.1202
  900YOPE   GL112613   0.390   5.473   5.728 -0.0605  0.0627 -0.2029
  900YOPE   GL212614   0.557   5.726   5.902  0.2550  0.0629  0.0045
  900YOPE   C1A12615   0.128   5.401   6.107 -0.2115 -0.0617  0.1456
  900YOPE   D2A12616  -0.090   5.284   6.305  0.1006 -0.0545 -0.0234
  900YOPE   C3A12617  -0.072   5.258   6.713 -0.1636 -0.4814  0.0338
  900YOPE   C4A12618   0.022   5.222   7.131 -0.0566  0.4429  0.2577
  900YOPE   C1B12619   0.368   5.721   6.389 -0.1841 -0.3780 -0.1308
  900YOPE   C2B12620   0.354   5.473   6.726  0.1356 -0.0688  0.0650
  900YOPE   D3B12621   0.139   5.713   7.082 -0.2125 -0.2765 -0.3583
  900YOPE   C4B12622   0.198   6.016   7.456 -0.1400  0.0144  0.3161
  901YOPE   NH312623   7.397  17.268   5.254  0.2851 -0.0040 -0.1009
  901YOPE   PO412624   7.211  17.530   5.555 -0.2856  0.1420  0.0104
  901YOPE   GL112625   6.874  17.400   5.774  0.0235  0.1379  0.1185
  901YOPE   GL212626   6.538  17.532   5.740 -0.2833 -0.1477 -0.0870
  901YOPE   C1A12627   6.903  17.264   6.176 -0.0091  0.3021 -0.3216
  901YOPE   D2A12628   6.787  17.236   6.516 -0.0873 -0.0411 -0.3604
  901YOPE   C3A12629   6.465  17.346   6.670 -0.0159 -0.1615  0.0074
  901YOPE   C4A12630   6.132  17.282   6.951  0.0544 -0.2369  0.0034
  901YOPE   C1B12631   6.442  17.399   6.080  0.2689  0.2368 -0.0357
  901YOPE   C2B12632   6.151  17.139   6.275 -0.3235  0.0998  0.0210
  901YOPE   D3B12633   5.826  17.315   6.535 -0.2161 -0.0852  0.0420
  901YOPE   C4B12634   5.696  17.636   6.803  0.3285 -0.2473  0.0486
  902YOPE   NH312635   3.749   8.130   5.874 -0.2517 -0.0384  0.1250
  902YOPE   PO412636   3.805   8.495   6.015 -0.0246 -0.0708 -0.2570
  902YOPE   GL112637   3.915   8.377   6.349  0.2132 -0.1218  0.4374
  902YOPE   GL212638   3.999   8.011   6.443 -0.1548  0.1189 -0.1094
  902YOPE   C1A12639   3.864   8.447   6.744 -0.0331  0.1859  0.1964
  902YOPE   D2A12640   3.734   8.506   7.070  0.0439  0.3563 -0.1150
  902YOPE   C3A12641   3.533   8.310   7.327 -0.1282  0.1717 -0.2436
  902YOPE   C4A12642   3.608   7.970   7.463  0.1586  0.0137 -0.0831
  902YOPE   C1B12643   3.917   7.929   6.919 -0.0571  0.0201 -0.0021
  902YOPE   C2B12644   3.980   8.086   7.186 -0.0560 -0.0170 -0.0643
  902YOPE   D3B12645   4.415   8.046   7.344 -0.0068 -0.1164  0.3372
  902YOPE   C4B12646   4.532   7.824   7.813  0.0152 -0.1795  0.1499
  903YOPE   NH312647  11.520  17.551   6.127  0.1579  0.0085  0.0195
  903YOPE   PO412648  11.877  17.712   5.966 -0.2437  0.1066 -0.0147
  903YOPE   GL112649  11.857  17.777   6.419  0.0807  0.0345  0.1942
  903YOPE   GL212650  12.172  17.695   6.431 -0.3473  0.0926 -0.1461
  903YOPE   C1A12651  11.836  17.797   6.872  0.2817  0.0765 -0.0733
  903YOPE   D2A12652  11.803  17.754   7.347  0.2316  0.1785  0.0235
  903YOPE   C3A12653  11.976  17.414   7.548  0.0494  0.0716  0.0438
  903YOPE   C4A12654  12.083  17.006   7.740 -0.2548  0.3207  0.3395
  903YOPE   C1B12655  12.288  17.950   6.901 -0.0454 -0.0008  0.3332
  903YOPE   C2B12656  12.232  18.084   7.317  0.0667  0.0894  0.2102
  903YOPE   D3B12657  11.926  17.937   7.756  0.0630  0.1436  0.2268
  903YOPE   C4B12658  11.680  17.600   8.053 -0.2605 -0.0855  0.0962
  904YOPE   NH312659   9.901  16.557   5.578  0.1874 -0.4125 -0.3634
  904YOPE   PO412660  10.195  16.721   5.643  0.0627 -0.1878  0.0644
  904YOPE   GL112661  10.132  16.634   6.056 -0.1166 -0.1829 -0.0184
  904YOPE   GL212662  10.347  16.783   6.148  0.0548 -0.1172 -0.1329
  904YOPE   C1A12663   9.797  16.748   6.297 -0.1673 -0.1062  0.0466
  904YOPE   D2A12664   9.562  16.977   6.443 -0.0395 -0.2580  0.0975
  904YOPE   C3A12665   9.584  17.365   6.157 -0.1604  0.0379  0.0004
  904YOPE   C4A12666   9.188  17.599   6.010 -0.2206  0.2011 -0.0592
  904YOPE   C1B12667  10.390  16.584   6.510 -0.0962 -0.0675  0.0729
  904YOPE   C2B12668  10.314  16.464   6.888  0.2147 -0.3791 -0.0209
  904YOPE   D3B12669  10.464  16.303   7.248  0.0186 -0.2665  0.0978
  904YOPE   C4B12670  10.124  16.143   7.520  0.1709 -0.0314 -0.0314
  905YOPE   NH312671   0.229   9.802   5.657 -0.1050 -0.2167  0.3089
  905YOPE   PO412672   0.596   9.641   5.654  0.0366  0.1571  0.3054
  905YOPE   GL112673   0.519   9.539   5.983 -0.0181  0.1665 -0.0123
  905YOPE   GL212674   0.291   9.746   6.199 -0.1831 -0.0386  0.1424
  905YOPE   C1A12675   0.502   9.298   6.354 -0.3883 -0.0554  0.2123
  905YOPE   D2A12676   0.775   9.080   6.717  0.2721 -0.1498  0.1889
  905YOPE   C3A12677   1.167   9.141   6.603 -0.3454  0.2193 -0.0848
  905YOPE   C4A12678   1.344   9.474   6.614 -0.2617  0.2362 -0.0355
  905YOPE   C1B12679   0.143   9.536   6.592 -0.2174  0.1394 -0.1645
  905YOPE   C2B12680  -0.118   9.395   6.923 -0.1005 -0.2385 -0.1466
  905YOPE   D3B12681  -0.209   9.252   7.393  0.1779  0.0978  0.0969
  905YOPE   C4B12682  -0.044   9.517   7.629 -0.2353  0.0610  0.1292
  906YOPE   NH312683  10.977   8.360   5.843  0.1754  0.2004  0.0700
  906YOPE   PO412684  10.651   7.996   5.707 -0.4807 -0.0637  0.0757
  906YOPE   GL112685  10.288   7.774   6.032 -0.1836  0.0992 -0.1123
  906YOPE   GL212686  10.466   7.677   6.293  0.3882  0.1265 -0.4704
  906YOPE   C1A12687   9.990   7.508   6.421 -0.2725 -0.0531  0.0895
  906YOPE   D2A12688   9.963   7.588   6.832  0.0449 -0.2078 -0.1525
  906YOPE   C3A12689   9.867   7.466   7.174 -0.1689 -0.1659 -0.1110
  906YOPE   C4A12690   9.620   7.677   7.598  0.1875 -0.0208  0.0235
  906YOPE   C1B12691  10.453   7.684   6.690  0.1805  0.0514 -0.0051
  906YOPE   C2B12692  10.418   7.787   7.027 -0.0721  0.0381 -0.0881
  906YOPE   D3B12693  10.567   7.840   7.443 -0.2365 -0.0163 -0.0436
  906YOPE   C4B12694  10.465   7.941   7.897 -0.0069  0.0783 -0.2001
  907YOPE   NH312695   8.508  18.075   5.398  0.2798  0.1631  0.2736
  907YOPE   PO412696   8.826  18.468   5.504 -0.0588  0.1949  0.0987
  907YOPE   GL112697   8.628  18.860   5.695  0.0430  0.0136 -0.4690
  907YOPE   GL212698   8.440  18.826   5.879 -0.0505  0.1864  0.2233
  907YOPE   C1A12699   8.784  19.050   6.150  0.2358 -0.1008 -0.1680
  907YOPE   D2A12700   8.780  19.107   6.687 -0.0605  0.1163 -0.1699
  907YOPE   C3A12701   8.873  19.323   7.145 -0.3317  0.0014  0.1782
  907YOPE   C4A12702   8.808  19.284   7.601  0.1280 -0.1712 -0.0237
  907YOPE   C1B12703   8.378  18.594   6.158  0.0392  0.1629  0.0336
  907YOPE   C2B12704   8.193  18.421   6.448  0.0064 -0.0406  0.1038
  907YOPE   D3B12705   7.972  18.090   6.675 -0.0949  0.0491 -0.2040
  907YOPE   C4B12706   7.825  18.028   7.069  0.0455  0.2426  0.1045
  908YOPE   NH312707   9.929   6.601   5.435 -0.4509 -0.1782  0.2107
  908YOPE   PO412708  10.235   6.351   5.578 -0.0720 -0.1208 -0.0281
  908YOPE   GL112709  10.451   6.624   5.860  0.0917 -0.2882 -0.1816
  908YOPE   GL212710  10.124   6.818   5.956 -0.0921 -0.0595  0.1475
  908YOPE   C1A12711  10.402   6.651   6.347 -0.0323  0.1261 -0.1537
  908YOPE   D2A12712  10.189   6.720   6.728 -0.2217 -0.0583  0.2191
  908YOPE   C3A12713  10.305   6.530   7.112  0.1243 -0.1199  0.0438
  908YOPE   C4A12714  10.324   6.166   7.293 -0.0931 -0.0136  0.0898
  908YOPE   C1B12715   9.934   6.957   6.368 -0.0228 -0.0176  0.1052
  908YOPE   C2B12716   9.885   7.047   6.860  0.2727 -0.0016  0.2957
  908YOPE   D3B12717   9.991   6.970   7.248 -0.2707 -0.1226  0.1411
  908YOPE   C4B12718  10.148   6.658   7.525  0.1178  0.1153 -0.1154
  909YOPE   NH312719   9.152   2.033   6.034  0.1003  0.0501  0.0099
  909YOPE   PO412720   9.534   2.054   5.779  0.2258 -0.3638 -0.1038
  909YOPE   GL112721   9.724   1.846   6.094 -0.0588 -0.0581  0.4449
  909YOPE   GL212722   9.597   1.606   6.125 -0.3321  0.0548 -0.1646
  909YOPE   C1A12723  10.069   1.892   6.327 -0.0524  0.0663  0.2842
  909YOPE   D2A12724  10.117   1.818   6.822 -0.2113  0.1093 -0.1429
  909YOPE   C3A12725  10.290   1.989   7.216  0.0868  0.0478 -0.0006
  909YOPE   C4A12726  10.430   1.881   7.637 -0.0070 -0.2107  0.2097
  909YOPE   C1B12727   9.794   1.460   6.621 -0.0518 -0.2760 -0.4245
  909YOPE   C2B12728   9.858   1.480   7.082  0.1845  0.0303  0.0060
  909YOPE   D3B12729  10.093   1.508   7.433 -0.0293 -0.2375 -0.0591
  909YOPE   C4B12730  10.111   1.480   7.873 -0.2161  0.0116  0.0854
  910YOPE   NH312731   1.123   5.325   5.435  0.0316 -0.1971  0.2972
  910YOPE   PO412732   0.981   4.952   5.313  0.2494  0.1182 -0.2960
  910YOPE   GL112733   0.865   4.721   5.681 -0.0086 -0.0325  0.1982
  910YOPE   GL212734   0.648   4.553   5.639  0.0614  0.1260  0.0598
  910YOPE   C1A12735   1.008   4.856   6.127 -0.0382 -0.1904  0.3422
  910YOPE   D2A12736   0.999   5.137   6.469 -0.1655  0.2238 -0.1863
  910YOPE   C3A12737   0.687   5.070   6.813  0.0703 -0.4574 -0.0089
  910YOPE   C4A12738   0.563   5.236   7.114  0.0240 -0.2402 -0.0862
  910YOPE   C1B12739   0.607   4.529   6.064 -0.0507 -0.0849  0.0504
  910YOPE   C2B12740   0.826   4.563   6.455  0.1986 -0.0523  0.1331
  910YOPE   D3B12741   0.841   4.570   6.867  0.2388  0.0474 -0.0584
  910YOPE   C4B12742   1.144   4.694   7.053 -0.1543 -0.1215  0.0271
  911YOPE   NH312743  14.005  17.420   6.225  0.2315 -0.0228 -0.3051
  911YOPE   PO412744  13.550  17.316   6.030 -0.4302 -0.0501 -0.1349
  911YOPE   GL112745  13.584  17.107   6.434 -0.3142  0.0572  0.2557
  911YOPE   GL212746  13.850  17.227   6.707 -0.4160 -0.2275 -0.1037
  911YOPE   C1A12747  13.406  16.967   6.760  0.2871 -0.0179 -0.1284
  911YOPE   D2A12748  13.313  16.984   7.162  0.0810 -0.0372  0.0657
  911YOPE   C3A12749  13.353  16.760   7.506  0.0422 -0.0695  0.1126
  911YOPE   C4A12750  13.588  16.530   7.826 -0.1935 -0.0633  0.0738
  911YOPE   C1B12751  14.173  17.342   7.038 -0.3774  0.0088 -0.3654
  911YOPE   C2B12752  14.073  17.355   7.497 -0.0171 -0.1232  0.0481
  911YOPE   D3B12753  13.809  17.503   7.962 -0.1987 -0.2449 -0.0435
  911YOPE   C4B12754  13.558  17.478   8.241 -0.3352 -0.2014 -0.0531
  912YOPE   NH312755   8.035   5.231   6.074  0.3064  0.1407 -0.1137
  912YOPE   PO412756   7.592   5.180   5.990  0.1122 -0.0054  0.1340
  912YOPE   GL112757   7.633   5.534   6.224 -0.0895 -0.1400 -0.3281
  912YOPE   GL212758   7.405   5.743   6.190 -0.0840 -0.2634 -0.0764
  912YOPE   C1A12759   7.678   5.691   6.667  0.4041 -0.3231  0.0025
  912YOPE   D2A12760   7.556   5.779   7.109  0.0971 -0.0747 -0.2819
  912YOPE   C3A12761   7.804   5.738   7.435 -0.2014 -0.0133 -0.0969
  912YOPE   C4A12762   8.059   5.762   7.861  0.0610 -0.1356 -0.0232
  912YOPE   C1B12763   7.134   5.870   6.619 -0.0958  0.0413 -0.4575
  912YOPE   C2B12764   7.031   5.728   6.992 -0.1203  0.0819  0.1692
  912YOPE   D3B12765   6.857   5.772   7.392 -0.0487 -0.2991  0.1239
  912YOPE   C4B12766   6.688   5.894   7.684 -0.1453 -0.2385 -0.2573
  913YOPE   NH312767   6.934   1.324   5.621 -0.1738 -0.2254  0.1146
  913YOPE   PO412768   6.444   1.225   5.454  0.1763  0.1447  0.2025
  913YOPE   GL112769   6.517   1.185   5.949  0.0300  0.0296 -0.3904
  913YOPE   GL212770   6.777   1.314   6.147 -0.2785  0.0067  0.1411
  913YOPE   C1A12771   6.613   0.907   6.289  0.0873  0.0500 -0.2305
  913YOPE   D2A12772   6.658   0.754   6.816  0.0394 -0.2448  0.3977
  913YOPE   C3A12773   6.392   0.467   7.033  0.1535 -0.0498  0.1698
  913YOPE   C4A12774   6.125   0.246   7.359  0.2694 -0.1058 -0.0119
  913YOPE   C1B12775   6.903   1.536   6.492  0.1152  0.0184 -0.1109
  913YOPE   C2B12776   6.790   1.685   6.932  0.0523 -0.0344  0.1898
  913YOPE   D3B12777   6.824   1.778   7.284  0.0526 -0.1855  0.0340
  913YOPE   C4B12778   7.164   1.751   7.632 -0.2680 -0.0932 -0.0613
  914YOPE   NH312779   8.749  12.622   5.584  0.0315  0.0117 -0.2532
  914YOPE   PO412780   8.396  12.713   5.439 -0.0679  0.2758  0.1058
  914YOPE   GL112781   8.390  12.470   5.926 -0.0838  0.1504  0.0380
  914YOPE   GL212782   8.670  12.650   6.100  0.3177  0.1247 -0.1755
  914YOPE   C1A12783   8.277  12.411   6.428  0.4675  0.1072 -0.3148
  914YOPE   D2A12784   8.141  12.028   6.575 -0.4647  0.2202  0.0123
  914YOPE   C3A12785   8.290  12.019   7.003  0.0161  0.3292  0.0810
  914YOPE   C4A12786   8.534  11.661   7.160 -0.0056 -0.1827  0.0478
  914YOPE   C1B12787   8.634  12.663   6.618 -0.0331 -0.0839 -0.0049
  914YOPE   C2B12788   8.665  12.630   7.057  0.0110 -0.2059 -0.1890
  914YOPE   D3B12789   8.530  12.897   7.382 -0.0065  0.3194 -0.2458
  914YOPE   C4B12790   8.635  13.269   7.465 -0.0493 -0.1384 -0.0558
  915YOPE   NH312791  12.462   1.406   5.929  0.1169  0.1232  0.4162
  915YOPE   PO412792  12.217   1.020   5.870 -0.1012 -0.3034 -0.0308
  915YOPE   GL112793  12.140   1.014   6.284 -0.0646 -0.1911 -0.0298
  915YOPE   GL212794  12.533   1.183   6.381  0.0916  0.0417 -0.1015
  915YOPE   C1A12795  12.038   1.245   6.603  0.0407  0.0791  0.1533
  915YOPE   D2A12796  11.887   1.436   6.881  0.2729  0.0603 -0.0314
  915YOPE   C3A12797  11.912   1.242   7.414  0.3617 -0.0123 -0.1868
  915YOPE   C4A12798  11.836   1.138   7.890 -0.0318  0.0677  0.2921
  915YOPE   C1B12799  12.454   1.382   6.839  0.1499 -0.0544  0.2114
  915YOPE   C2B12800  12.435   1.313   7.266  0.5134 -0.1470  0.0653
  915YOPE   D3B12801  12.372   1.431   7.666 -0.0307  0.3222  0.1359
  915YOPE   C4B12802  12.443   1.551   8.095  0.0728 -0.1112  0.0281
  916YOPE   NH312803  14.805  18.510   6.131 -0.1842  0.1859 -0.1098
  916YOPE   PO412804  14.376  18.660   6.156 -0.0662  0.0395  0.0454
  916YOPE   GL112805  14.187  18.716   6.526  0.1594  0.2782  0.2891
  916YOPE   GL212806  14.166  18.512   6.669  0.0504  0.2269 -0.2386
  916YOPE   C1A12807  14.234  18.994   6.898 -0.0320  0.0607 -0.2268
  916YOPE   D2A12808  14.070  19.051   7.285  0.1756  0.0395  0.0427
  916YOPE   C3A12809  14.221  19.393   7.627 -0.1593  0.4901  0.3546
  916YOPE   C4A12810  14.291  19.807   7.729  0.2080  0.2054 -0.0570
  916YOPE   C1B12811  14.193  18.562   7.134 -0.1528 -0.1015  0.0421
  916YOPE   C2B12812  14.325  18.528   7.565  0.1686  0.0012 -0.1076
  916YOPE   D3B12813  14.464  18.854   7.851 -0.0787  0.0474  0.0764
  916YOPE   C4B12814  14.489  19.228   8.085  0.2074  0.2179 -0.0902
  917YOPE   NH312815   9.757  13.708   5.716 -0.0443  0.0817 -0.2077
  917YOPE   PO412816  10.141  13.962   5.497  0.2014  0.1432  0.0833
  917YOPE   GL112817  10.462  13.880   5.747  0.2313 -0.1697 -0.1296
  917YOPE   GL212818  10.302  13.698   5.878 -0.2492  0.0201  0.0772
  917YOPE   C1A12819  10.603  14.073   6.119  0.0514 -0.1582  0.0381
  917YOPE   D2A12820  10.738  13.856   6.456 -0.4085 -0.0201 -0.2125
  917YOPE   C3A12821  10.716  13.425   6.559  0.0600 -0.0270  0.1249
  917YOPE   C4A12822  10.898  13.161   6.733 -0.2310  0.1686  0.2018
  917YOPE   C1B12823  10.680  13.559   6.049 -0.0741  0.0598  0.1405
  917YOPE   C2B12824  10.946  13.151   6.201 -0.0190  0.1594  0.2246
  917YOPE   D3B12825  11.230  12.722   6.234 -0.0163  0.0569 -0.2464
  917YOPE   C4B12826  11.293  12.368   6.573 -0.0075  0.3177 -0.2562
  918YOPE   NH312827   6.398  12.986   5.106  0.1701  0.0285  0.4500
  918YOPE   PO412828   6.204  13.389   4.986 -0.0013 -0.2194  0.1829
  918YOPE   GL112829   6.511  13.436   5.328  0.0898  0.0352 -0.2383
  918YOPE   GL212830   6.403  13.507   5.681 -0.0070  0.2236 -0.1219
  918YOPE   C1A12831   6.869  13.398   5.627  0.0263  0.2333  0.5050
  918YOPE   D2A12832   7.059  13.211   5.949  0.0265 -0.0236 -0.0451
  918YOPE   C3A12833   6.983  13.136   6.399 -0.3456 -0.0148 -0.0128
  918YOPE   C4A12834   7.215  12.981   6.796 -0.1604 -0.1143 -0.0064
  918YOPE   C1B12835   6.394  13.463   6.091 -0.2376 -0.0424  0.0216
  918YOPE   C2B12836   6.641  13.488   6.468 -0.1090  0.0182  0.1312
  918YOPE   D3B12837   6.952  13.484   6.805 -0.1360  0.0823 -0.1605
  918YOPE   C4B12838   7.149  13.331   7.106 -0.0878  0.0068  0.1465
  919YOPE   NH312839  12.764   4.798   5.609 -0.0713  0.1247  0.1218
  919YOPE   PO412840  13.265   4.882   5.563  0.1422 -0.3134 -0.2681
  919YOPE   GL112841  13.115   4.947   6.034 -0.2368 -0.1051  0.3125
  919YOPE   GL212842  13.182   4.698   6.197  0.0166 -0.2191 -0.2309
  919YOPE   C1A12843  12.743   4.912   6.285 -0.0717  0.0596 -0.2008
  919YOPE   D2A12844  12.513   4.806   6.696 -0.1930 -0.2607 -0.0813
  919YOPE   C3A12845  12.673   4.843   6.970 -0.1470  0.2678  0.3025
  919YOPE   C4A12846  12.741   4.904   7.395 -0.1328  0.1819  0.1066
  919YOPE   C1B12847  13.100   4.778   6.648  0.0426  0.1733 -0.0867
  919YOPE   C2B12848  13.144   4.783   7.073  0.0288 -0.0701  0.0829
  919YOPE   D3B12849  13.197   5.079   7.389 -0.1395  0.0617  0.0715
  919YOPE   C4B12850  13.528   5.201   7.628 -0.0766 -0.1640 -0.1729
  920YOPE   NH312851  18.650  11.390   5.771 -0.1328 -0.1632 -0.3433
  920YOPE   PO412852  18.774  10.951   5.725  0.4698  0.3000 -0.4630
  920YOPE   GL112853  18.461  10.910   6.074 -0.2038 -0.1363 -0.0397
  920YOPE   GL212854  18.313  11.219   6.111 -0.1055  0.0387  0.0257
  920YOPE   C1A12855  18.403  10.664   6.372  0.1215 -0.1611  0.1181
  920YOPE   D2A12856  18.403  10.596   6.895 -0.0656  0.1025 -0.1465
  920YOPE   C3A12857  18.384  10.957   7.150  0.1073  0.0038 -0.0574
  920YOPE   C4A12858  18.284  11.137   7.559  0.3443  0.0241 -0.1307
  920YOPE   C1B12859  18.281  11.215   6.583 -0.2759 -0.2770  0.1227
  920YOPE   C2B12860  18.299  11.396   6.902 -0.0060  0.0018 -0.3452
  920YOPE   D3B12861  18.114  11.508   7.258 -0.0187 -0.4741 -0.0410
  920YOPE   C4B12862  17.679  11.397   7.445  0.0718 -0.0349  0.2406
  921YOPE   NH312863  16.843   4.756   5.858  0.3960 -0.1174 -0.0443
  921YOPE   PO412864  17.261   4.652   5.642 -0.0119  0.2733 -0.0094
  921YOPE   GL112865  17.463   4.425   5.952  0.0466 -0.2116  0.2132
  921YOPE   GL212866  17.395   4.165   6.054 -0.1931 -0.3391  0.0856
  921YOPE   C1A12867  17.410   4.404   6.529 -0.1178 -0.0670 -0.1851
  921YOPE   D2A12868  17.633   4.220   6.944 -0.0363  0.1652  0.1284
  921YOPE   C3A12869  17.484   3.803   7.334 -0.1015  0.0889  0.1418
  921YOPE   C4A12870  17.495   3.468   7.533  0.2328 -0.0010 -0.1868
  921YOPE   C1B12871  17.391   3.902   6.322  0.1843  0.1788 -0.1804
  921YOPE   C2B12872  17.514   3.678   6.673  0.1381  0.0868  0.1367
  921YOPE   D3B12873  17.441   3.447   7.009 -0.4030 -0.0347  0.3254
  921YOPE   C4B12874  17.495   3.054   7.230 -0.0284 -0.2479  0.0983
  922YOPE   NH312875   3.528   3.632   5.402  0.1705 -0.1615  0.1327
  922YOPE   PO412876   3.639   3.116   5.529  0.0738 -0.0739 -0.0032
  922YOPE   GL112877   3.435   3.283   5.854  0.0208  0.1172 -0.1897
  922YOPE   GL212878   3.429   3.663   5.880 -0.1601 -0.0041  0.1101
  922YOPE   C1A12879   3.225   3.355   6.250  0.0134 -0.0169 -0.3437
  922YOPE   D2A12880   2.896   3.318   6.501 -0.1272  0.0437 -0.0509
  922YOPE   C3A12881   2.913   3.257   6.955 -0.3662  0.3648  0.1695
  922YOPE   C4A12882   3.023   3.571   7.277  0.3308 -0.0996  0.0429
  922YOPE   C1B12883   3.759   3.605   6.118  0.0325 -0.0142  0.0551
  922YOPE   C2B12884   4.185   3.833   6.207  0.2414 -0.1222 -0.0404
  922YOPE   D3B12885   4.333   4.098   6.267 -0.0210 -0.0164  0.1162
  922YOPE   C4B12886   4.604   4.389   6.003  0.1226 -0.1558 -0.2456
  923YOPE   NH312887   9.320   7.929   5.761  0.2801  0.2925  0.0789
  923YOPE   PO412888   9.539   7.628   5.800 -0.3509  0.0444 -0.1958
  923YOPE   GL112889   9.616   7.851   6.170 -0.3417  0.0697  0.0900
  923YOPE   GL212890   9.858   8.063   6.167  0.1359 -0.1180  0.0281
  923YOPE   C1A12891   9.528   7.932   6.593  0.2211 -0.2729  0.0601
  923YOPE   D2A12892   9.520   8.083   7.073  0.2309  0.2894 -0.1899
  923YOPE   C3A12893   9.442   8.478   7.120 -0.0803 -0.0033  0.0625
  923YOPE   C4A12894   9.327   8.788   6.877 -0.2686 -0.0554 -0.1533
  923YOPE   C1B12895  10.040   8.002   6.493 -0.0328 -0.1888 -0.0694
  923YOPE   C2B12896  10.016   8.083   6.935  0.1206  0.2414 -0.0723
  923YOPE   D3B12897  10.050   7.974   7.385 -0.1440 -0.0714 -0.1901
  923YOPE   C4B12898   9.907   8.102   7.737 -0.0928 -0.1567 -0.0288
  924YOPE   NH312899  18.770   0.905   5.410  0.1949 -0.2517  0.1734
  924YOPE   PO412900  19.097   0.988   5.725  0.1036  0.0115 -0.2558
  924YOPE   GL112901  19.083   1.079   6.197  0.0589  0.1695  0.1373
  924YOPE   GL212902  18.874   1.189   6.403  0.0829 -0.0606  0.0035
  924YOPE   C1A12903  19.364   1.114   6.591 -0.0737  0.0070  0.0947
  924YOPE   D2A12904  19.441   1.131   7.045  0.1082  0.1842  0.0825
  924YOPE   C3A12905  19.842   0.958   7.142  0.0049  0.1531  0.0188
  924YOPE   C4A12906  20.158   0.683   7.267  0.0953  0.2563  0.1804
  924YOPE   C1B12907  18.774   1.078   6.793  0.1897 -0.0506 -0.0865
  924YOPE   C2B12908  18.480   1.088   7.189  0.2186 -0.1006 -0.1812
  924YOPE   D3B12909  18.109   1.240   7.392  0.1321  0.0722  0.3015
  924YOPE   C4B12910  17.743   1.358   7.708  0.0452  0.2669 -0.1690
  925YOPE   NH312911  12.387   8.820   5.763 -0.0397  0.1726 -0.2469
  925YOPE   PO412912  12.585   8.402   5.764  0.2398  0.2967 -0.3026
  925YOPE   GL112913  12.412   8.425   6.108  0.2914  0.0492 -0.2996
  925YOPE   GL212914  12.174   8.601   6.197  0.0126 -0.0325  0.2944
  925YOPE   C1A12915  12.566   8.351   6.457 -0.3652 -0.1297  0.1003
  925YOPE   D2A12916  12.819   7.903   6.576  0.1105  0.1764  0.2557
  925YOPE   C3A12917  12.805   7.842   7.017 -0.0500  0.3502 -0.1091
  925YOPE   C4A12918  12.886   7.878   7.450  0.0353  0.0897  0.0777
  925YOPE   C1B12919  12.104   8.705   6.615  0.1953 -0.3479  0.0820
  925YOPE   C2B12920  12.243   8.645   7.012 -0.0269  0.1783 -0.0809
  925YOPE   D3B12921  12.460   8.763   7.347 -0.2674 -0.0647  0.2028
  925YOPE   C4B12922  12.624   9.118   7.589  0.3602  0.4517  0.1099
  926YOPE   NH312923  16.226   0.284   5.710 -0.3976 -0.0513 -0.1683
  926YOPE   PO412924  16.054   0.671   5.846  0.2544 -0.0702 -0.4373
  926YOPE   GL112925  16.079   0.528   6.223  0.0413 -0.4534  0.0549
  926YOPE   GL212926  16.226   0.843   6.344 -0.1828  0.1642 -0.2928
  926YOPE   C1A12927  16.030   0.182   6.389  0.0217 -0.0458  0.0203
  926YOPE   D2A12928  16.023   0.148   6.822 -0.0177 -0.2164  0.2203
  926YOPE   C3A12929  16.072   0.374   7.272 -0.0966 -0.2158  0.0705
  926YOPE   C4A12930  16.305   0.150   7.668 -0.0727 -0.1031  0.2246
  926YOPE   C1B12931  16.126   1.192   6.646 -0.1233 -0.0942  0.1684
  926YOPE   C2B12932  16.212   1.464   6.953  0.0321  0.0489  0.1283
  926YOPE   D3B12933  16.169   1.392   7.424 -0.1949 -0.4707 -0.0649
  926YOPE   C4B12934  16.311   1.157   7.772 -0.2609 -0.0416  0.0853
  927YOPE   NH312935   4.621  17.477   5.278  0.3132 -0.0815  0.1949
  927YOPE   PO412936   4.635  17.965   5.173  0.1298  0.0079 -0.1575
  927YOPE   GL112937   4.566  18.045   5.591  0.2202  0.2027 -0.1093
  927YOPE   GL212938   4.564  17.776   5.746  0.1025  0.0143 -0.0004
  927YOPE   C1A12939   4.538  18.333   5.866  0.1876  0.0297  0.0016
  927YOPE   D2A12940   4.555  18.572   6.213  0.0634 -0.0470  0.1849
  927YOPE   C3A12941   4.679  18.593   6.605 -0.1437 -0.1367 -0.1135
  927YOPE   C4A12942   4.829  18.397   6.993 -0.1245  0.2309 -0.1246
  927YOPE   C1B12943   4.821  17.544   6.091  0.0910 -0.1004 -0.0884
  927YOPE   C2B12944   5.019  17.532   6.450 -0.2420  0.2719  0.1373
  927YOPE   D3B12945   5.140  17.682   6.933  0.2560  0.1039  0.1772
  927YOPE   C4B12946   5.058  17.948   7.361  0.1837  0.0051  0.2921
  928YOPE   NH312947   0.495   8.127   5.655  0.0237 -0.0435 -0.0101
  928YOPE   PO412948   0.091   8.075   5.452 -0.1804  0.1805 -0.1048
  928YOPE   GL112949   0.078   7.891   5.875 -0.0787 -0.1094  0.3670
  928YOPE   GL212950  -0.086   7.586   5.994 -0.0403  0.0426  0.0685
  928YOPE   C1A12951   0.034   7.943   6.335  0.1038  0.2354  0.0499
  928YOPE   D2A12952   0.161   8.059   6.816  0.0326 -0.0205 -0.0066
  928YOPE   C3A12953  -0.038   7.844   7.024  0.2438  0.0295  0.1392
  928YOPE   C4A12954  -0.320   7.815   7.236  0.2253  0.1698  0.0251
  928YOPE   C1B12955   0.274   7.455   6.155  0.0592  0.0179 -0.0095
  928YOPE   C2B12956   0.430   7.657   6.505 -0.1021  0.0080  0.2019
  928YOPE   D3B12957   0.739   7.808   6.724  0.0429  0.1486 -0.0487
  928YOPE   C4B12958   0.628   7.876   7.063  0.0659  0.5991 -0.2872
  929YOPE   NH312959  13.050   3.924   5.866 -0.2286  0.3617  0.0013
  929YOPE   PO412960  13.220   3.741   6.188  0.1716  0.1205  0.0085
  929YOPE   GL112961  13.175   3.781   6.552 -0.0207 -0.2165 -0.0606
  929YOPE   GL212962  13.053   4.143   6.665 -0.0022 -0.1893 -0.2277
  929YOPE   C1A12963  13.172   3.810   7.045 -0.1783 -0.0537  0.4386
  929YOPE   D2A12964  13.091   4.044   7.367 -0.1757 -0.2785 -0.2285
  929YOPE   C3A12965  13.337   4.378   7.516 -0.1849  0.1775  0.0287
  929YOPE   C4A12966  13.633   4.223   7.902 -0.1089  0.0046 -0.2415
  929YOPE   C1B12967  12.924   4.370   6.935  0.3387 -0.3314  0.0027
  929YOPE   C2B12968  12.613   4.381   7.221  0.0287  0.0915  0.0805
  929YOPE   D3B12969  12.834   4.493   7.615  0.2539 -0.0210 -0.1859
  929YOPE   C4B12970  13.079   4.248   7.905 -0.0554  0.1935 -0.0523
  930YOPE   NH312971  12.315   3.278   5.747 -0.3991 -0.2424 -0.1765
  930YOPE   PO412972  12.065   3.542   5.533 -0.0650 -0.1404 -0.5281
  930YOPE   GL112973  11.718   3.434   5.904 -0.2189  0.1695 -0.2537
  930YOPE   GL212974  12.015   3.550   6.081 -0.2966 -0.0706  0.0754
  930YOPE   C1A12975  11.577   3.723   6.288 -0.0344  0.3298 -0.0926
  930YOPE   D2A12976  11.648   3.846   6.753 -0.3422  0.2788  0.1789
  930YOPE   C3A12977  11.662   4.040   7.151  0.1073  0.0021  0.0624
  930YOPE   C4A12978  11.763   3.939   7.592  0.2251  0.2018  0.1253
  930YOPE   C1B12979  12.167   3.850   6.368  0.3489 -0.1345  0.0745
  930YOPE   C2B12980  12.141   3.961   6.799  0.0973 -0.1537 -0.0035
  930YOPE   D3B12981  12.027   3.670   7.140 -0.1831  0.2017  0.0999
  930YOPE   C4B12982  12.190   3.679   7.618 -0.0635 -0.2125 -0.2174
  931YOPE   NH312983  12.676  18.475   6.047  0.1516  0.2197 -0.5328
  931YOPE   PO412984  12.196  18.617   6.131 -0.1285 -0.0534 -0.4779
  931YOPE   GL112985  11.917  18.598   6.477  0.0121 -0.2648 -0.0010
  931YOPE   GL212986  11.832  18.357   6.656 -0.0915  0.0825 -0.0093
  931YOPE   C1A12987  11.885  18.826   6.799 -0.0869 -0.3930 -0.1196
  931YOPE   D2A12988  11.867  18.735   7.215  0.1211 -0.0857 -0.2200
  931YOPE   C3A12989  11.612  19.013   7.480  0.1614  0.1831 -0.0588
  931YOPE   C4A12990  11.307  19.097   7.824 -0.1222  0.0877 -0.1458
  931YOPE   C1B12991  11.802  18.240   7.075  0.1304 -0.1520 -0.0093
  931YOPE   C2B12992  11.764  18.343   7.508 -0.2014  0.0597 -0.0157
  931YOPE   D3B12993  11.480  18.600   7.745  0.0036  0.2008  0.1071
  931YOPE   C4B12994  11.579  18.687   8.167  0.3351  0.1221 -0.1148
  932YOPE   NH312995  17.471   6.905   5.806 -0.0868  0.0086 -0.0393
  932YOPE   PO412996  17.045   6.731   5.548 -0.0994  0.0457  0.2113
  932YOPE   GL112997  16.980   6.650   5.970 -0.1355  0.0181 -0.0586
  932YOPE   GL212998  16.841   6.380   6.200 -0.0051  0.2049 -0.0519
  932YOPE   C1A12999  17.057   6.810   6.348  0.2225 -0.0562 -0.5174
  932YOPE   D2A13000  17.353   6.897   6.613  0.0143 -0.3240  0.2272
  932YOPE   C3A13001  17.302   6.884   7.074  0.2365  0.0658 -0.1833
  932YOPE   C4A13002  17.198   6.878   7.555  0.0774  0.0337  0.1582
  932YOPE   C1B13003  17.105   6.410   6.573  0.0423 -0.2143  0.0509
  932YOPE   C2B13004  17.162   6.364   7.057 -0.0439  0.3053  0.0232
  932YOPE   D3B13005  17.390   6.462   7.452  0.0550  0.4019  0.0288
  932YOPE   C4B13006  17.620   6.424   7.930  0.2573  0.0941  0.4100
  933YOPE   NH313007   1.567  18.521   5.538  0.2659 -0.1574  0.0859
  933YOPE   PO413008   1.482  19.000   5.602 -0.1654  0.0732  0.0614
  933YOPE   GL113009   1.837  18.968   5.774 -0.2299 -0.1508  0.1278
  933YOPE   GL213010   1.822  18.704   5.970 -0.2795 -0.0007 -0.0140
  933YOPE   C1A13011   1.997  19.308   6.143 -0.1821  0.2907 -0.0628
  933YOPE   D2A13012   2.194  19.627   6.261  0.1722 -0.0415  0.2561
  933YOPE   C3A13013   2.195  19.677   6.699 -0.2468  0.0718  0.1088
  933YOPE   C4A13014   2.009  19.833   7.097 -0.2159  0.0615 -0.2000
  933YOPE   C1B13015   1.452  18.547   6.211 -0.1098  0.1195  0.1320
  933YOPE   C2B13016   1.430  18.409   6.600 -0.1686  0.0939 -0.0392
  933YOPE   D3B13017   1.263  18.391   7.080 -0.0404  0.0483 -0.1666
  933YOPE   C4B13018   1.230  18.126   7.525  0.2147  0.3956  0.0143
  934YOPE   NH313019   2.172  11.762   5.511  0.2137  0.0458 -0.0354
  934YOPE   PO413020   1.647  11.589   5.492  0.1887 -0.2871  0.3038
  934YOPE   GL113021   1.748  11.499   5.841  0.1088 -0.1550  0.2627
  934YOPE   GL213022   2.013  11.397   5.835  0.2226  0.2052  0.0119
  934YOPE   C1A13023   1.689  11.471   6.336  0.1262  0.0424 -0.0470
  934YOPE   D2A13024   1.429  11.501   6.639 -0.2539  0.2234 -0.1898
  934YOPE   C3A13025   1.690  11.593   7.042 -0.0228  0.1621  0.1494
  934YOPE   C4A13026   1.526  11.549   7.465  0.0446 -0.0805 -0.3507
  934YOPE   C1B13027   2.178  11.551   6.208 -0.2080 -0.1638  0.0568
  934YOPE   C2B13028   2.112  11.621   6.590  0.2095 -0.1901  0.1004
  934YOPE   D3B13029   2.166  11.782   6.946  0.0582  0.0581 -0.1285
  934YOPE   C4B13030   1.902  11.947   7.330  0.2108 -0.0009 -0.0364
  935YOPE   NH313031   2.970  12.088   5.427  0.0340 -0.2302  0.3244
  935YOPE   PO413032   2.960  12.558   5.342 -0.0855 -0.1814 -0.0097
  935YOPE   GL113033   3.040  12.642   5.771  0.1460 -0.0840  0.3196
  935YOPE   GL213034   2.939  12.414   5.862  0.0648  0.0402  0.1569
  935YOPE   C1A13035   3.386  12.510   6.000  0.0838  0.2841 -0.1208
  935YOPE   D2A13036   3.790  12.502   6.277  0.3087  0.0495  0.0745
  935YOPE   C3A13037   3.992  12.075   5.996 -0.2381  0.2121  0.1498
  935YOPE   C4A13038   4.236  11.841   5.803 -0.1549  0.0190  0.0455
  935YOPE   C1B13039   2.921  12.452   6.360  0.4412  0.2483 -0.2447
  935YOPE   C2B13040   2.825  12.534   6.845 -0.0261 -0.2352 -0.2739
  935YOPE   D3B13041   2.949  12.203   7.207  0.2225 -0.0886 -0.1285
  935YOPE   C4B13042   3.275  12.085   7.526 -0.0255 -0.1679  0.0142
  936YOPE   NH313043  14.538   4.787   5.908  0.2074  0.1457  0.2071
  936YOPE   PO413044  14.880   4.357   5.974 -0.1991  0.0683  0.1230
  936YOPE   GL113045  15.141   4.513   6.173  0.1545  0.0392  0.1213
  936YOPE   GL213046  15.225   4.260   6.370  0.0243  0.0698  0.3381
  936YOPE   C1A13047  15.268   4.742   6.524  0.1157  0.3014 -0.3626
  936YOPE   D2A13048  15.332   5.002   6.892  0.1078  0.1395  0.0253
  936YOPE   C3A13049  15.806   4.946   6.974 -0.1232 -0.0709 -0.0384
  936YOPE   C4A13050  15.983   5.291   7.437  0.1470 -0.0525 -0.0881
  936YOPE   C1B13051  15.420   4.216   6.717  0.1956 -0.1561 -0.1014
  936YOPE   C2B13052  15.494   4.544   7.012  0.1487  0.0473  0.0027
  936YOPE   D3B13053  15.517   4.765   7.407  0.2437 -0.0340 -0.0280
  936YOPE   C4B13054  15.785   4.672   7.651  0.0417  0.1203  0.1911
  937YOPE   NH313055  10.898  15.409   5.877 -0.0390 -0.0626 -0.0949
  937YOPE   PO413056  10.388  15.391   5.822  0.3501  0.3109  0.1967
  937YOPE   GL113057  10.491  15.306   6.247  0.1421 -0.3580  0.0741
  937YOPE   GL213058  10.551  15.579   6.329 -0.2891 -0.1172 -0.0928
  937YOPE   C1A13059  10.409  15.083   6.639 -0.0845  0.1348  0.5804
  937YOPE   D2A13060  10.308  14.969   7.047  0.0348 -0.3908  0.0780
  937YOPE   C3A13061  10.530  15.245   7.281 -0.1886  0.0194  0.3003
  937YOPE   C4A13062  10.847  15.427   7.586 -0.1890  0.0008  0.0039
  937YOPE   C1B13063  10.403  15.564   6.825  0.2093 -0.0374  0.5276
  937YOPE   C2B13064  10.066  15.524   7.243 -0.0602 -0.2107  0.1416
  937YOPE   D3B13065   9.979  15.681   7.599  0.0465  0.2426  0.4197
  937YOPE   C4B13066   9.945  15.973   7.932 -0.0057 -0.5404  0.1273
  938YOPE   NH313067   0.416   1.499   5.736 -0.0168  0.1538 -0.1729
  938YOPE   PO413068   0.456   1.913   5.546 -0.1263 -0.0064 -0.1056
  938YOPE   GL113069   0.335   1.921   6.055  0.2026  0.1861  0.2838
  938YOPE   GL213070   0.331   1.612   6.264 -0.2338 -0.0456  0.0278
  938YOPE   C1A13071   0.142   1.939   6.617  0.1651  0.0144 -0.1437
  938YOPE   D2A13072   0.094   1.855   7.043 -0.1411  0.2043  0.1217
  938YOPE   C3A13073   0.445   1.815   7.243 -0.2548 -0.0734 -0.2650
  938YOPE   C4A13074   0.756   1.794   7.516 -0.2400 -0.2285  0.3623
  938YOPE   C1B13075   0.399   1.529   6.756  0.3002 -0.0289 -0.0714
  938YOPE   C2B13076   0.835   1.634   7.036 -0.1597 -0.1711  0.0403
  938YOPE   D3B13077   1.135   1.518   7.353 -0.1556  0.2490  0.0071
  938YOPE   C4B13078   1.275   1.596   7.792  0.4416 -0.0808  0.1229
  939YOPE   NH313079   9.693   0.608   5.676 -0.1351  0.1681 -0.0434
  939YOPE   PO413080  10.032   0.893   5.869 -0.1990 -0.0164 -0.0144
  939YOPE   GL113081  10.164   0.822   6.332 -0.1089  0.2612  0.1279
  939YOPE   GL213082  10.226   0.412   6.356 -0.1499 -0.1786  0.2276
  939YOPE   C1A13083  10.146   0.635   6.836  0.0262  0.4670  0.0802
  939YOPE   D2A13084   9.963   0.687   7.276 -0.1584  0.3492 -0.1424
  939YOPE   C3A13085   9.806   0.420   7.725  0.1268  0.0027  0.2422
  939YOPE   C4A13086   9.840  -0.032   8.021 -0.2335 -0.1334  0.3090
  939YOPE   C1B13087  10.345   0.075   6.619 -0.0095  0.1675  0.2832
  939YOPE   C2B13088  10.227  -0.271   6.933  0.0003 -0.0092  0.3786
  939YOPE   D3B13089  10.057  -0.321   7.374  0.1848 -0.0107  0.1234
  939YOPE   C4B13090  10.105   0.023   7.629 -0.2001 -0.2121 -0.2670
  940YOPE   NH313091  12.244   2.307   5.980  0.0019 -0.1460 -0.0926
  940YOPE   PO413092  12.259   1.843   6.047 -0.1162 -0.1800 -0.2557
  940YOPE   GL113093  12.458   1.669   6.380 -0.0421 -0.0117 -0.2570
  940YOPE   GL213094  12.775   1.739   6.267 -0.0685 -0.1410  0.0834
  940YOPE   C1A13095  12.636   1.899   6.737 -0.1430  0.5090 -0.0548
  940YOPE   D2A13096  12.652   1.730   7.226 -0.0681  0.1746  0.1927
  940YOPE   C3A13097  12.736   1.940   7.638  0.0288 -0.0059 -0.1071
  940YOPE   C4A13098  12.726   2.006   8.014  0.0742  0.1009 -0.0946
  940YOPE   C1B13099  12.786   2.093   6.332  0.0676 -0.1407 -0.1022
  940YOPE   C2B13100  12.546   2.459   6.528  0.2621 -0.2462  0.1201
  940YOPE   D3B13101  12.546   2.675   6.870  0.1880 -0.2107  0.1166
  940YOPE   C4B13102  12.483   2.696   7.302 -0.1842  0.1783 -0.0802
  941YOPE   NH313103   5.665   1.897   5.486 -0.0581  0.0004 -0.0776
  941YOPE   PO413104   5.364   1.601   5.233  0.0125 -0.1989 -0.0922
  941YOPE   GL113105   5.134   1.769   5.666 -0.1712  0.1186  0.0352
  941YOPE   GL213106   4.975   1.474   5.677  0.0445  0.1892 -0.0856
  941YOPE   C1A13107   4.906   1.890   6.066 -0.2664 -0.2463  0.3943
  941YOPE   D2A13108   4.892   1.645   6.448  0.1537  0.1995 -0.0730
  941YOPE   C3A13109   4.774   1.700   6.790  0.0680 -0.1338  0.2372
  941YOPE   C4A13110   4.763   2.109   7.019 -0.0301 -0.2935  0.0699
  941YOPE   C1B13111   4.782   1.220   6.165  0.1081 -0.0714  0.0707
  941YOPE   C2B13112   4.815   1.205   6.752  0.0732  0.0898 -0.2139
  941YOPE   D3B13113   5.131   1.442   6.966 -0.2647 -0.2830 -0.1594
  941YOPE   C4B13114   4.870   1.653   7.260  0.0460 -0.1384 -0.0077
  942POPC   NC313115   0.489  10.875   5.711 -0.1723  0.3590 -0.1201
  942POPC   PO413116   0.792  11.076   5.409  0.0573  0.1452 -0.0227
  942POPC   GL113117   0.826  11.168   5.898  0.3790 -0.2847 -0.2659
  942POPC   GL213118   0.872  10.907   6.077  0.1334 -0.0290  0.0561
  942POPC   C1A13119   0.886  11.424   6.311 -0.0355 -0.1374 -0.3211
  942POPC   D2A13120   0.949  11.504   6.701 -0.0367 -0.0618  0.0311
  942POPC   C3A13121   0.817  11.851   6.837  0.2339  0.2516 -0.1666
  942POPC   C4A13122   0.708  12.015   7.221 -0.1456 -0.1880 -0.1590
  942POPC   C1B13123   0.923  10.637   6.454 -0.0604  0.1174 -0.1753
  942POPC   C2B13124   0.817  10.420   6.903 -0.0299 -0.2338 -0.0840
  942POPC   C3B13125   0.472  10.177   7.160 -0.0364 -0.1312 -0.0117
  942POPC   C4B13126   0.338  10.335   7.553 -0.0042  0.0136  0.1469
  943POPC   NC313127   4.944  10.348   5.802 -0.0166  0.0010 -0.3314
  943POPC   PO413128   4.915   9.943   5.859 -0.2800 -0.3961 -0.0436
  943POPC   GL113129   5.110   9.954   6.098 -0.0100 -0.1556 -0.1319
  943POPC   GL213130   5.077  10.236   6.308 -0.3787 -0.3164  0.0036
  943POPC   C1A13131   5.177   9.752   6.553  0.2951  0.4864 -0.1144
  943POPC   D2A13132   5.215   9.801   6.982 -0.2709  0.0551  0.0014
  943POPC   C3A13133   4.939   9.999   7.249 -0.2508  0.2990  0.2061
  943POPC   C4A13134   5.055  10.228   7.596 -0.0668  0.3685 -0.0602
  943POPC   C1B13135   5.011  10.240   6.723 -0.0497  0.0649 -0.1413
  943POPC   C2B13136   5.316  10.353   7.094  0.4647 -0.2581  0.2652
  943POPC   C3B13137   5.515  10.194   7.351  0.1293  0.0375  0.3724
  943POPC   C4B13138   5.896  10.446   7.573  0.0766  0.1032 -0.0816
  944POPC   NC313139  16.946  11.684   5.305 -0.0710 -0.2532 -0.2007
  944POPC   PO413140  16.771  11.886   5.587  0.1907  0.1587 -0.2952
  944POPC   GL113141  17.084  11.921   5.826  0.4017 -0.1151 -0.2367
  944POPC   GL213142  17.323  11.748   5.628  0.1189  0.0487  0.1172
  944POPC   C1A13143  17.538  12.039   5.985  0.0997  0.0000 -0.1261
  944POPC   D2A13144  17.695  11.979   6.332  0.0200 -0.2225 -0.2999
  944POPC   C3A13145  17.535  11.832   6.712  0.0668  0.0726 -0.0179
  944POPC   C4A13146  17.608  11.702   7.059 -0.0002 -0.0440  0.1861
  944POPC   C1B13147  17.469  11.407   5.696 -0.2185 -0.1740 -0.0542
  944POPC   C2B13148  17.307  11.015   5.576  0.1548 -0.4213 -0.1179
  944POPC   C3B13149  16.914  10.809   5.764 -0.0941  0.0180  0.3043
  944POPC   C4B13150  16.964  10.959   6.142 -0.1673 -0.3207  0.2836
  945POPC   NC313151   1.868   6.469   5.141 -0.1485 -0.0609 -0.2014
  945POPC   PO413152   2.116   6.245   5.405 -0.0082 -0.0985  0.3284
  945POPC   GL113153   1.924   6.465   5.682 -0.0434  0.0421 -0.1917
  945POPC   GL213154   1.912   6.767   5.572 -0.0692  0.1271 -0.0917
  945POPC   C1A13155   1.883   6.228   6.116  0.2743  0.0526  0.4643
  945POPC   D2A13156   1.640   5.810   6.129  0.2105  0.2103 -0.0663
  945POPC   C3A13157   1.482   5.804   6.503  0.3495  0.0782 -0.0797
  945POPC   C4A13158   1.327   5.724   6.957 -0.0214  0.0324 -0.2354
  945POPC   C1B13159   1.926   6.735   6.074 -0.2239 -0.3404  0.1640
  945POPC   C2B13160   2.012   6.683   6.515  0.0713  0.1629  0.0705
  945POPC   C3B13161   1.735   6.779   6.825  0.0007 -0.0262 -0.0459
  945POPC   C4B13162   1.562   6.852   7.238 -0.1896  0.1559  0.1096
  946POPC   NC313163  10.493  14.377   5.617 -0.4062 -0.5949 -0.1647
  946POPC   PO413164  10.976  14.179   5.660 -0.1341  0.0218 -0.0029
  946POPC   GL113165  11.149  14.150   5.974  0.2193  0.1547  0.1768
  946POPC   GL213166  11.139  13.818   6.046 -0.0539 -0.1941 -0.0759
  946POPC   C1A13167  11.039  14.217   6.422 -0.2209 -0.2423  0.1594
  946POPC   D2A13168  10.894  14.153   6.831  0.1532 -0.2173 -0.1240
  946POPC   C3A13169  10.770  14.413   7.132 -0.0769  0.0354 -0.4471
  946POPC   C4A13170  10.589  14.728   7.356 -0.1702 -0.0341 -0.2630
  946POPC   C1B13171  11.127  13.565   6.420  0.1300 -0.1235 -0.3585
  946POPC   C2B13172  11.272  13.477   6.821  0.1073  0.0231  0.1474
  946POPC   C3B13173  11.210  13.173   7.246  0.1359  0.1313 -0.2475
  946POPC   C4B13174  11.471  12.820   7.443  0.1762  0.0444 -0.1741
  947POPC   NC313175  10.092  15.262   5.446 -0.0320  0.4009 -0.0017
  947POPC   PO413176  10.217  14.810   5.467 -0.1083  0.0836 -0.1506
  947POPC   GL113177  10.115  14.862   5.881  0.2054 -0.1267 -0.4764
  947POPC   GL213178   9.836  14.891   5.896 -0.3665 -0.0789  0.0574
  947POPC   C1A13179  10.077  14.690   6.368  0.1290 -0.0918  0.0991
  947POPC   D2A13180  10.379  14.575   6.816 -0.0933  0.0951 -0.3494
  947POPC   C3A13181  10.213  14.297   7.060 -0.0471 -0.2711 -0.1180
  947POPC   C4A13182   9.927  14.231   7.364  0.1100 -0.2388  0.0360
  947POPC   C1B13183   9.874  15.201   6.209  0.1333  0.4169 -0.1873
  947POPC   C2B13184   9.896  15.187   6.663  0.1436 -0.0431 -0.0591
  947POPC   C3B13185   9.736  15.198   7.019 -0.1492  0.2886  0.0448
  947POPC   C4B13186   9.586  15.320   7.464  0.0971  0.0209 -0.2587
  948POPC   NC313187  10.607   4.766   5.572 -0.2108 -0.0257 -0.1649
  948POPC   PO413188  10.627   4.247   5.617 -0.1398  0.1235 -0.1157
  948POPC   GL113189  10.498   4.478   6.024  0.1128 -0.0589  0.0485
  948POPC   GL213190  10.687   4.760   6.061 -0.1476  0.0267 -0.0177
  948POPC   C1A13191  10.336   4.539   6.430  0.2550  0.1773 -0.0540
  948POPC   D2A13192   9.842   4.277   6.596  0.0539  0.2889 -0.2006
  948POPC   C3A13193   9.867   4.246   7.038 -0.0473  0.0613 -0.1515
  948POPC   C4A13194   9.858   4.019   7.405 -0.2274 -0.0333 -0.0498
  948POPC   C1B13195  10.911   4.755   6.399  0.1449 -0.1996  0.1074
  948POPC   C2B13196  10.986   4.817   6.961 -0.1613  0.1049  0.1110
  948POPC   C3B13197  10.673   4.787   7.296  0.1734 -0.0017  0.0374
  948POPC   C4B13198  10.546   4.565   7.736 -0.1092 -0.0654  0.0047
  949POPC   NC313199  11.136   5.400   5.256  0.5980  0.0539  0.1447
  949POPC   PO413200  11.475   5.447   5.555  0.0957  0.1469 -0.1188
  949POPC   GL113201  11.397   5.194   5.984 -0.1471  0.0465 -0.0460
  949POPC   GL213202  11.517   4.824   5.871  0.2451 -0.1275 -0.0300
  949POPC   C1A13203  11.353   5.348   6.411  0.1680  0.1849  0.2837
  949POPC   D2A13204  11.176   5.223   6.656  0.0932 -0.0708 -0.2546
  949POPC   C3A13205  11.330   5.432   7.063  0.0590  0.1003  0.0988
  949POPC   C4A13206  10.959   5.552   7.355 -0.2524 -0.4088  0.0674
  949POPC   C1B13207  11.427   4.816   6.287  0.0402 -0.0844  0.0124
  949POPC   C2B13208  11.363   4.775   6.664 -0.2417 -0.3223  0.1041
  949POPC   C3B13209  11.454   4.927   7.095  0.1720  0.1824  0.0399
  949POPC   C4B13210  11.174   4.885   7.462  0.1404 -0.0095  0.2447
  950POPC   NC313211  15.495  18.615   5.801  0.0484  0.1828 -0.0419
  950POPC   PO413212  15.257  18.979   5.861 -0.0726  0.0019  0.1737
  950POPC   GL113213  15.178  19.148   6.323 -0.0723 -0.0829 -0.1102
  950POPC   GL213214  15.483  19.121   6.598  0.0098  0.1724 -0.0654
  950POPC   C1A13215  14.852  19.157   6.664 -0.1105  0.0541  0.3355
  950POPC   D2A13216  14.642  19.331   7.055 -0.2714  0.2150 -0.1204
  950POPC   C3A13217  14.637  19.671   7.347  0.3979  0.0455  0.1037
  950POPC   C4A13218  14.772  19.968   7.678  0.0781  0.2103 -0.1679
  950POPC   C1B13219  15.677  19.252   6.962  0.0416 -0.1616  0.2533
  950POPC   C2B13220  15.625  19.392   7.433  0.2273  0.0485 -0.1121
  950POPC   C3B13221  16.049  19.452   7.706 -0.1966 -0.2858  0.1227
  950POPC   C4B13222  16.139  19.617   8.119  0.1707  0.0009 -0.1291
  951POPC   NC313223  10.821  17.938   5.587 -0.2208  0.1029  0.0269
  951POPC   PO413224  10.996  18.159   5.904  0.2900 -0.1377  0.0276
  951POPC   GL113225  11.094  18.081   6.325 -0.1020  0.1102 -0.1772
  951POPC   GL213226  11.422  18.070   6.420  0.5026  0.1286  0.1850
  951POPC   C1A13227  10.858  17.945   6.671 -0.0467 -0.1789 -0.0318
  951POPC   D2A13228  10.893  17.903   7.129 -0.2536 -0.1301 -0.0577
  951POPC   C3A13229  10.712  17.530   7.356  0.0650 -0.0365 -0.2162
  951POPC   C4A13230  10.571  17.566   7.773  0.2751  0.1537  0.0705
  951POPC   C1B13231  11.338  17.915   6.811 -0.0526  0.1774 -0.0416
  951POPC   C2B13232  11.392  17.966   7.193 -0.2707 -0.1153 -0.2415
  951POPC   C3B13233  11.336  18.049   7.585 -0.2494  0.2253 -0.0205
  951POPC   C4B13234  11.515  18.118   7.954 -0.3322  0.0879  0.4295
  952POPC   NC313235  16.591   7.028   5.538  0.0868 -0.2478 -0.1269
  952POPC   PO413236  16.333   7.220   5.253 -0.0295 -0.1073 -0.3549
  952POPC   GL113237  16.269   7.315   5.749 -0.1221  0.2851 -0.1532
  952POPC   GL213238  16.075   7.111   5.880  0.0057 -0.1498  0.0745
  952POPC   C1A13239  16.349   7.702   6.057 -0.1453 -0.0096 -0.2358
  952POPC   D2A13240  16.506   8.059   6.190  0.1002  0.1758 -0.0913
  952POPC   C3A13241  16.649   8.033   6.594 -0.3546 -0.3081  0.1952
  952POPC   C4A13242  16.675   8.246   6.805 -0.0713  0.0834 -0.2355
  952POPC   C1B13243  15.927   7.448   6.172  0.3099 -0.0916 -0.0550
  952POPC   C2B13244  16.093   7.671   6.594 -0.0948 -0.0965  0.1278
  952POPC   C3B13245  16.350   7.847   6.893 -0.0499 -0.1472  0.0206
  952POPC   C4B13246  16.292   7.814   7.379  0.3863  0.4654 -0.1479
  953POPC   NC313247  15.834  14.176   5.479  0.1136 -0.3213 -0.4417
  953POPC   PO413248  15.754  14.483   5.753 -0.0223  0.1089 -0.0265
  953POPC   GL113249  15.950  14.679   6.108 -0.0212 -0.0074 -0.1193
  953POPC   GL213250  15.917  14.478   6.265  0.3520  0.1351  0.0771
  953POPC   C1A13251  16.007  14.998   6.486 -0.0054  0.2254  0.2612
  953POPC   D2A13252  16.178  15.022   6.937  0.0331 -0.1543 -0.0796
  953POPC   C3A13253  16.036  15.082   7.397  0.0341 -0.0908 -0.1365
  953POPC   C4A13254  16.033  15.257   7.777  0.1666 -0.0786 -0.1506
  953POPC   C1B13255  16.042  14.566   6.748  0.3040 -0.1065 -0.0650
  953POPC   C2B13256  16.033  14.199   7.144  0.0134  0.2070 -0.0547
  953POPC   C3B13257  16.119  14.069   7.613  0.3314 -0.1018 -0.3674
  953POPC   C4B13258  15.986  13.720   7.814 -0.0992  0.0460  0.1586
  954POPC   NC313259  11.907   5.667   5.436  0.2545  0.1830  0.0253
  954POPC   PO413260  12.285   5.486   5.589 -0.0211 -0.0360 -0.1134
  954POPC   GL113261  12.190   5.794   6.010  0.1072 -0.1376 -0.0922
  954POPC   GL213262  12.055   5.500   6.133 -0.1829 -0.0555  0.0067
  954POPC   C1A13263  12.197   5.989   6.345  0.0482  0.2487  0.2466
  954POPC   D2A13264  12.134   6.236   6.808 -0.1212  0.1552  0.2354
  954POPC   C3A13265  11.778   6.270   6.977  0.4806 -0.0548  0.2229
  954POPC   C4A13266  11.546   6.585   7.127  0.3276 -0.0697 -0.0707
  954POPC   C1B13267  12.117   5.453   6.695  0.2513 -0.1089  0.0884
  954POPC   C2B13268  12.337   5.314   6.997 -0.2299  0.1782 -0.4002
  954POPC   C3B13269  12.447   5.273   7.393 -0.0656 -0.2030 -0.0126
  954POPC   C4B13270  12.364   5.261   7.843  0.2126  0.2599 -0.0442
  955POPC   NC313271  11.875  15.140   6.110  0.0043  0.3836 -0.2820
  955POPC   PO413272  12.193  15.174   6.306  0.0052  0.0734 -0.3156
  955POPC   GL113273  12.416  15.016   6.564 -0.3211  0.0697  0.1197
  955POPC   GL213274  12.741  15.051   6.567 -0.1891  0.0120  0.1089
  955POPC   C1A13275  12.385  14.898   7.019  0.1298  0.0624  0.3376
  955POPC   D2A13276  12.396  14.664   7.321 -0.3149  0.0720  0.3929
  955POPC   C3A13277  12.143  14.739   7.593  0.0331 -0.0370  0.0902
  955POPC   C4A13278  11.889  14.607   7.926  0.0576 -0.0529  0.1759
  955POPC   C1B13279  12.779  15.371   6.898  0.1381  0.0629  0.0963
  955POPC   C2B13280  12.585  15.535   7.310 -0.0329 -0.0026 -0.3001
  955POPC   C3B13281  12.368  15.599   7.797 -0.0736  0.2338  0.0897
  955POPC   C4B13282  12.046  15.626   8.080  0.0975 -0.1125 -0.3233
  956POPC   NC313283   7.149  12.193   4.994  0.1477  0.1010 -0.1536
  956POPC   PO413284   6.727  12.144   4.988 -0.1154 -0.3948  0.4301
  956POPC   GL113285   6.793  12.121   5.491  0.1024 -0.4389  0.0758
  956POPC   GL213286   7.024  12.110   5.521 -0.2418  0.1300  0.0379
  956POPC   C1A13287   6.534  12.312   5.996  0.1667 -0.1792 -0.1369
  956POPC   D2A13288   6.287  12.431   6.450  0.3625 -0.0652 -0.0003
  956POPC   C3A13289   6.324  12.184   6.744  0.2068 -0.1443  0.0029
  956POPC   C4A13290   6.643  12.074   7.031  0.0200  0.1229 -0.0565
  956POPC   C1B13291   7.117  11.830   5.877 -0.2815  0.0780  0.0583
  956POPC   C2B13292   7.294  11.745   6.235 -0.0595  0.2351  0.2822
  956POPC   C3B13293   7.280  11.826   6.641  0.0110 -0.0024 -0.0116
  956POPC   C4B13294   7.142  11.963   7.069 -0.1648 -0.0413  0.1241
  957POPC   NC313295   1.634   9.462   5.554 -0.1997  0.0319 -0.1407
  957POPC   PO413296   2.083   9.292   5.623 -0.1017 -0.3455 -0.0944
  957POPC   GL113297   2.089   9.085   6.094  0.3549 -0.1359 -0.2043
  957POPC   GL213298   2.376   9.026   6.182  0.0625 -0.0401 -0.0799
  957POPC   C1A13299   1.896   8.674   6.151  0.0435 -0.0508  0.2142
  957POPC   D2A13300   1.544   8.409   6.315 -0.0024 -0.0740 -0.1362
  957POPC   C3A13301   1.540   8.327   6.786 -0.0244 -0.2613  0.1898
  957POPC   C4A13302   1.849   8.353   7.073 -0.0333  0.2452 -0.1311
  957POPC   C1B13303   2.334   8.850   6.602 -0.1904 -0.0268 -0.0283
  957POPC   C2B13304   2.324   8.636   6.926  0.0318 -0.2623 -0.2772
  957POPC   C3B13305   2.213   8.678   7.319 -0.1040 -0.1691  0.1291
  957POPC   C4B13306   2.166   8.754   7.788  0.0144  0.2191 -0.2071
  958POPC   NC313307   8.545  12.802   4.969  0.0821 -0.0374 -0.1510
  958POPC   PO413308   8.801  13.010   5.249 -0.2114  0.0088 -0.1156
  958POPC   GL113309   8.540  13.169   5.589  0.1688 -0.1929  0.0014
  958POPC   GL213310   8.655  13.414   5.731 -0.2236 -0.2667  0.0089
  958POPC   C1A13311   8.403  13.129   6.074 -0.2150 -0.3073 -0.1895
  958POPC   D2A13312   8.166  13.010   6.337 -0.0035  0.1675 -0.0891
  958POPC   C3A13313   8.211  12.995   6.723  0.2080 -0.0339 -0.0477
  958POPC   C4A13314   8.134  12.829   7.151 -0.0814 -0.0332 -0.3348
  958POPC   C1B13315   8.465  13.638   6.055 -0.0278  0.1624  0.0599
  958POPC   C2B13316   8.108  13.511   6.291  0.2200 -0.3082  0.0749
  958POPC   C3B13317   7.922  13.403   6.712  0.1567  0.0902 -0.2235
  958POPC   C4B13318   7.595  13.440   7.109  0.1198  0.1180  0.1539
  959POPC   NC313319   0.193   5.797   5.347  0.2660 -0.1842  0.0925
  959POPC   PO413320   0.089   5.393   5.202 -0.1300  0.0545  0.0838
  959POPC   GL113321  -0.094   5.337   5.676  0.0893  0.0815  0.0512
  959POPC   GL213322   0.017   4.989   5.798  0.1674  0.2745 -0.1930
  959POPC   C1A13323  -0.414   5.333   5.900 -0.0602  0.0291  0.1085
  959POPC   D2A13324  -0.574   5.153   6.196 -0.1289 -0.1272 -0.1846
  959POPC   C3A13325  -0.913   5.212   6.379 -0.0669 -0.0170 -0.3669
  959POPC   C4A13326  -1.017   5.642   6.660 -0.0304  0.1189  0.4115
  959POPC   C1B13327  -0.189   4.819   6.141  0.2574 -0.0199 -0.1256
  959POPC   C2B13328  -0.341   4.854   6.520  0.1126 -0.0586  0.1712
  959POPC   C3B13329  -0.723   4.837   6.694 -0.2258  0.1744  0.0753
  959POPC   C4B13330  -1.029   4.701   6.759  0.1713 -0.2089  0.0182
  960POPC   NC313331  14.939  18.076   5.717  0.2369  0.1581 -0.1326
  960POPC   PO413332  14.914  18.012   6.114  0.0561  0.1768 -0.0324
  960POPC   GL113333  14.940  17.913   6.555  0.2632 -0.1960  0.0154
  960POPC   GL213334  14.746  17.977   6.697  0.2243 -0.4102  0.1736
  960POPC   C1A13335  15.202  17.705   6.907  0.0293 -0.1542 -0.2714
  960POPC   D2A13336  15.173  17.266   7.096 -0.0663 -0.0164  0.4504
  960POPC   C3A13337  15.162  17.091   7.491 -0.0044  0.0699 -0.4830
  960POPC   C4A13338  15.129  16.773   7.686  0.0500  0.0203 -0.1657
  960POPC   C1B13339  14.742  17.775   7.113 -0.0056 -0.4078  0.2087
  960POPC   C2B13340  14.402  17.745   7.449  0.1870 -0.0176  0.3385
  960POPC   C3B13341  14.232  17.882   7.829 -0.2623 -0.0565  0.2002
  960POPC   C4B13342  14.377  17.753   8.249 -0.1610 -0.1207 -0.0033
  961POPC   NC313343  12.399  10.625   5.488 -0.0432  0.0155  0.0368
  961POPC   PO413344  12.187  10.220   5.440 -0.1370 -0.1007 -0.1877
  961POPC   GL113345  11.987  10.203   5.830  0.2281 -0.2345 -0.2946
  961POPC   GL213346  11.992  10.515   5.944 -0.3247  0.0698 -0.1627
  961POPC   C1A13347  12.128   9.917   6.097 -0.0918 -0.3449  0.0325
  961POPC   D2A13348  12.318   9.490   6.296  0.2159 -0.0603 -0.2590
  961POPC   C3A13349  12.740   9.632   6.553 -0.0297  0.1253 -0.2292
  961POPC   C4A13350  12.951   9.352   6.783  0.2647 -0.4659 -0.1928
  961POPC   C1B13351  11.728  10.827   6.100 -0.1616  0.2059 -0.3117
  961POPC   C2B13352  11.494  10.886   6.489  0.0098 -0.0526 -0.0205
  961POPC   C3B13353  11.425  10.700   6.906  0.2491  0.2372 -0.2912
  961POPC   C4B13354  11.120  10.546   7.189 -0.1202  0.0103  0.0666
  962POPC   NC313355   6.872  10.048   5.446  0.0983 -0.2286 -0.1027
  962POPC   PO413356   6.527   9.833   5.643  0.0364 -0.0447 -0.0716
  962POPC   GL113357   6.558   9.865   6.062 -0.1264 -0.0589 -0.1127
  962POPC   GL213358   6.378   9.561   6.084  0.1491 -0.4395 -0.2214
  962POPC   C1A13359   6.717   9.838   6.423 -0.1505  0.0702 -0.1193
  962POPC   D2A13360   6.663   9.528   6.669 -0.2150  0.0541  0.2566
  962POPC   C3A13361   6.416   9.272   6.934  0.2186 -0.1827 -0.0156
  962POPC   C4A13362   6.438   9.088   7.408  0.1559  0.3201  0.2752
  962POPC   C1B13363   6.155   9.661   6.507 -0.1712 -0.0209  0.0899
  962POPC   C2B13364   5.988   9.522   6.846  0.2979 -0.0386  0.2634
  962POPC   C3B13365   5.968   9.294   7.213  0.0701  0.1900 -0.0391
  962POPC   C4B13366   5.941   9.295   7.723  0.2163 -0.3346 -0.0821
  963POPC   NC313367  16.214   9.771   4.883  0.1541 -0.0258  0.0202
  963POPC   PO413368  16.397   9.955   5.341  0.2444  0.2251  0.0560
  963POPC   GL113369  16.540   9.924   5.783 -0.0343 -0.2486 -0.3391
  963POPC   GL213370  16.939   9.839   5.970  0.0301 -0.1981  0.0780
  963POPC   C1A13371  16.606   9.964   6.245  0.1401 -0.2129 -0.1374
  963POPC   D2A13372  16.910  10.010   6.619 -0.0765 -0.4158 -0.1814
  963POPC   C3A13373  16.932  10.090   7.064 -0.0053 -0.3087 -0.1294
  963POPC   C4A13374  17.069  10.077   7.600 -0.0497 -0.2008 -0.1896
  963POPC   C1B13375  16.939   9.590   6.353 -0.2349 -0.1112 -0.1151
  963POPC   C2B13376  16.861   9.589   6.877 -0.0084  0.1637 -0.0215
  963POPC   C3B13377  16.728   9.598   7.285 -0.1375  0.0962 -0.1063
  963POPC   C4B13378  16.964   9.608   7.570  0.1391 -0.0706  0.0134
  964POPC   NC313379  16.191   6.173   5.710 -0.1038  0.2345 -0.2556
  964POPC   PO413380  15.849   6.044   5.521  0.1942 -0.3807  0.1564
  964POPC   GL113381  15.678   6.130   5.866 -0.0384  0.3202  0.0987
  964POPC   GL213382  15.377   6.111   5.816 -0.2220  0.1903 -0.3775
  964POPC   C1A13383  15.659   6.314   6.241 -0.0336 -0.1395 -0.0536
  964POPC   D2A13384  15.584   6.430   6.733  0.0700  0.1002  0.1772
  964POPC   C3A13385  15.875   6.450   7.096 -0.1825 -0.1254  0.3303
  964POPC   C4A13386  15.911   6.289   7.533  0.0460  0.1038  0.1805
  964POPC   C1B13387  15.071   6.230   6.089 -0.3530  0.1029  0.3284
  964POPC   C2B13388  15.146   6.222   6.581  0.3699 -0.1539  0.1752
  964POPC   C3B13389  15.236   6.084   6.973 -0.1781 -0.2137 -0.0644
  964POPC   C4B13390  15.339   5.782   7.246  0.1358 -0.2343 -0.0179
  965POPC   NC313391   6.613   5.080   5.865 -0.1259  0.2671 -0.0047
  965POPC   PO413392   6.814   5.456   5.761 -0.3177 -0.1459  0.5529
  965POPC   GL113393   6.836   5.577   6.114 -0.0444 -0.1669  0.1117
  965POPC   GL213394   6.856   5.924   6.227  0.2525  0.2349 -0.1007
  965POPC   C1A13395   6.746   5.454   6.641 -0.2615 -0.1251 -0.1472
  965POPC   D2A13396   6.605   5.472   7.072  0.0009 -0.1555 -0.0992
  965POPC   C3A13397   6.748   5.288   7.431  0.0776  0.2777 -0.1630
  965POPC   C4A13398   6.918   5.421   7.785 -0.0193  0.4002  0.4029
  965POPC   C1B13399   6.673   6.171   6.631 -0.1309 -0.0717  0.1112
  965POPC   C2B13400   6.665   6.128   7.058  0.1182  0.0797 -0.1762
  965POPC   C3B13401   6.487   6.274   7.374 -0.0510  0.3444 -0.0683
  965POPC   C4B13402   6.122   6.247   7.435  0.0925  0.0786  0.2816
  966POPC   NC313403   4.139   6.468   5.638  0.0765 -0.1024 -0.2039
  966POPC   PO413404   4.036   5.993   5.474  0.0581  0.0367  0.3164
  966POPC   GL113405   3.891   5.866   5.906  0.3763  0.0260 -0.1017
  966POPC   GL213406   4.017   6.014   6.161  0.0834  0.0693  0.0262
  966POPC   C1A13407   3.710   5.674   6.311  0.0649 -0.0882  0.2583
  966POPC   D2A13408   3.472   5.442   6.705  0.0259  0.0450  0.1878
  966POPC   C3A13409   3.449   5.057   6.657  0.2159  0.0636  0.0568
  966POPC   C4A13410   3.558   4.621   6.714 -0.0735  0.1734 -0.2431
  966POPC   C1B13411   4.149   6.151   6.604  0.2733  0.2935  0.0650
  966POPC   C2B13412   4.184   6.327   6.973  0.3098 -0.0354  0.1332
  966POPC   C3B13413   4.212   6.460   7.416 -0.0230  0.0291  0.1454
  966POPC   C4B13414   4.169   6.755   7.682  0.0703  0.0570 -0.0815
  967POPC   NC313415   5.672  12.656   5.015 -0.1529 -0.0819  0.1901
  967POPC   PO413416   6.026  12.726   5.261  0.0192 -0.0290  0.0128
  967POPC   GL113417   5.983  12.659   5.646 -0.0472 -0.2224  0.1761
  967POPC   GL213418   5.840  12.957   5.785  0.1105  0.0465 -0.2856
  967POPC   C1A13419   6.013  12.412   6.032 -0.1876 -0.1015 -0.0124
  967POPC   D2A13420   5.751  12.304   6.406  0.1892 -0.1777  0.0952
  967POPC   C3A13421   5.802  12.000   6.709 -0.1606 -0.1372  0.1264
  967POPC   C4A13422   5.613  11.772   6.967 -0.0173  0.1573  0.0900
  967POPC   C1B13423   5.910  12.852   6.235  0.1500  0.1280  0.0013
  967POPC   C2B13424   5.962  13.012   6.646  0.0772 -0.0957  0.0172
  967POPC   C3B13425   5.787  13.088   7.060 -0.2516 -0.5957 -0.1588
  967POPC   C4B13426   5.811  13.306   7.349  0.2406 -0.0345 -0.0647
  968POPC   NC313427   5.595  13.984   4.932 -0.3155  0.0440 -0.2202
  968POPC   PO413428   5.834  13.683   5.109 -0.2519 -0.0522  0.1568
  968POPC   GL113429   5.986  13.737   5.547 -0.2473 -0.0158 -0.2160
  968POPC   GL213430   6.320  14.050   5.652  0.2833  0.3046 -0.2011
  968POPC   C1A13431   6.082  13.836   6.047  0.0785 -0.0235 -0.0172
  968POPC   D2A13432   6.286  13.854   6.463  0.0773 -0.1159 -0.1023
  968POPC   C3A13433   6.068  14.117   6.713  0.3247  0.0141  0.0429
  968POPC   C4A13434   5.891  14.251   7.150 -0.3913 -0.2070  0.1287
  968POPC   C1B13435   6.802  13.875   5.684  0.1005 -0.0192 -0.1368
  968POPC   C2B13436   6.877  13.729   6.004  0.1141  0.1007 -0.1376
  968POPC   C3B13437   7.161  13.583   6.273 -0.0885  0.2038  0.0542
  968POPC   C4B13438   7.387  13.409   6.609  0.1162 -0.3891 -0.1332
  969POPC   NC313439   0.143   9.684   4.875  0.0666  0.2900  0.2594
  969POPC   PO413440   0.153   9.432   5.263 -0.1229  0.2628  0.3501
  969POPC   GL113441   0.181   9.177   5.485  0.4092  0.0079 -0.0022
  969POPC   GL213442  -0.001   9.356   5.748 -0.1748  0.1301 -0.1320
  969POPC   C1A13443   0.410   9.038   5.921 -0.0346 -0.0010 -0.0008
  969POPC   D2A13444   0.430   8.829   6.320 -0.2982  0.1061 -0.1676
  969POPC   C3A13445   0.312   8.947   6.692  0.1836 -0.1493 -0.0311
  969POPC   C4A13446   0.138   8.874   7.038 -0.4624 -0.1994  0.0387
  969POPC   C1B13447   0.032   9.279   6.146 -0.1361 -0.2219  0.1229
  969POPC   C2B13448  -0.096   9.060   6.469 -0.2320  0.1821 -0.0513
  969POPC   C3B13449  -0.300   8.897   6.917  0.2514 -0.0751  0.1678
  969POPC   C4B13450  -0.427   8.687   7.212  0.0117 -0.3677  0.2591
  970POPC   NC313451   2.925  17.271   5.306  0.2291  0.0005 -0.1968
  970POPC   PO413452   2.599  16.984   5.390  0.0927  0.1089  0.1110
  970POPC   GL113453   2.461  17.231   5.736 -0.2465  0.1469  0.2645
  970POPC   GL213454   2.427  17.550   5.531 -0.0330  0.0051 -0.2439
  970POPC   C1A13455   2.237  17.346   6.135  0.1232 -0.3397  0.4662
  970POPC   D2A13456   2.479  17.451   6.511 -0.0892 -0.1283  0.1003
  970POPC   C3A13457   2.534  17.319   6.830  0.2071  0.0776  0.0827
  970POPC   C4A13458   2.623  17.119   7.193 -0.0622 -0.1212  0.1346
  970POPC   C1B13459   2.689  17.569   6.005 -0.1749  0.2995 -0.0670
  970POPC   C2B13460   2.745  17.861   6.374 -0.2211 -0.0439 -0.0843
  970POPC   C3B13461   2.557  17.901   6.725 -0.0113 -0.1004 -0.2505
  970POPC   C4B13462   2.227  18.026   7.100  0.0818  0.0903 -0.0292
  971POPC   NC313463   8.648   7.911   5.460  0.0835 -0.2954 -0.1325
  971POPC   PO413464   8.801   8.129   5.716 -0.0163 -0.1245  0.1639
  971POPC   GL113465   8.869   8.311   6.130 -0.1041 -0.0533 -0.1738
  971POPC   GL213466   9.278   8.229   6.136  0.2411 -0.1393  0.1097
  971POPC   C1A13467   8.617   8.509   6.358 -0.2690  0.2965 -0.0583
  971POPC   D2A13468   8.677   8.754   6.722  0.2328  0.1201  0.3658
  971POPC   C3A13469   8.323   8.962   6.661  0.2569 -0.2804 -0.0829
  971POPC   C4A13470   7.884   8.950   6.565 -0.0724  0.3268  0.1546
  971POPC   C1B13471   9.066   7.933   6.450 -0.0977  0.0421  0.1898
  971POPC   C2B13472   9.017   7.761   6.809 -0.3500  0.1454 -0.0442
  971POPC   C3B13473   8.973   7.882   7.196  0.1274 -0.0550 -0.0520
  971POPC   C4B13474   9.163   8.138   7.514  0.1508  0.4237 -0.0132
  972POPC   NC313475   4.029  16.752   5.398 -0.2392 -0.1970  0.1004
  972POPC   PO413476   4.392  16.989   5.297 -0.1656  0.0653 -0.5027
  972POPC   GL113477   4.506  17.047   5.622  0.1835  0.4613  0.0112
  972POPC   GL213478   4.776  16.830   5.742 -0.2143  0.0180  0.0428
  972POPC   C1A13479   4.449  17.137   6.033  0.1703  0.1681 -0.1462
  972POPC   D2A13480   4.582  17.280   6.473  0.1709  0.0925 -0.1326
  972POPC   C3A13481   4.482  17.512   6.888  0.0944 -0.1332 -0.0936
  972POPC   C4A13482   4.281  17.661   7.293 -0.0337 -0.0535  0.1843
  972POPC   C1B13483   4.968  16.929   6.116  0.1394  0.0916  0.0083
  972POPC   C2B13484   5.043  17.028   6.499 -0.0491  0.2639 -0.3158
  972POPC   C3B13485   5.348  17.211   6.700  0.1687  0.2495 -0.1917
  972POPC   C4B13486   5.688  17.092   7.054  0.0883  0.0925  0.0408
  973POPC   NC313487   1.807  12.885   5.202 -0.0733  0.2476  0.1908
  973POPC   PO413488   1.950  13.234   5.290  0.2099 -0.1192 -0.1290
  973POPC   GL113489   2.167  13.352   5.629  0.0211  0.2243  0.0620
  973POPC   GL213490   2.015  13.025   5.788 -0.0261  0.0914  0.2261
  973POPC   C1A13491   2.118  13.496   6.110 -0.2000  0.0707 -0.2086
  973POPC   D2A13492   2.089  13.532   6.480  0.2633  0.1482 -0.1955
  973POPC   C3A13493   1.812  13.811   6.755  0.0339 -0.0433 -0.0642
  973POPC   C4A13494   1.644  14.089   7.111 -0.1781 -0.0536  0.0826
  973POPC   C1B13495   2.141  13.011   6.249  0.2396  0.0936 -0.0487
  973POPC   C2B13496   2.113  13.052   6.672 -0.1290 -0.2878 -0.1358
  973POPC   C3B13497   2.142  13.361   6.952  0.1141 -0.0160  0.1174
  973POPC   C4B13498   1.901  13.650   7.253 -0.0955 -0.0279 -0.0988
  974POPC   NC313499  17.476  13.049   5.170  0.0287 -0.1251 -0.1088
  974POPC   PO413500  17.668  13.495   5.313  0.1884  0.1143 -0.2684
  974POPC   GL113501  17.643  13.428   5.781  0.2912  0.2142  0.0179
  974POPC   GL213502  17.607  13.727   5.971  0.4126  0.2144  0.2320
  974POPC   C1A13503  17.503  13.324   6.238 -0.0239 -0.0717  0.3807
  974POPC   D2A13504  17.352  13.434   6.665 -0.3511 -0.4469  0.0887
  974POPC   C3A13505  17.197  13.320   7.064  0.1511  0.1872  0.0180
  974POPC   C4A13506  17.179  13.550   7.410 -0.1537  0.0524  0.2723
  974POPC   C1B13507  17.772  13.795   6.500  0.2575 -0.0665  0.4177
  974POPC   C2B13508  17.860  13.594   6.826  0.2996 -0.1273  0.0595
  974POPC   C3B13509  18.232  13.334   7.015  0.2470 -0.2948 -0.3180
  974POPC   C4B13510  18.664  13.327   6.902  0.0140 -0.1055 -0.3076
  975POPC   NC313511  14.997  11.708   5.089  0.1138 -0.0894  0.0416
  975POPC   PO413512  14.708  11.416   5.250  0.0349  0.0817 -0.1601
  975POPC   GL113513  14.797  11.437   5.674  0.0512  0.0111  0.2498
  975POPC   GL213514  15.089  11.702   5.684 -0.0150 -0.0318  0.3236
  975POPC   C1A13515  14.659  11.224   6.050 -0.0026 -0.0367  0.1274
  975POPC   D2A13516  14.504  11.246   6.565  0.3042 -0.0102  0.2726
  975POPC   C3A13517  14.654  11.482   6.910  0.0054 -0.2466  0.0483
  975POPC   C4A13518  14.894  11.503   7.257 -0.2239 -0.3598 -0.2834
  975POPC   C1B13519  15.080  11.827   6.135  0.0474  0.1405  0.3170
  975POPC   C2B13520  15.148  11.854   6.662 -0.1186  0.2697 -0.0555
  975POPC   C3B13521  15.015  11.995   7.085  0.2098 -0.1037 -0.0873
  975POPC   C4B13522  14.747  11.982   7.518 -0.1346  0.1295 -0.1004
  976POPC   NC313523   9.052  15.762   5.173  0.0411 -0.0357  0.1200
  976POPC   PO413524   8.512  15.672   5.141  0.0053 -0.2566  0.2536
  976POPC   GL113525   8.627  15.800   5.584  0.1471 -0.2042  0.2507
  976POPC   GL213526   8.542  15.624   5.809  0.1414 -0.3237  0.2133
  976POPC   C1A13527   8.463  16.122   5.904 -0.2550 -0.4094  0.0505
  976POPC   D2A13528   8.188  16.443   6.065 -0.0771  0.4424  0.0724
  976POPC   C3A13529   8.370  16.523   6.471  0.0029 -0.2061  0.0330
  976POPC   C4A13530   8.349  16.571   6.853 -0.2123  0.0569  0.1009
  976POPC   C1B13531   8.550  15.717   6.262  0.0503  0.1308  0.5088
  976POPC   C2B13532   8.529  15.916   6.670 -0.2249 -0.0259  0.2460
  976POPC   C3B13533   8.554  16.175   7.116 -0.2084  0.0439 -0.1111
  976POPC   C4B13534   8.860  16.111   7.408  0.0950 -0.0415  0.0692
  977POPC   NC313535  18.578  17.918   5.333 -0.0155  0.1478 -0.2576
  977POPC   PO413536  18.236  17.773   5.703  0.0413  0.0404  0.3159
  977POPC   GL113537  18.348  17.715   6.093 -0.4711 -0.3188  0.2107
  977POPC   GL213538  18.527  17.499   6.182 -0.2684  0.3166  0.3045
  977POPC   C1A13539  18.149  17.645   6.513 -0.1194 -0.1350 -0.1323
  977POPC   D2A13540  18.353  17.733   6.893 -0.0551 -0.0257 -0.2819
  977POPC   C3A13541  18.100  17.877   7.263 -0.0866  0.0969  0.1451
  977POPC   C4A13542  17.878  18.247   7.260  0.3357 -0.2294  0.1231
  977POPC   C1B13543  18.716  17.740   6.505 -0.2253 -0.0626 -0.1038
  977POPC   C2B13544  18.874  17.641   6.932  0.1272  0.2311  0.1416
  977POPC   C3B13545  18.737  17.789   7.225  0.1855  0.0327 -0.2224
  977POPC   C4B13546  18.504  18.189   7.251  0.0523  0.1281 -0.0390
  978POPC   NC313547   0.709  18.468   5.615  0.2351 -0.1261 -0.1682
  978POPC   PO413548   0.472  18.851   5.659  0.1062 -0.0162 -0.2239
  978POPC   GL113549   0.795  19.133   5.944  0.0469 -0.4145  0.4310
  978POPC   GL213550   0.704  19.520   5.956  0.1406 -0.1539 -0.4423
  978POPC   C1A13551   1.164  19.260   6.238 -0.0373 -0.0832  0.1896
  978POPC   D2A13552   1.665  19.032   6.371 -0.0356  0.1001  0.3292
  978POPC   C3A13553   1.731  18.889   6.749  0.4893  0.1649 -0.3611
  978POPC   C4A13554   1.534  18.937   7.131  0.1751 -0.1432 -0.0926
  978POPC   C1B13555   0.450  19.374   6.325  0.0464 -0.0091 -0.0075
  978POPC   C2B13556   0.329  19.415   6.722  0.3911 -0.1914  0.0656
  978POPC   C3B13557   0.240  19.614   7.175 -0.0412  0.1055 -0.1062
  978POPC   C4B13558   0.302  19.672   7.578 -0.0281  0.2744  0.2133
  979POPC   NC313559  16.494   8.540   5.414  0.1162  0.0724  0.2202
  979POPC   PO413560  16.655   8.884   5.263  0.0124  0.0707  0.2742
  979POPC   GL113561  16.718   8.903   5.702 -0.1223  0.0102  0.3977
  979POPC   GL213562  16.405   8.870   5.701  0.2946  0.2532 -0.2040
  979POPC   C1A13563  16.647   8.912   6.130  0.0615  0.2049  0.0968
  979POPC   D2A13564  16.701   9.228   6.488  0.1085  0.1436  0.0112
  979POPC   C3A13565  16.451   9.265   6.878  0.0760  0.3445 -0.3081
  979POPC   C4A13566  16.429   9.094   7.304 -0.2250  0.0330 -0.0794
  979POPC   C1B13567  16.072   8.920   5.965 -0.0272  0.3230 -0.2580
  979POPC   C2B13568  15.794   8.651   6.199  0.1751 -0.0874 -0.0986
  979POPC   C3B13569  15.572   8.671   6.585 -0.0822  0.1479  0.0459
  979POPC   C4B13570  15.595   8.691   6.976  0.1586 -0.1238  0.0599
  980POPC   NC313571  14.377   1.179   6.037  0.1687  0.1143  0.0479
  980POPC   PO413572  14.128   0.899   6.237  0.2076  0.2123 -0.0469
  980POPC   GL113573  13.971   1.039   6.647  0.0643  0.2176  0.1605
  980POPC   GL213574  14.157   1.348   6.812  0.0226 -0.2696 -0.3327
  980POPC   C1A13575  13.800   1.185   7.097  0.0613  0.2143  0.1765
  980POPC   D2A13576  13.925   1.261   7.530 -0.1607  0.3673 -0.0664
  980POPC   C3A13577  13.728   1.140   7.928  0.0257 -0.0074  0.0420
  980POPC   C4A13578  13.412   0.868   7.844 -0.1969 -0.3605 -0.0356
  980POPC   C1B13579  14.301   1.234   7.199 -0.1700 -0.1558  0.0599
  980POPC   C2B13580  14.422   1.539   7.571 -0.2663 -0.0028 -0.3098
  980POPC   C3B13581  14.644   1.724   7.957  0.0911 -0.0634 -0.1989
  980POPC   C4B13582  14.884   2.004   8.113 -0.1287 -0.1039  0.0079
  981POPC   NC313583   3.204  11.431   5.484 -0.0526 -0.0977 -0.0128
  981POPC   PO413584   3.495  11.117   5.512 -0.4098  0.0441 -0.0794
  981POPC   GL113585   3.506  11.191   5.909 -0.0944  0.1887  0.3035
  981POPC   GL213586   3.539  11.471   5.936 -0.1170 -0.3954 -0.2005
  981POPC   C1A13587   3.501  11.251   6.408 -0.0585  0.0602 -0.2274
  981POPC   D2A13588   3.404  10.963   6.729 -0.1426  0.2098  0.0696
  981POPC   C3A13589   3.578  11.167   7.185 -0.0840  0.1923  0.2807
  981POPC   C4A13590   3.868  11.251   7.528 -0.0297 -0.0697  0.1489
  981POPC   C1B13591   3.473  11.793   6.082  0.3129  0.0080  0.3964
  981POPC   C2B13592   3.481  12.097   6.281  0.0325  0.0236 -0.1628
  981POPC   C3B13593   3.383  12.445   6.506  0.1561  0.1354 -0.0342
  981POPC   C4B13594   3.292  12.559   6.961 -0.1151  0.1604 -0.2354
  982YOPC   NC313595   9.513   9.963   5.890 -0.0307 -0.0435 -0.0458
  982YOPC   PO413596   9.117   9.888   5.749 -0.1331 -0.0543 -0.1667
  982YOPC   GL113597   8.937  10.017   6.085 -0.0564  0.2802  0.3593
  982YOPC   GL213598   9.215  10.027   6.232  0.0874  0.0264 -0.0837
  982YOPC   C1A13599   8.852  10.173   6.560 -0.1952  0.3145  0.1085
  982YOPC   D2A13600   9.029  10.316   6.954  0.0176  0.0908  0.3271
  982YOPC   C3A13601   8.767  10.446   7.256  0.1093 -0.3129 -0.0158
  982YOPC   C4A13602   8.732  10.204   7.677 -0.0913  0.2283  0.0744
  982YOPC   C1B13603   9.336   9.901   6.666 -0.2252  0.0076  0.0966
  982YOPC   C2B13604   9.308   9.877   7.112 -0.1025  0.0585 -0.0298
  982YOPC   D3B13605   9.331  10.252   7.331 -0.1356 -0.3299 -0.2550
  982YOPC   C4B13606   9.509  10.509   7.638 -0.4102  0.0560  0.0969
  983YOPC   NC313607   8.029   6.104   5.452 -0.2968  0.1697 -0.1071
  983YOPC   PO413608   7.613   6.038   5.625 -0.2332  0.1419  0.0506
  983YOPC   GL113609   7.876   6.247   5.991 -0.1141  0.0317  0.3022
  983YOPC   GL213610   7.615   6.164   6.247 -0.0729  0.0078  0.2193
  983YOPC   C1A13611   8.114   6.386   6.323  0.3807 -0.0650 -0.0118
  983YOPC   D2A13612   7.975   6.254   6.638 -0.3215 -0.4203 -0.4077
  983YOPC   C3A13613   7.556   6.172   6.772 -0.0783 -0.3234  0.0240
  983YOPC   C4A13614   7.554   6.288   7.268  0.0697  0.3254  0.2618
  983YOPC   C1B13615   7.898   5.919   6.321  0.0449  0.4599 -0.1128
  983YOPC   C2B13616   8.104   5.505   6.499 -0.1139  0.0337 -0.0792
  983YOPC   D3B13617   8.141   5.394   6.827  0.0761  0.3013  0.1767
  983YOPC   C4B13618   8.289   5.441   7.235  0.0627  0.0586 -0.0301
  984YOPC   NC313619  17.792  18.387   5.021 -0.0029  0.1683  0.3314
  984YOPC   PO413620  17.987  18.563   5.444  0.2664 -0.1973 -0.1522
  984YOPC   GL113621  18.037  18.665   5.873  0.4756  0.2232 -0.0798
  984YOPC   GL213622  18.068  18.973   5.889 -0.0945 -0.1113 -0.2314
  984YOPC   C1A13623  18.213  18.566   6.308 -0.1936 -0.2536 -0.0188
  984YOPC   D2A13624  18.056  18.646   6.693  0.1446 -0.0914  0.2261
  984YOPC   C3A13625  18.368  18.692   6.935  0.1441  0.2114  0.0558
  984YOPC   C4A13626  18.403  18.729   7.339  0.1113 -0.1795  0.3174
  984YOPC   C1B13627  18.144  19.053   6.336 -0.1206 -0.0256 -0.1044
  984YOPC   C2B13628  18.093  19.119   6.792  0.2705  0.0822  0.0479
  984YOPC   D3B13629  18.228  19.167   7.213  0.0979  0.3138 -0.0532
  984YOPC   C4B13630  18.136  19.476   7.580  0.0827 -0.1910  0.2537
  985YOPC   NC313631   4.823   7.241   5.665  0.0154  0.2939  0.1055
  985YOPC   PO413632   5.291   7.361   5.794 -0.0934 -0.0088 -0.3073
  985YOPC   GL113633   4.948   7.459   6.155 -0.0977 -0.2238  0.1621
  985YOPC   GL213634   4.784   7.233   6.344 -0.0572  0.2144  0.1160
  985YOPC   C1A13635   4.904   7.747   6.547  0.0186 -0.1944  0.0027
  985YOPC   D2A13636   4.743   7.732   7.008 -0.3487 -0.1116 -0.3901
  985YOPC   C3A13637   4.898   7.891   7.357  0.1635 -0.1088  0.1771
  985YOPC   C4A13638   4.871   8.191   7.634  0.1445 -0.2482 -0.0699
  985YOPC   C1B13639   4.890   7.280   6.860  0.3606 -0.2129  0.1033
  985YOPC   C2B13640   4.879   7.373   7.318 -0.2146  0.0724  0.1283
  985YOPC   D3B13641   5.021   6.998   7.415  0.0872  0.1669  0.0089
  985YOPC   C4B13642   4.924   6.592   7.404  0.0196  0.0050 -0.2057
  986YOPC   NC313643  16.354  14.208   5.210  0.0134 -0.0198  0.2930
  986YOPC   PO413644  16.286  14.387   5.689  0.0546  0.1007  0.2243
  986YOPC   GL113645  16.385  14.339   6.068  0.1625  0.0357  0.1437
  986YOPC   GL213646  16.624  14.353   6.039 -0.1323  0.0182  0.0282
  986YOPC   C1A13647  16.487  14.569   6.540 -0.0059  0.2035 -0.1048
  986YOPC   D2A13648  16.524  14.642   6.992  0.0491  0.0487  0.2731
  986YOPC   C3A13649  16.199  14.649   7.265 -0.0810 -0.1143 -0.1149
  986YOPC   C4A13650  16.065  14.645   7.755  0.3199 -0.1688  0.0734
  986YOPC   C1B13651  16.699  14.154   6.479  0.1318  0.2412 -0.2892
  986YOPC   C2B13652  16.519  14.161   6.780  0.2506  0.2239  0.0461
  986YOPC   D3B13653  16.746  13.928   7.013  0.3793 -0.0441 -0.0907
  986YOPC   C4B13654  16.861  13.947   7.420  0.1836 -0.3891 -0.1755
  987YOPC   NC313655  11.561   1.597   5.723  0.1735  0.2821  0.1595
  987YOPC   PO413656  11.230   1.286   5.814  0.2564 -0.1080 -0.1704
  987YOPC   GL113657  11.400   1.189   6.221  0.2322  0.0161  0.5726
  987YOPC   GL213658  11.390   1.545   6.265 -0.1063 -0.2668  0.2380
  987YOPC   C1A13659  11.332   1.257   6.673 -0.0221  0.2250  0.3684
  987YOPC   D2A13660  11.097   1.550   7.074  0.0369  0.0503  0.2226
  987YOPC   C3A13661  11.183   1.807   7.439 -0.2175  0.0570 -0.1127
  987YOPC   C4A13662  11.455   1.919   7.767  0.1710 -0.0060 -0.2463
  987YOPC   C1B13663  11.391   1.818   6.485 -0.0579  0.0827  0.2325
  987YOPC   C2B13664  11.576   1.851   6.900 -0.1302  0.4568 -0.2272
  987YOPC   D3B13665  11.533   1.544   7.251  0.1259  0.0427 -0.0769
  987YOPC   C4B13666  11.457   1.161   7.307 -0.2015  0.2846  0.2265
  988YOPC   NC313667  16.722  12.599   5.116 -0.1097  0.0964  0.1464
  988YOPC   PO413668  16.646  12.371   5.509  0.2723 -0.0317 -0.0980
  988YOPC   GL113669  16.837  12.358   5.880 -0.3341 -0.2350 -0.1389
  988YOPC   GL213670  17.086  12.553   5.757  0.0388 -0.1171 -0.1372
  988YOPC   C1A13671  16.908  12.525   6.335  0.0446 -0.4360  0.1848
  988YOPC   D2A13672  17.024  12.397   6.699 -0.1826 -0.1469  0.1888
  988YOPC   C3A13673  17.002  11.991   6.835  0.1072  0.1735 -0.0848
  988YOPC   C4A13674  17.114  11.583   6.930  0.0154 -0.3364  0.1682
  988YOPC   C1B13675  16.823  12.906   6.029 -0.1555 -0.0249  0.0584
  988YOPC   C2B13676  16.592  13.154   6.363  0.1819  0.3568  0.1237
  988YOPC   D3B13677  16.175  13.163   6.494 -0.0516  0.1246 -0.3711
  988YOPC   C4B13678  15.957  13.389   6.950  0.1627  0.1058  0.2667
  989YOPC   NC313679   2.686   8.009   5.553 -0.1689  0.0389  0.1292
  989YOPC   PO413680   3.270   8.067   5.742 -0.0176 -0.0015  0.0691
  989YOPC   GL113681   3.212   7.793   6.050 -0.2947  0.0838  0.0791
  989YOPC   GL213682   3.439   7.579   5.960 -0.0045 -0.0698 -0.0138
  989YOPC   C1A13683   3.193   7.529   6.405  0.0318 -0.2873 -0.3101
  989YOPC   D2A13684   3.251   7.235   6.615  0.2413 -0.2435 -0.1233
  989YOPC   C3A13685   3.294   7.281   7.001 -0.1177  0.2091  0.0749
  989YOPC   C4A13686   3.392   6.943   7.283 -0.2562 -0.1121  0.0586
  989YOPC   C1B13687   3.699   7.672   6.299 -0.0724 -0.0366  0.0349
  989YOPC   C2B13688   3.669   7.498   6.704  0.0457 -0.0868 -0.1728
  989YOPC   D3B13689   3.763   7.157   6.899 -0.1730  0.4243 -0.0825
  989YOPC   C4B13690   3.890   7.054   7.377  0.4223 -0.3461  0.0039
  990YOPC   NC313691   5.330   6.852   5.835 -0.2059 -0.0637 -0.3975
  990YOPC   PO413692   4.983   6.938   5.993 -0.2375  0.1298 -0.0266
  990YOPC   GL113693   4.757   6.689   6.264  0.2158  0.0147  0.3237
  990YOPC   GL213694   4.940   6.802   6.555 -0.4135 -0.1115  0.0949
  990YOPC   C1A13695   4.527   6.570   6.687  0.1327 -0.0424 -0.0928
  990YOPC   D2A13696   4.710   6.313   7.027  0.0710  0.3750 -0.0162
  990YOPC   C3A13697   5.127   6.284   6.973  0.0596  0.0205  0.0412
  990YOPC   C4A13698   5.479   6.258   7.237 -0.0857  0.0649 -0.2445
  990YOPC   C1B13699   5.217   6.917   6.915 -0.2056 -0.0725 -0.2603
  990YOPC   C2B13700   5.384   6.743   7.215  0.2422 -0.1135 -0.0879
  990YOPC   D3B13701   5.849   6.621   7.119 -0.1493 -0.3802 -0.1217
  990YOPC   C4B13702   6.257   6.735   7.177 -0.0941 -0.0995 -0.3953
  991YOPC   NC313703   7.854  10.033   5.622  0.2758  0.2023  0.0332
  991YOPC   PO413704   8.041  10.386   5.769 -0.2784  0.5285 -0.1143
  991YOPC   GL113705   8.093  10.530   6.148 -0.2075  0.0687  0.1335
  991YOPC   GL213706   7.902  10.847   6.283 -0.0710  0.0075  0.2136
  991YOPC   C1A13707   8.353  10.408   6.506  0.1095 -0.0351  0.0118
  991YOPC   D2A13708   8.480  10.203   6.924  0.0445  0.2282  0.3531
  991YOPC   C3A13709   8.257  10.301   7.291  0.0317 -0.0223 -0.1217
  991YOPC   C4A13710   8.355  10.465   7.603 -0.1144 -0.2688  0.0983
  991YOPC   C1B13711   7.956  11.157   6.670  0.0132 -0.0276 -0.0971
  991YOPC   C2B13712   8.003  11.581   6.899  0.2624  0.0481 -0.1957
  991YOPC   D3B13713   7.727  11.845   7.084  0.1646 -0.1526 -0.0824
  991YOPC   C4B13714   7.534  12.006   7.361  0.0595  0.1979 -0.0190
  992YOPC   NC313715   6.331  18.090   4.687 -0.2904 -0.2069  0.1462
  992YOPC   PO413716   5.958  17.856   5.026 -0.1717  0.2959  0.2132
  992YOPC   GL113717   5.895  18.066   5.392  0.0550  0.0349  0.4047
  992YOPC   GL213718   5.993  17.756   5.560  0.0082 -0.1491 -0.0158
  992YOPC   C1A13719   5.748  18.229   5.743  0.0973 -0.2120 -0.2058
  992YOPC   D2A13720   5.550  18.194   6.110  0.2349  0.0876  0.2201
  992YOPC   C3A13721   5.346  18.475   6.375 -0.0484 -0.0457  0.1130
  992YOPC   C4A13722   5.183  18.538   6.664  0.1570  0.1383 -0.1683
  992YOPC   C1B13723   5.585  17.721   5.625 -0.1591 -0.3185  0.1142
  992YOPC   C2B13724   5.311  17.594   5.858  0.0900  0.1459 -0.0598
  992YOPC   D3B13725   5.358  17.250   6.156  0.3379  0.2477  0.2346
  992YOPC   C4B13726   5.723  16.987   6.161 -0.1957  0.0001  0.3223
  993YOPC   NC313727   1.779   3.882   5.278  0.1338  0.0227  0.0591
  993YOPC   PO413728   1.367   3.932   5.237  0.0790  0.0629  0.0293
  993YOPC   GL113729   1.446   4.175   5.661  0.0042 -0.0971  0.0739
  993YOPC   GL213730   1.232   4.385   5.868  0.0812 -0.1032 -0.4192
  993YOPC   C1A13731   1.698   4.319   6.104 -0.2076  0.1589 -0.0659
  993YOPC   D2A13732   1.658   4.033   6.545  0.0204  0.0589 -0.0944
  993YOPC   C3A13733   1.465   3.729   6.810 -0.1366  0.0421 -0.1075
  993YOPC   C4A13734   1.524   3.257   6.960 -0.0240 -0.2157 -0.2002
  993YOPC   C1B13735   1.057   4.267   6.172 -0.0670  0.3715  0.0308
  993YOPC   C2B13736   1.301   4.365   6.387 -0.1251 -0.0472  0.3750
  993YOPC   D3B13737   1.235   4.247   6.838 -0.1540  0.0918  0.0920
  993YOPC   C4B13738   1.074   3.977   7.032  0.0212  0.1254  0.2406
  994YOPC   NC313739  16.661   6.413   5.722  0.1494  0.3655  0.6493
  994YOPC   PO413740  16.436   6.711   5.886 -0.2675 -0.0118 -0.0853
  994YOPC   GL113741  16.371   6.677   6.277 -0.0207 -0.0020  0.0711
  994YOPC   GL213742  16.149   6.380   6.258  0.1973  0.0084 -0.2051
  994YOPC   C1A13743  16.635   6.703   6.618 -0.3050 -0.1771  0.0889
  994YOPC   D2A13744  16.802   6.777   7.053 -0.1937 -0.1549 -0.0721
  994YOPC   C3A13745  16.607   6.877   7.429 -0.0315  0.0597  0.0255
  994YOPC   C4A13746  16.292   7.208   7.570  0.1259  0.0280 -0.0705
  994YOPC   C1B13747  16.476   6.138   6.505 -0.0554 -0.1840  0.0897
  994YOPC   C2B13748  16.649   6.228   6.934 -0.0949  0.1594 -0.8317
  994YOPC   D3B13749  16.384   6.400   7.283 -0.0139 -0.3165  0.2422
  994YOPC   C4B13750  16.452   6.452   7.701  0.0484  0.1539  0.0864
  995YOPC   NC313751  17.396   3.315   5.776 -0.0210  0.0154  0.3759
  995YOPC   PO413752  17.892   3.091   5.731  0.2067  0.1034 -0.0786
  995YOPC   GL113753  17.810   3.014   6.228 -0.1737 -0.2088 -0.1081
  995YOPC   GL213754  18.214   3.062   6.176  0.0412 -0.1069  0.1719
  995YOPC   C1A13755  17.780   2.623   6.491 -0.2557  0.0504 -0.2568
  995YOPC   D2A13756  18.059   2.440   6.746 -0.0046 -0.0255  0.0397
  995YOPC   C3A13757  17.883   2.283   7.111 -0.3803  0.2663 -0.1577
  995YOPC   C4A13758  17.657   2.010   7.129 -0.0420  0.3539 -0.1637
  995YOPC   C1B13759  18.545   2.928   6.511  0.1434 -0.0027  0.3752
  995YOPC   C2B13760  18.569   2.867   6.906 -0.0704  0.3337  0.1851
  995YOPC   D3B13761  18.632   3.061   7.256 -0.2693  0.0301  0.0970
  995YOPC   C4B13762  18.410   3.090   7.681  0.1448 -0.3420 -0.3092
  996YOPC   NC313763  10.166  13.096   5.426 -0.0495  0.2411  0.0250
  996YOPC   PO413764   9.979  13.277   5.718  0.0302  0.2574  0.0978
  996YOPC   GL113765   9.985  13.436   6.160 -0.0517 -0.0203  0.1472
  996YOPC   GL213766   9.718  13.646   6.221 -0.0218  0.0134 -0.2550
  996YOPC   C1A13767  10.202  13.349   6.447 -0.1211  0.1170 -0.1115
  996YOPC   D2A13768  10.411  13.205   6.827  0.0897  0.2840  0.0246
  996YOPC   C3A13769  10.759  13.489   7.073  0.0550  0.0827 -0.0905
  996YOPC   C4A13770  10.859  13.423   7.444 -0.4035 -0.1455 -0.0550
  996YOPC   C1B13771   9.761  13.671   6.576  0.1364 -0.3275 -0.1295
  996YOPC   C2B13772  10.027  13.508   6.885  0.4220 -0.0100  0.0509
  996YOPC   D3B13773   9.904  13.320   7.102 -0.0856 -0.0170  0.2607
  996YOPC   C4B13774   9.558  13.083   7.137 -0.1097  0.2824 -0.2215
  997YOPC   NC313775  14.329  12.715   5.752  0.2351  0.3228  0.2869
  997YOPC   PO413776  14.058  13.151   5.851  0.0834  0.0949 -0.2143
  997YOPC   GL113777  14.202  13.514   5.950 -0.2121  0.1963  0.0686
  997YOPC   GL213778  14.501  13.368   6.156 -0.0665 -0.1628  0.2438
  997YOPC   C1A13779  14.391  13.838   6.248  0.0643  0.0938  0.1182
  997YOPC   D2A13780  14.405  14.253   6.515  0.1737 -0.4364 -0.1086
  997YOPC   C3A13781  14.286  14.215   6.973 -0.1180  0.0163  0.0887
  997YOPC   C4A13782  14.070  13.990   7.305  0.0694  0.2604  0.0964
  997YOPC   C1B13783  14.510  13.389   6.618  0.2941  0.0417 -0.0581
  997YOPC   C2B13784  14.748  13.365   7.057  0.3963 -0.0054 -0.0353
  997YOPC   D3B13785  14.781  13.243   7.440 -0.1096  0.2922  0.1013
  997YOPC   C4B13786  15.120  13.058   7.600  0.0260 -0.0108 -0.1645
  998YOPC   NC313787  15.849   2.694   5.668  0.0345 -0.1889  0.0160
  998YOPC   PO413788  15.889   3.125   5.784 -0.2588 -0.0727 -0.0054
  998YOPC   GL113789  15.706   2.922   6.113  0.0109  0.0214  0.2523
  998YOPC   GL213790  15.521   2.759   6.253  0.3107  0.1518  0.1654
  998YOPC   C1A13791  15.933   2.710   6.535 -0.2448  0.0557 -0.2783
  998YOPC   D2A13792  16.090   2.505   6.999 -0.0099  0.3647 -0.1352
  998YOPC   C3A13793  15.897   2.241   7.355 -0.0090  0.2858 -0.3191
  998YOPC   C4A13794  15.944   2.493   7.634  0.2713 -0.0958 -0.0956
  998YOPC   C1B13795  15.420   2.802   6.648 -0.5349  0.5204 -0.0805
  998YOPC   C2B13796  15.349   3.125   7.005  0.1042  0.1186  0.3272
  998YOPC   D3B13797  15.368   3.126   7.459 -0.1661 -0.0548 -0.2300
  998YOPC   C4B13798  15.372   3.161   7.816 -0.2822 -0.1786 -0.1766
  999YOPC   NC313799  10.077  12.211   5.561 -0.1057 -0.0181  0.0917
  999YOPC   PO413800  10.341  12.535   5.319 -0.0153 -0.1965  0.0453
  999YOPC   GL113801  10.204  12.698   5.750 -0.0080 -0.0282 -0.1043
  999YOPC   GL213802   9.974  12.572   5.949 -0.2983  0.4814 -0.2395
  999YOPC   C1A13803  10.335  12.447   6.223 -0.1041  0.2219 -0.0925
  999YOPC   D2A13804  10.470  12.392   6.690 -0.1507  0.0279 -0.2972
  999YOPC   C3A13805  10.549  12.651   6.964 -0.0157 -0.1306 -0.1381
  999YOPC   C4A13806  10.674  13.012   7.189 -0.4012  0.1198 -0.0107
  999YOPC   C1B13807   9.788  12.905   6.222 -0.3774  0.1346  0.0050
  999YOPC   C2B13808   9.752  13.172   6.595 -0.3758  0.2097 -0.0085
  999YOPC   D3B13809   9.460  13.418   6.833  0.1720  0.1190  0.0211
  999YOPC   C4B13810   9.000  13.493   6.748  0.1755 -0.2955 -0.1246
 1000YOPC   NC313811  16.884   9.365   5.652 -0.0802  0.0151  0.1327
 1000YOPC   PO413812  16.532   9.426   5.538  0.2423  0.1797 -0.0056
 1000YOPC   GL113813  16.480   9.455   5.967  0.1501 -0.0946 -0.1272
 1000YOPC   GL213814  16.165   9.459   6.098 -0.0660  0.1560 -0.0593
 1000YOPC   C1A13815  16.381   9.612   6.524  0.2290 -0.1195  0.1286
 1000YOPC   D2A13816  16.456   9.985   6.785  0.1565  0.4597  0.1471
 1000YOPC   C3A13817  16.363   9.930   7.109  0.1944 -0.1021 -0.0721
 1000YOPC   C4A13818  16.501   9.960   7.517 -0.1443 -0.3095 -0.1792
 1000YOPC   C1B13819  16.263   9.099   6.428 -0.0720  0.2177  0.2054
 1000YOPC   C2B13820  15.989   8.926   6.752  0.0363  0.1893  0.0595
 1000YOPC   D3B13821  16.054   8.757   7.218  0.3716  0.0819 -0.2877
 1000YOPC   C4B13822  16.230   8.815   7.655  0.0810 -0.0282 -0.1928
 1001YOPC   NC313823  18.079   0.366   5.397  0.0660 -0.1303  0.0482
 1001YOPC   PO413824  17.631   0.190   5.657 -0.2112 -0.0685  0.2045
 1001YOPC   GL113825  17.584   0.400   5.971 -0.0374  0.0845  0.0147
 1001YOPC   GL213826  17.881   0.585   6.126 -0.1454 -0.1566  0.3699
 1001YOPC   C1A13827  17.417   0.695   6.257 -0.0050 -0.1941  0.0784
 1001YOPC   D2A13828  17.071   0.741   6.611 -0.0820  0.2978  0.0759
 1001YOPC   C3A13829  16.985   1.106   6.821  0.0825 -0.1985 -0.1358
 1001YOPC   C4A13830  16.591   1.188   7.016  0.0765 -0.0675 -0.2202
 1001YOPC   C1B13831  17.959   0.787   6.530  0.0700 -0.0030 -0.0353
 1001YOPC   C2B13832  18.392   0.705   6.826  0.2175 -0.1500  0.1152
 1001YOPC   D3B13833  18.716   0.467   7.038 -0.2045 -0.2735  0.1106
 1001YOPC   C4B13834  18.875   0.017   7.110  0.2268 -0.0028  0.0062
 1002YOPC   NC313835  18.673  17.030   5.245 -0.0221 -0.1963 -0.1045
 1002YOPC   PO413836  18.757  17.037   5.706  0.0912  0.1388  0.0733
 1002YOPC   GL113837  18.605  16.992   6.082 -0.1958  0.2327 -0.2584
 1002YOPC   GL213838  18.576  16.667   6.189 -0.1422 -0.1056 -0.0004
 1002YOPC   C1A13839  18.695  17.030   6.527  0.0119 -0.3016 -0.0029
 1002YOPC   D2A13840  18.558  17.278   6.790  0.0071  0.0786  0.0491
 1002YOPC   C3A13841  18.623  17.254   7.292  0.1636  0.1292  0.0660
 1002YOPC   C4A13842  18.626  17.611   7.666  0.1424  0.2311  0.2507
 1002YOPC   C1B13843  18.539  16.602   6.633 -0.0076  0.3075 -0.3839
 1002YOPC   C2B13844  18.516  16.467   7.022  0.1895  0.2218 -0.0619
 1002YOPC   D3B13845  18.969  16.358   7.100 -0.0030 -0.1282  0.1511
 1002YOPC   C4B13846  19.050  15.845   7.201 -0.1836 -0.1569  0.0904
 1003YOPC   NC313847   0.116  15.023   5.292  0.3129  0.0746 -0.2001
 1003YOPC   PO413848   0.372  14.604   5.379 -0.0982  0.1538  0.1411
 1003YOPC   GL113849   0.583  14.441   5.665 -0.1849  0.0332  0.0423
 1003YOPC   GL213850   0.776  14.188   5.655 -0.1532 -0.1428  0.0276
 1003YOPC   C1A13851   0.584  14.465   6.149  0.2785  0.0069 -0.0554
 1003YOPC   D2A13852   0.570  14.623   6.499 -0.2898  0.0085 -0.0823
 1003YOPC   C3A13853   0.712  14.573   7.006  0.1170 -0.1485  0.2226
 1003YOPC   C4A13854   0.647  14.257   7.341 -0.3027 -0.2996 -0.1389
 1003YOPC   C1B13855   0.938  14.087   6.084 -0.1279  0.1030  0.0045
 1003YOPC   C2B13856   1.126  14.018   6.513 -0.2010  0.3299 -0.2313
 1003YOPC   D3B13857   1.129  14.200   6.954  0.0110  0.0365  0.1314
 1003YOPC   C4B13858   1.215  14.321   7.298  0.1093  0.0959 -0.0877
 1004YOPC   NC313859   1.893   7.679   5.827 -0.1296 -0.0742 -0.2996
 1004YOPC   PO413860   1.943   7.320   5.417  0.2671  0.1103  0.0187
 1004YOPC   GL113861   2.059   7.195   5.832  0.0291 -0.2161 -0.1183
 1004YOPC   GL213862   2.388   7.272   6.059  0.0696 -0.0974 -0.0692
 1004YOPC   C1A13863   1.976   7.151   6.330 -0.0214  0.1133 -0.3251
 1004YOPC   D2A13864   2.223   7.091   6.664 -0.4128  0.0791 -0.1650
 1004YOPC   C3A13865   2.463   6.729   6.756  0.0762  0.2559 -0.1167
 1004YOPC   C4A13866   2.523   6.653   7.148  0.4097  0.0057 -0.0060
 1004YOPC   C1B13867   2.680   7.383   6.417  0.0924 -0.2354  0.0164
 1004YOPC   C2B13868   2.788   7.336   6.803  0.1746 -0.1402 -0.1273
 1004YOPC   D3B13869   2.519   7.206   7.121 -0.1257  0.0787  0.1621
 1004YOPC   C4B13870   2.745   6.948   7.545  0.1288 -0.1299 -0.2638
 1005YOPC   NC313871  13.541   1.623   5.883  0.0126 -0.0144  0.0957
 1005YOPC   PO413872  13.707   1.838   6.264 -0.1167 -0.0070 -0.0489
 1005YOPC   GL113873  13.912   2.201   6.538 -0.1017  0.0749 -0.2321
 1005YOPC   GL213874  13.802   2.550   6.408 -0.1348  0.1578 -0.1494
 1005YOPC   C1A13875  13.854   2.226   6.965 -0.2692  0.0418  0.3846
 1005YOPC   D2A13876  13.901   2.477   7.288  0.1517 -0.0126 -0.1225
 1005YOPC   C3A13877  14.289   2.534   7.519  0.0446 -0.2245 -0.1050
 1005YOPC   C4A13878  14.643   2.694   7.357 -0.0115 -0.0188  0.1241
 1005YOPC   C1B13879  13.605   2.667   6.793  0.4336 -0.0530 -0.0612
 1005YOPC   C2B13880  13.677   2.867   7.097 -0.0220  0.2289 -0.0836
 1005YOPC   D3B13881  13.488   2.828   7.502 -0.4000 -0.0284  0.1044
 1005YOPC   C4B13882  13.405   3.276   7.716 -0.1770  0.0526 -0.1404
 1006YOPC   NC313883   6.112  10.414   4.974  0.1625  0.0319  0.0855
 1006YOPC   PO413884   6.004  10.628   5.368 -0.2009  0.1829 -0.2601
 1006YOPC   GL113885   6.048  10.517   5.836  0.0763 -0.0368  0.0787
 1006YOPC   GL213886   6.232  10.353   5.826  0.0970  0.0232  0.1145
 1006YOPC   C1A13887   6.302  10.756   6.132  0.0975  0.1409 -0.1613
 1006YOPC   D2A13888   6.546  10.844   6.512 -0.0975 -0.2228  0.1078
 1006YOPC   C3A13889   6.503  10.679   6.896 -0.0226  0.2461  0.1592
 1006YOPC   C4A13890   6.712  10.450   7.250 -0.2544 -0.1273  0.2355
 1006YOPC   C1B13891   6.200  10.218   6.245  0.0376  0.4265  0.2423
 1006YOPC   C2B13892   6.057  10.468   6.598 -0.1943 -0.0665 -0.1213
 1006YOPC   D3B13893   6.001  10.858   6.707  0.1597  0.1391  0.0860
 1006YOPC   C4B13894   6.031  11.083   6.401  0.2053  0.2808  0.1947
 1007YOPC   NC313895   8.793   4.269   5.787  0.3195 -0.2503 -0.3081
 1007YOPC   PO413896   8.424   4.128   5.816  0.0930  0.2421 -0.1257
 1007YOPC   GL113897   8.202   4.380   6.216  0.0629 -0.0945 -0.0769
 1007YOPC   GL213898   8.186   4.159   6.476  0.1342 -0.2042 -0.1285
 1007YOPC   C1A13899   7.906   4.606   6.439  0.0256 -0.0103 -0.0463
 1007YOPC   D2A13900   7.663   4.495   6.845  0.2109 -0.3180 -0.2846
 1007YOPC   C3A13901   7.458   4.711   7.140 -0.0093  0.0319  0.0228
 1007YOPC   C4A13902   7.255   4.751   7.555  0.2295  0.1104 -0.2293
 1007YOPC   C1B13903   7.996   3.940   6.904  0.0880 -0.0972 -0.2342
 1007YOPC   C2B13904   7.880   4.007   7.380 -0.2314 -0.3012  0.0301
 1007YOPC   D3B13905   7.985   4.159   7.677  0.0457  0.1462 -0.0956
 1007YOPC   C4B13906   8.052   4.019   8.063  0.3630 -0.1397 -0.1465
 1008YOPC   NC313907   6.010  14.782   5.212  0.1273 -0.0852 -0.5609
 1008YOPC   PO413908   6.338  14.493   5.110  0.2565  0.1193 -0.0602
 1008YOPC   GL113909   6.282  14.577   5.565  0.0244  0.1653 -0.3314
 1008YOPC   GL213910   6.321  14.875   5.624  0.1107  0.0748  0.1737
 1008YOPC   C1A13911   6.681  14.459   5.853  0.0843 -0.1651 -0.0657
 1008YOPC   D2A13912   6.498  14.152   6.107 -0.1128 -0.2937  0.1977
 1008YOPC   C3A13913   6.762  14.005   6.436 -0.0713 -0.1844  0.0209
 1008YOPC   C4A13914   7.222  13.952   6.652  0.1003 -0.1111 -0.3272
 1008YOPC   C1B13915   6.301  14.788   6.071 -0.0524 -0.2583 -0.2062
 1008YOPC   C2B13916   6.334  15.077   6.441 -0.0838 -0.0303 -0.0906
 1008YOPC   D3B13917   6.496  14.818   6.631 -0.0116 -0.2476 -0.0289
 1008YOPC   C4B13918   6.469  14.393   6.481 -0.2635  0.2618 -0.1493
 1009YOPC   NC313919   1.147   7.899   5.024  0.3000  0.1217 -0.0968
 1009YOPC   PO413920   1.523   7.997   5.217  0.1600  0.3964 -0.1276
 1009YOPC   GL113921   1.493   7.978   5.723  0.0091 -0.0258  0.1193
 1009YOPC   GL213922   1.657   8.227   5.780  0.2857  0.0227 -0.0591
 1009YOPC   C1A13923   1.329   7.965   6.163  0.0125 -0.0029  0.1131
 1009YOPC   D2A13924   1.074   8.100   6.492 -0.0297  0.0518  0.1816
 1009YOPC   C3A13925   1.083   8.174   6.921  0.0575  0.3515 -0.0575
 1009YOPC   C4A13926   1.322   8.289   7.323  0.2838  0.1594  0.0105
 1009YOPC   C1B13927   1.990   8.197   6.178 -0.3412  0.0165 -0.5550
 1009YOPC   C2B13928   2.029   8.432   6.584 -0.1382 -0.0071 -0.2452
 1009YOPC   D3B13929   1.805   8.699   6.619  0.0624 -0.2225  0.2555
 1009YOPC   C4B13930   1.459   8.876   6.344  0.0645  0.1293  0.0573
 1010YOPC   NC313931   5.758  16.477   4.892  0.0224  0.1050 -0.0523
 1010YOPC   PO413932   5.415  16.309   5.177  0.1168 -0.1352 -0.0631
 1010YOPC   GL113933   5.508  16.409   5.567 -0.1324  0.2351 -0.1163
 1010YOPC   GL213934   5.555  16.051   5.597  0.1343 -0.2221 -0.1876
 1010YOPC   C1A13935   5.887  16.377   5.953 -0.2776  0.1646  0.0387
 1010YOPC   D2A13936   5.797  16.364   6.372  0.2481 -0.0311  0.2068
 1010YOPC   C3A13937   6.116  16.307   6.691 -0.0543  0.5471 -0.1711
 1010YOPC   C4A13938   6.019  16.356   7.149  0.0752  0.2497  0.1430
 1010YOPC   C1B13939   5.477  16.032   6.130 -0.1574 -0.3732 -0.2134
 1010YOPC   C2B13940   5.486  16.106   6.646  0.1785 -0.1222 -0.2473
 1010YOPC   D3B13941   5.716  15.849   6.845  0.5622 -0.3078  0.0386
 1010YOPC   C4B13942   6.026  15.783   7.256  0.0062 -0.0804  0.0540
 1011YOPC   NC313943  18.005  13.140   5.087 -0.4587 -0.0770 -0.0816
 1011YOPC   PO413944  18.159  13.457   5.309  0.1493 -0.2269  0.1006
 1011YOPC   GL113945  18.248  13.338   5.710 -0.0008  0.0876  0.1684
 1011YOPC   GL213946  18.320  13.097   5.702 -0.0105 -0.4341  0.1316
 1011YOPC   C1A13947  18.492  13.320   6.150 -0.0378  0.5894 -0.0244
 1011YOPC   D2A13948  18.796  13.072   6.398 -0.0135  0.1621 -0.1932
 1011YOPC   C3A13949  19.139  12.789   6.184 -0.2681 -0.1129  0.1790
 1011YOPC   C4A13950  19.482  12.592   5.959 -0.1228  0.1081 -0.0554
 1011YOPC   C1B13951  18.202  12.608   5.771 -0.0161 -0.0649 -0.1072
 1011YOPC   C2B13952  17.756  12.458   5.825 -0.2569  0.1438  0.1237
 1011YOPC   D3B13953  17.471  12.457   6.209 -0.1724  0.1285  0.0311
 1011YOPC   C4B13954  17.593  12.411   6.625 -0.0523 -0.1321 -0.0777
 1012YOPC   NC313955   0.967  15.325   5.352  0.1698  0.3027 -0.0003
 1012YOPC   PO413956   0.506  15.372   5.300 -0.1158  0.0317  0.4677
 1012YOPC   GL113957   0.508  15.385   5.751  0.1665 -0.1113  0.2956
 1012YOPC   GL213958   0.569  15.679   5.817  0.0613  0.2908  0.1632
 1012YOPC   C1A13959   0.763  15.243   6.062  0.1416 -0.2871  0.2181
 1012YOPC   D2A13960   0.840  15.061   6.397 -0.0803  0.1220  0.1401
 1012YOPC   C3A13961   1.076  15.331   6.764 -0.0538 -0.4412 -0.0876
 1012YOPC   C4A13962   1.008  15.556   7.244  0.3115 -0.1407 -0.0420
 1012YOPC   C1B13963   0.555  15.813   6.174  0.1952  0.0350 -0.0671
 1012YOPC   C2B13964   0.891  15.622   6.418 -0.0107 -0.0596  0.2106
 1012YOPC   D3B13965   0.591  15.460   6.548 -0.2222  0.0931  0.0696
 1012YOPC   C4B13966   0.224  15.257   6.392 -0.1444 -0.3546 -0.1411
 1013YOPC   NC313967  15.398   7.490   5.401 -0.0323 -0.2206 -0.2013
 1013YOPC   PO413968  15.399   7.851   5.729 -0.3794  0.0132 -0.0012
 1013YOPC   GL113969  15.434   7.926   6.161 -0.0684 -0.0446  0.1665
 1013YOPC   GL213970  15.382   8.295   6.199 -0.1334  0.3285 -0.1407
 1013YOPC   C1A13971  15.581   7.671   6.454  0.0295 -0.2627 -0.2526
 1013YOPC   D2A13972  15.692   7.820   6.849  0.0763  0.1148  0.1766
 1013YOPC   C3A13973  15.432   7.650   7.193 -0.0832  0.2749 -0.1250
 1013YOPC   C4A13974  15.299   7.656   7.635 -0.2757 -0.0660  0.0169
 1013YOPC   C1B13975  15.359   8.142   6.610 -0.1594 -0.1682 -0.0425
 1013YOPC   C2B13976  15.322   8.124   7.034 -0.1467 -0.0258 -0.1510
 1013YOPC   D3B13977  15.666   8.295   7.283 -0.0557 -0.2647  0.3063
 1013YOPC   C4B13978  15.778   8.580   7.633 -0.1970  0.1722  0.0197
 1014YOPC   NC313979   0.578  10.594   5.290 -0.0002 -0.0944  0.1043
 1014YOPC   PO413980   0.286  10.439   5.582 -0.1774  0.0771 -0.0764
 1014YOPC   GL113981   0.215  10.566   5.999  0.1638  0.0730  0.0113
 1014YOPC   GL213982   0.541  10.574   6.143 -0.0272  0.5922  0.0075
 1014YOPC   C1A13983   0.137  10.563   6.476  0.1679 -0.0306 -0.1368
 1014YOPC   D2A13984   0.315  10.567   6.841  0.0100 -0.0356  0.3636
 1014YOPC   C3A13985   0.055  10.480   7.120  0.2254  0.0646 -0.2534
 1014YOPC   C4A13986  -0.085  10.725   7.457 -0.0555 -0.5217  0.1096
 1014YOPC   C1B13987   0.537  10.215   6.493 -0.1286 -0.2243  0.1663
 1014YOPC   C2B13988   0.522   9.824   6.631  0.1152 -0.0379  0.1800
 1014YOPC   D3B13989   0.423   9.716   6.925  0.1947  0.3114  0.0127
 1014YOPC   C4B13990   0.416   9.352   7.023 -0.1269 -0.0483 -0.1079
 1015YOPC   NC313991   2.217  12.418   4.988 -0.0334 -0.1303 -0.1750
 1015YOPC   PO413992   1.911  12.328   5.390 -0.0766 -0.3408 -0.1457
 1015YOPC   GL113993   2.140  12.400   5.746 -0.3001 -0.1168  0.0615
 1015YOPC   GL213994   2.455  12.567   5.786 -0.0441 -0.0830 -0.0152
 1015YOPC   C1A13995   2.163  12.493   6.146  0.0630 -0.0158  0.0809
 1015YOPC   D2A13996   2.024  12.548   6.542  0.0666  0.2955  0.1968
 1015YOPC   C3A13997   2.224  12.607   6.961 -0.0857 -0.3017 -0.0287
 1015YOPC   C4A13998   2.329  12.412   7.295 -0.1184  0.2169 -0.1780
 1015YOPC   C1B13999   2.607  12.724   6.147  0.0193 -0.1788  0.0895
 1015YOPC   C2B14000   2.467  12.693   6.541 -0.3703  0.1096 -0.0390
 1015YOPC   D3B14001   2.578  12.985   6.863  0.0060  0.1919  0.0084
 1015YOPC   C4B14002   2.680  13.142   7.212  0.2362  0.3055  0.2628
 1016YOPC   NC314003   4.502  15.084   5.228 -0.2143  0.0868 -0.0007
 1016YOPC   PO414004   4.891  14.821   5.115  0.1961 -0.0006 -0.1230
 1016YOPC   GL114005   5.075  15.057   5.401 -0.0637  0.2148 -0.1249
 1016YOPC   GL214006   4.879  14.991   5.735  0.1114  0.1194  0.0812
 1016YOPC   C1A14007   5.290  15.310   5.690 -0.0028 -0.0682  0.0652
 1016YOPC   D2A14008   5.098  15.769   5.848  0.0317  0.0543  0.2573
 1016YOPC   C3A14009   5.067  15.775   6.211  0.1522  0.0485  0.0384
 1016YOPC   C4A14010   4.951  15.831   6.620 -0.0098  0.0114  0.1414
 1016YOPC   C1B14011   4.912  15.277   6.006  0.1399  0.1303  0.0045
 1016YOPC   C2B14012   5.011  15.325   6.490  0.1956  0.2365  0.1175
 1016YOPC   D3B14013   5.303  15.147   6.873  0.3456 -0.0413  0.4139
 1016YOPC   C4B14014   5.660  14.818   7.000  0.1907  0.3796  0.0901
 1017YOPC   NC314015   2.716   1.077   5.309 -0.1345 -0.1744 -0.0881
 1017YOPC   PO414016   2.624   1.502   5.303 -0.1000  0.0165 -0.0839
 1017YOPC   GL114017   2.737   1.648   5.697 -0.2887 -0.0158  0.1156
 1017YOPC   GL214018   2.810   1.499   5.929  0.3501 -0.0049 -0.0243
 1017YOPC   C1A14019   3.001   1.960   6.000 -0.2061 -0.1316  0.1005
 1017YOPC   D2A14020   2.819   2.366   5.954  0.1311 -0.0543 -0.2725
 1017YOPC   C3A14021   2.652   2.314   6.317  0.3674  0.0292 -0.0286
 1017YOPC   C4A14022   2.400   2.368   6.670 -0.0830 -0.4379  0.1339
 1017YOPC   C1B14023   2.705   1.800   6.354 -0.0831  0.3108  0.0090
 1017YOPC   C2B14024   2.226   1.939   6.398  0.2012 -0.1683 -0.2205
 1017YOPC   D3B14025   2.078   1.944   6.729  0.3086 -0.1249 -0.3528
 1017YOPC   C4B14026   1.731   1.735   6.896 -0.1402  0.1010 -0.0991
 1018YOPC   NC314027   8.525  11.008   5.374 -0.2856  0.1857  0.4400
 1018YOPC   PO414028   8.923  10.741   5.469  0.1425  0.0073 -0.2453
 1018YOPC   GL114029   8.961  10.788   5.875 -0.0029 -0.1512  0.1450
 1018YOPC   GL214030   9.201  10.974   6.006 -0.1274  0.2027  0.0633
 1018YOPC   C1A14031   8.790  10.537   6.235  0.0022 -0.0221 -0.2365
 1018YOPC   D2A14032   8.764  10.680   6.713  0.1537  0.2177  0.2410
 1018YOPC   C3A14033   8.304  10.656   6.916  0.1689 -0.0358  0.1652
 1018YOPC   C4A14034   7.930  10.584   6.740 -0.0013  0.0470 -0.1301
 1018YOPC   C1B14035   9.364  11.187   6.294  0.1264 -0.4021 -0.2490
 1018YOPC   C2B14036   9.336  11.411   6.680 -0.0879  0.2874 -0.4135
 1018YOPC   D3B14037   9.604  11.113   7.067 -0.1268  0.1840 -0.0886
 1018YOPC   C4B14038   9.672  10.665   7.199 -0.3240  0.0002 -0.3594
 1019YOPC   NC314039  13.061  15.595   5.813  0.2909  0.0334 -0.0722
 1019YOPC   PO414040  13.297  15.213   6.091  0.1716  0.1241  0.3304
 1019YOPC   GL114041  13.350  15.228   6.484 -0.0495 -0.1122  0.0308
 1019YOPC   GL214042  13.712  15.380   6.474  0.1170  0.0652 -0.0763
 1019YOPC   C1A14043  13.288  15.426   6.840  0.4356  0.3868  0.3510
 1019YOPC   D2A14044  13.157  15.548   7.194  0.0762 -0.0895 -0.2842
 1019YOPC   C3A14045  13.239  15.258   7.507  0.0929 -0.0371  0.1094
 1019YOPC   C4A14046  13.125  14.898   7.655  0.1067  0.0362  0.1167
 1019YOPC   C1B14047  13.856  15.517   6.907 -0.2398  0.3546  0.0308
 1019YOPC   C2B14048  13.658  15.631   7.229 -0.1831 -0.1320 -0.0450
 1019YOPC   D3B14049  13.820  15.455   7.516 -0.1411 -0.0723 -0.3429
 1019YOPC   C4B14050  13.948  15.521   8.019  0.0669  0.0872  0.0094
 1020YOPC   NC314051  14.454  14.412   6.004 -0.1991  0.0747  0.0332
 1020YOPC   PO414052  14.888  14.686   5.981 -0.0058  0.1283  0.0619
 1020YOPC   GL114053  14.893  14.468   6.334 -0.1321 -0.1652  0.0564
 1020YOPC   GL214054  15.066  14.219   6.394 -0.0702  0.1077  0.0048
 1020YOPC   C1A14055  14.810  14.428   6.793 -0.0045  0.0414  0.1181
 1020YOPC   D2A14056  14.849  14.261   7.127  0.0605 -0.2180  0.0242
 1020YOPC   C3A14057  14.581  14.052   7.401  0.0603 -0.4546 -0.1362
 1020YOPC   C4A14058  14.239  14.033   7.782  0.0468  0.0131  0.0853
 1020YOPC   C1B14059  14.842  13.932   6.457 -0.1361  0.0268 -0.4399
 1020YOPC   C2B14060  14.608  13.828   6.913  0.2362 -0.0516 -0.0480
 1020YOPC   D3B14061  14.141  13.821   6.691  0.4724  0.1892 -0.0850
 1020YOPC   C4B14062  13.668  13.858   6.742 -0.3031 -0.1296 -0.4554
 1021YOPC   NC314063  15.297   6.650   5.134 -0.2851  0.0284  0.0985
 1021YOPC   PO414064  15.068   6.959   5.448  0.1196  0.0386  0.1582
 1021YOPC   GL114065  15.182   7.102   5.828 -0.3103 -0.0607  0.3158
 1021YOPC   GL214066  15.271   7.291   5.860  0.1741 -0.2443  0.0808
 1021YOPC   C1A14067  15.035   6.915   6.242 -0.2177  0.0078 -0.2109
 1021YOPC   D2A14068  15.140   6.738   6.613 -0.0333 -0.4374 -0.2222
 1021YOPC   C3A14069  15.213   6.627   7.114  0.0559 -0.0818 -0.2045
 1021YOPC   C4A14070  15.321   6.248   7.426 -0.2086  0.0828 -0.1171
 1021YOPC   C1B14071  15.492   7.257   6.263 -0.1460 -0.4661  0.0932
 1021YOPC   C2B14072  15.763   7.266   6.651 -0.3467 -0.1355 -0.1524
 1021YOPC   D3B14073  15.623   6.952   7.030  0.0047 -0.3406  0.0042
 1021YOPC   C4B14074  15.624   6.776   7.377 -0.0112 -0.2039 -0.2276
 1022YOPC   NC314075  12.884  16.359   6.168  0.0830 -0.1590 -0.0032
 1022YOPC   PO414076  12.790  15.969   6.156  0.3965  0.5805 -0.2217
 1022YOPC   GL114077  12.809  16.121   6.587  0.1767  0.0112  0.0797
 1022YOPC   GL214078  12.590  16.344   6.659  0.0773 -0.3942  0.1333
 1022YOPC   C1A14079  12.781  16.005   6.969  0.0862  0.0442 -0.1734
 1022YOPC   D2A14080  12.397  15.928   6.993 -0.0833 -0.0740 -0.0223
 1022YOPC   C3A14081  12.175  15.882   7.372  0.0818  0.2139  0.1685
 1022YOPC   C4A14082  12.080  16.021   7.803 -0.2944 -0.2069  0.0729
 1022YOPC   C1B14083  12.423  16.417   7.159  0.0196 -0.1131 -0.1069
 1022YOPC   C2B14084  12.589  16.100   7.520  0.0320 -0.4386 -0.1152
 1022YOPC   D3B14085  12.627  16.176   7.889  0.1530 -0.1353 -0.0360
 1022YOPC   C4B14086  12.366  16.190   8.258 -0.1753  0.1138 -0.4047
 1023YOPC   NC314087   8.732  10.225   5.711  0.1017 -0.1332  0.0304
 1023YOPC   PO414088   8.385  10.064   5.514 -0.0425  0.0985  0.0078
 1023YOPC   GL114089   8.339  10.042   6.029 -0.0932  0.1269  0.1847
 1023YOPC   GL214090   7.935  10.046   6.120  0.0721 -0.5282  0.2112
 1023YOPC   C1A14091   8.484   9.894   6.421 -0.0703 -0.3018 -0.3466
 1023YOPC   D2A14092   8.321   9.646   6.733  0.2710  0.1411  0.0063
 1023YOPC   C3A14093   8.336   9.754   7.191 -0.0611 -0.0862 -0.1479
 1023YOPC   C4A14094   8.618   9.663   7.672 -0.1618  0.0173 -0.2910
 1023YOPC   C1B14095   8.047  10.075   6.534 -0.1937 -0.2723  0.0284
 1023YOPC   C2B14096   8.015  10.022   6.996  0.0471  0.0006  0.0744
 1023YOPC   D3B14097   7.664  10.065   7.215  0.3998 -0.1645 -0.0974
 1023YOPC   C4B14098   7.269  10.202   7.260  0.0588  0.3759  0.3196
 1024YOPC   NC314099   1.436  17.443   5.302  0.1254 -0.1019  0.0335
 1024YOPC   PO414100   1.631  17.005   5.214 -0.2498 -0.1449 -0.5938
 1024YOPC   GL114101   1.697  17.198   5.638  0.1152  0.2502  0.2538
 1024YOPC   GL214102   1.845  16.977   5.830 -0.1573 -0.0546 -0.2171
 1024YOPC   C1A14103   1.812  17.530   5.889  0.1528 -0.0296 -0.0469
 1024YOPC   D2A14104   1.805  17.614   6.328 -0.0931  0.0437  0.0105
 1024YOPC   C3A14105   1.925  17.265   6.727 -0.2024  0.1646 -0.1488
 1024YOPC   C4A14106   2.162  17.041   6.963 -0.1083 -0.3019  0.1909
 1024YOPC   C1B14107   2.135  16.852   6.146  0.0513  0.0805  0.2631
 1024YOPC   C2B14108   2.394  16.967   6.489  0.0868  0.0956 -0.2510
 1024YOPC   D3B14109   2.724  16.705   6.611  0.0984  0.1581 -0.0897
 1024YOPC   C4B14110   3.058  16.475   6.899 -0.1072 -0.1702  0.3046
 1025YOPC   NC314111  12.295  18.128   5.945 -0.3488  0.0556  0.2049
 1025YOPC   PO414112  12.725  18.025   6.198  0.0102  0.4187 -0.0853
 1025YOPC   GL114113  12.818  18.097   6.620  0.1374 -0.1079  0.2901
 1025YOPC   GL214114  12.883  18.370   6.540 -0.0471  0.1426  0.0217
 1025YOPC   C1A14115  12.767  18.141   7.033  0.0685  0.1457  0.2462
 1025YOPC   D2A14116  12.712  18.125   7.487  0.0129 -0.0062  0.0295
 1025YOPC   C3A14117  12.380  18.225   7.810  0.5356 -0.0411  0.3220
 1025YOPC   C4A14118  12.050  18.379   7.993  0.0381 -0.4123  0.1779
 1025YOPC   C1B14119  12.833  18.618   6.930  0.1576  0.1859 -0.0128
 1025YOPC   C2B14120  12.823  18.635   7.401  0.2725  0.2952  0.0457
 1025YOPC   D3B14121  12.680  18.671   7.797 -0.0257  0.2857 -0.0933
 1025YOPC   C4B14122  12.908  19.097   8.016 -0.0897 -0.1813  0.0810
 1026YOPC   NC314123  18.558  11.491   4.939 -0.0821  0.1394  0.0162
 1026YOPC   PO414124  18.758  11.731   5.409 -0.0611 -0.1836  0.2074
 1026YOPC   GL114125  18.864  12.166   5.492 -0.3020  0.0132  0.0383
 1026YOPC   GL214126  18.581  12.284   5.426  0.1666 -0.0764  0.0170
 1026YOPC   C1A14127  19.026  12.330   5.817  0.1716 -0.0656 -0.3767
 1026YOPC   D2A14128  18.873  12.414   6.295  0.0334  0.0268 -0.1722
 1026YOPC   C3A14129  19.038  12.723   6.707 -0.3445  0.0928  0.1600
 1026YOPC   C4A14130  19.418  12.742   6.743 -0.2761  0.1024 -0.0592
 1026YOPC   C1B14131  18.558  12.181   5.888  0.1752  0.1667  0.2290
 1026YOPC   C2B14132  18.402  12.148   6.389 -0.1386  0.0787  0.1670
 1026YOPC   D3B14133  18.601  12.397   6.726 -0.1035 -0.0939  0.1908
 1026YOPC   C4B14134  18.548  12.883   6.856  0.0854  0.2063 -0.0895
 1027YOPC   NC314135  14.508  15.717   5.978 -0.0407 -0.0830  0.0520
 1027YOPC   PO414136  14.422  15.283   5.850  0.0345  0.0164  0.3754
 1027YOPC   GL114137  14.294  15.061   6.175  0.1754  0.1816  0.1162
 1027YOPC   GL214138  14.567  14.949   6.329  0.0887 -0.0811 -0.1701
 1027YOPC   C1A14139  14.142  15.197   6.625 -0.1693  0.0681  0.0906
 1027YOPC   D2A14140  14.214  15.217   7.046  0.4086  0.1101 -0.1968
 1027YOPC   C3A14141  14.168  14.952   7.439  0.1360 -0.4822  0.2622
 1027YOPC   C4A14142  13.993  15.061   7.809 -0.0805  0.0584 -0.3085
 1027YOPC   C1B14143  14.470  14.804   6.749 -0.1388  0.0913 -0.2511
 1027YOPC   C2B14144  14.554  14.629   7.172  0.0037  0.0301 -0.4792
 1027YOPC   D3B14145  14.369  14.465   7.389  0.0184 -0.0301  0.1373
 1027YOPC   C4B14146  14.303  14.612   7.836 -0.2668  0.1186  0.1833
 1028YOPC   NC314147  12.574   4.002   5.356  0.0385  0.2161  0.2735
 1028YOPC   PO414148  12.868   4.270   5.484 -0.2314  0.0342  0.2242
 1028YOPC   GL114149  12.730   4.485   5.944  0.0336  0.2017  0.0160
 1028YOPC   GL214150  12.422   4.200   6.076 -0.2384  0.0281  0.1170
 1028YOPC   C1A14151  12.815   4.379   6.354  0.2015 -0.1221  0.1685
 1028YOPC   D2A14152  12.480   4.290   6.670 -0.0189 -0.0384 -0.3767
 1028YOPC   C3A14153  12.246   4.468   6.968 -0.2132  0.3225  0.1875
 1028YOPC   C4A14154  12.306   4.774   7.219 -0.0455  0.2512 -0.1966
 1028YOPC   C1B14155  12.308   4.593   6.287  0.1392  0.1827 -0.2359
 1028YOPC   C2B14156  12.087   4.901   6.077  0.0103  0.3874  0.1188
 1028YOPC   D3B14157  11.803   5.136   6.368  0.0589  0.0278  0.3853
 1028YOPC   C4B14158  11.671   5.208   6.741  0.0649 -0.2286 -0.0552
 1029YOPC   NC314159   3.019   1.879   5.129  0.0210  0.2171  0.1263
 1029YOPC   PO414160   3.179   2.344   5.345  0.0909  0.0900 -0.1165
 1029YOPC   GL114161   3.272   2.315   5.780  0.2208  0.3858  0.4596
 1029YOPC   GL214162   3.521   2.141   5.895 -0.3107 -0.0826  0.2488
 1029YOPC   C1A14163   3.232   2.335   6.258  0.0842 -0.0889  0.0100
 1029YOPC   D2A14164   3.021   2.062   6.581 -0.1951 -0.0137  0.1278
 1029YOPC   C3A14165   3.117   1.994   6.884  0.1249  0.2809  0.0409
 1029YOPC   C4A14166   2.999   1.858   7.237 -0.0209  0.1850 -0.0658
 1029YOPC   C1B14167   3.764   2.204   6.252  0.0442  0.0497 -0.2527
 1029YOPC   C2B14168   3.602   2.193   6.607  0.2061  0.0172 -0.1673
 1029YOPC   D3B14169   3.567   1.823   6.773 -0.1197  0.2235 -0.0022
 1029YOPC   C4B14170   3.356   1.525   6.931  0.2485 -0.0296  0.0834
 1030YOPC   NC314171  15.162  17.370   5.989 -0.1513  0.0547  0.1804
 1030YOPC   PO414172  15.278  17.343   6.428 -0.0739 -0.0614 -0.2732
 1030YOPC   GL114173  15.459  17.105   6.742  0.1967  0.1495  0.0457
 1030YOPC   GL214174  15.673  16.768   6.762  0.0910 -0.1469 -0.0375
 1030YOPC   C1A14175  15.412  16.800   7.186 -0.1286 -0.3173  0.1059
 1030YOPC   D2A14176  15.610  16.463   7.476 -0.3272 -0.2062  0.2390
 1030YOPC   C3A14177  15.733  16.610   7.870 -0.0481  0.1172 -0.2957
 1030YOPC   C4A14178  15.692  16.499   8.327 -0.0135 -0.1075  0.0374
 1030YOPC   C1B14179  15.991  16.582   6.967  0.2479  0.4193  0.0584
 1030YOPC   C2B14180  15.965  16.187   7.056 -0.1614 -0.0578 -0.0761
 1030YOPC   D3B14181  16.396  15.940   7.289 -0.2676  0.1242 -0.0629
 1030YOPC   C4B14182  16.559  16.084   7.714 -0.0290  0.0303 -0.0680
 1031YOPC   NC314183   3.692  11.578   5.482 -0.1352 -0.0625  0.0156
 1031YOPC   PO414184   3.428  11.885   5.290  0.4372  0.0851  0.0666
 1031YOPC   GL114185   3.109  11.805   5.810  0.3745 -0.0260  0.2806
 1031YOPC   GL214186   3.035  11.522   6.044 -0.4998  0.1691  0.0466
 1031YOPC   C1A14187   3.010  11.997   6.190 -0.0970  0.0253  0.0487
 1031YOPC   D2A14188   3.042  12.114   6.675  0.1801 -0.0004 -0.1242
 1031YOPC   C3A14189   3.390  11.947   6.915  0.3015  0.1765  0.1521
 1031YOPC   C4A14190   3.620  12.175   7.154 -0.4280  0.3063  0.2460
 1031YOPC   C1B14191   3.113  11.592   6.516 -0.0952 -0.0943  0.0709
 1031YOPC   C2B14192   3.403  11.491   6.830 -0.1977  0.1263 -0.1847
 1031YOPC   D3B14193   3.854  11.284   6.738  0.1831  0.0101  0.4312
 1031YOPC   C4B14194   4.155  11.230   7.061  0.1464 -0.0582 -0.0529
 1032YOPC   NC314195  16.287  12.056   5.674 -0.1102 -0.0859  0.1586
 1032YOPC   PO414196  15.808  12.154   5.601  0.3887  0.0184  0.1666
 1032YOPC   GL114197  15.752  12.263   6.004  0.4659 -0.2287  0.0543
 1032YOPC   GL214198  15.721  12.596   6.093  0.0740  0.3523  0.0448
 1032YOPC   C1A14199  15.957  12.138   6.382 -0.0499  0.2603 -0.1473
 1032YOPC   D2A14200  16.032  12.201   6.815  0.0284  0.2432  0.1006
 1032YOPC   C3A14201  15.816  12.131   7.121 -0.2474 -0.1363 -0.1915
 1032YOPC   C4A14202  15.820  12.344   7.474 -0.2299  0.2087  0.1481
 1032YOPC   C1B14203  15.766  12.577   6.518  0.2992  0.0454 -0.1840
 1032YOPC   C2B14204  15.833  12.648   6.971 -0.1616 -0.0482  0.0543
 1032YOPC   D3B14205  16.072  12.937   7.080  0.1562 -0.2394 -0.0211
 1032YOPC   C4B14206  16.388  13.065   6.979  0.1154  0.2070 -0.2921
 1033YOPC   NC314207  10.577   9.954   5.489  0.4316  0.0597  0.2812
 1033YOPC   PO414208  10.648   9.741   5.867  0.1571 -0.0279 -0.0660
 1033YOPC   GL114209  10.824   9.857   6.203  0.0659 -0.1157  0.1260
 1033YOPC   GL214210  10.865  10.191   6.272 -0.2456 -0.0091  0.2927
 1033YOPC   C1A14211  11.273   9.960   6.597 -0.0811  0.0465  0.1862
 1033YOPC   D2A14212  11.464  10.162   6.973  0.0137 -0.2707  0.1807
 1033YOPC   C3A14213  11.639  10.382   7.366  0.2684  0.1207 -0.0555
 1033YOPC   C4A14214  11.554  10.347   7.831  0.1853 -0.1653  0.2440
 1033YOPC   C1B14215  10.975  10.458   6.615 -0.1353  0.1559 -0.0453
 1033YOPC   C2B14216  10.941  10.874   6.908  0.0270  0.1350  0.1302
 1033YOPC   D3B14217  11.187  10.997   7.179 -0.3145 -0.0109  0.0693
 1033YOPC   C4B14218  11.485  10.800   7.421  0.0351 -0.1359  0.1081
 1034YOPC   NC314219   9.191   3.024   5.659 -0.0897  0.0048 -0.0752
 1034YOPC   PO414220   8.864   2.958   5.905  0.1454  0.2120  0.0630
 1034YOPC   GL114221   8.869   2.940   6.351 -0.1570  0.0163  0.2039
 1034YOPC   GL214222   8.701   2.661   6.468  0.0769 -0.0220  0.0571
 1034YOPC   C1A14223   9.061   3.050   6.715 -0.0890  0.0140  0.2190
 1034YOPC   D2A14224   9.256   3.433   6.826  0.1459  0.2099 -0.1087
 1034YOPC   C3A14225   8.974   3.802   7.064  0.2084  0.2903 -0.1505
 1034YOPC   C4A14226   8.959   4.198   7.308  0.2318  0.2748 -0.0448
 1034YOPC   C1B14227   9.161   2.574   6.542 -0.1029  0.1663  0.1376
 1034YOPC   C2B14228   9.304   2.588   6.901 -0.0278 -0.0382 -0.1808
 1034YOPC   D3B14229   9.430   2.322   7.093  0.1501  0.0187 -0.0238
 1034YOPC   C4B14230   9.528   1.855   7.085 -0.1034 -0.0472 -0.3844
 1035YOPC   NC314231   0.206   2.303   5.649  0.3324  0.2821  0.0217
 1035YOPC   PO414232  -0.288   2.253   5.788 -0.0384  0.1607  0.0783
 1035YOPC   GL114233  -0.194   2.010   6.195  0.1733 -0.1594  0.1431
 1035YOPC   GL214234  -0.172   1.728   6.252 -0.0818  0.2737  0.3128
 1035YOPC   C1A14235  -0.410   2.041   6.568 -0.0777  0.2832 -0.0038
 1035YOPC   D2A14236  -0.376   2.049   6.963  0.3787  0.2359  0.0993
 1035YOPC   C3A14237  -0.422   2.441   7.139 -0.0225  0.1940  0.0703
 1035YOPC   C4A14238  -0.104   2.609   7.428  0.2211  0.0073  0.0942
 1035YOPC   C1B14239  -0.231   1.557   6.582  0.0059 -0.1859 -0.2079
 1035YOPC   C2B14240  -0.259   1.533   7.005 -0.0314  0.1827 -0.0855
 1035YOPC   D3B14241   0.163   1.327   7.162  0.1270 -0.1663  0.1658
 1035YOPC   C4B14242   0.476   1.341   7.401 -0.0163 -0.1759  0.1331
 1036YOPC   NC314243  11.460  11.693   5.368  0.0498  0.2042  0.0228
 1036YOPC   PO414244  11.287  12.106   5.355 -0.0746 -0.0158 -0.1165
 1036YOPC   GL114245  11.415  12.364   5.660 -0.0932  0.1491 -0.1580
 1036YOPC   GL214246  11.258  12.494   5.731  0.1898 -0.0270  0.0881
 1036YOPC   C1A14247  11.770  12.618   5.764 -0.0279  0.2203  0.0239
 1036YOPC   D2A14248  11.787  12.803   6.205 -0.0489  0.1758  0.3971
 1036YOPC   C3A14249  11.817  12.519   6.576 -0.0666  0.3073 -0.4755
 1036YOPC   C4A14250  12.054  12.626   6.796  0.0495  0.1901 -0.0603
 1036YOPC   C1B14251  11.505  12.191   6.182  0.1110 -0.0724 -0.1996
 1036YOPC   C2B14252  11.533  11.739   6.160 -0.2027  0.1306 -0.0924
 1036YOPC   D3B14253  11.564  11.451   6.472  0.1459 -0.1918 -0.0381
 1036YOPC   C4B14254  11.258  11.315   6.735  0.0269 -0.1325  0.0566
 1037YOPC   NC314255   5.804   5.829   5.452 -0.1715  0.0795 -0.1564
 1037YOPC   PO414256   5.468   6.034   5.535 -0.0077  0.1386  0.0482
 1037YOPC   GL114257   5.432   5.929   5.982  0.3680 -0.1665  0.0395
 1037YOPC   GL214258   5.230   6.194   6.124 -0.0512 -0.0924 -0.1401
 1037YOPC   C1A14259   5.669   5.860   6.351 -0.1129  0.0615  0.1671
 1037YOPC   D2A14260   5.634   5.678   6.717 -0.2679  0.0580 -0.0165
 1037YOPC   C3A14261   5.423   5.737   7.107  0.4151  0.1198 -0.1064
 1037YOPC   C4A14262   5.234   5.507   7.240 -0.1049  0.2681 -0.2656
 1037YOPC   C1B14263   5.276   6.430   6.468 -0.1043  0.0881 -0.0909
 1037YOPC   C2B14264   5.622   6.664   6.699  0.3711  0.0026 -0.0868
 1037YOPC   D3B14265   6.048   6.496   6.647 -0.1180  0.3218  0.1094
 1037YOPC   C4B14266   6.257   6.288   6.968 -0.0173  0.0668 -0.0443
 1038YOPC   NC314267   6.909  13.235   4.461  0.0464  0.1365 -0.1589
 1038YOPC   PO414268   6.811  12.962   4.860 -0.0893  0.1120  0.2299
 1038YOPC   GL114269   6.859  13.061   5.273 -0.0434  0.3659 -0.0023
 1038YOPC   GL214270   7.162  12.998   5.498 -0.2910 -0.2218 -0.1322
 1038YOPC   C1A14271   6.825  12.816   5.767 -0.2741 -0.5183 -0.3726
 1038YOPC   D2A14272   6.919  12.715   6.143  0.0284 -0.0679  0.0969
 1038YOPC   C3A14273   6.837  12.606   6.496  0.0554 -0.1692  0.0041
 1038YOPC   C4A14274   6.919  12.205   6.714 -0.0146  0.0597 -0.0011
 1038YOPC   C1B14275   7.412  12.853   5.837 -0.2742 -0.0286 -0.2002
 1038YOPC   C2B14276   7.769  12.576   6.132 -0.0476  0.2617  0.0996
 1038YOPC   D3B14277   7.842  12.671   6.552 -0.0517 -0.0436  0.1960
 1038YOPC   C4B14278   8.005  12.430   6.873 -0.0719  0.1060 -0.0657
 1039YOPC   NC314279   1.616   3.076   5.068  0.1733  0.0755 -0.0669
 1039YOPC   PO414280   1.487   3.012   5.439  0.1273 -0.3253 -0.1513
 1039YOPC   GL114281   1.519   2.882   5.761  0.1596 -0.2774  0.2138
 1039YOPC   GL214282   1.889   2.801   5.723  0.0922  0.1828 -0.0701
 1039YOPC   C1A14283   1.414   2.779   6.202  0.2143 -0.1227  0.2807
 1039YOPC   D2A14284   1.471   3.042   6.536 -0.0736  0.0554  0.1293
 1039YOPC   C3A14285   1.139   3.436   6.471 -0.1049 -0.3141  0.0500
 1039YOPC   C4A14286   1.172   3.874   6.439 -0.2357  0.2315  0.0843
 1039YOPC   C1B14287   1.931   2.522   5.977  0.0937  0.1169 -0.1927
 1039YOPC   C2B14288   1.953   2.419   6.440 -0.3904  0.2712 -0.1634
 1039YOPC   D3B14289   1.700   2.539   6.841  0.0879 -0.5114 -0.2081
 1039YOPC   C4B14290   1.441   2.788   6.930  0.2986  0.3325  0.0468
 1040YOPC   NC314291   2.844   3.085   5.258 -0.2398  0.2867 -0.0171
 1040YOPC   PO414292   3.080   3.450   5.459  0.2883  0.0112  0.0620
 1040YOPC   GL114293   2.951   3.163   5.755 -0.0253 -0.0862  0.0417
 1040YOPC   GL214294   3.118   2.868   5.711  0.3328  0.1273  0.0501
 1040YOPC   C1A14295   2.835   2.905   6.112  0.4105  0.0695 -0.0690
 1040YOPC   D2A14296   2.950   2.705   6.462 -0.1495  0.1677 -0.0683
 1040YOPC   C3A14297   3.243   2.976   6.679  0.1252 -0.1306  0.1391
 1040YOPC   C4A14298   3.348   3.004   7.080 -0.1316 -0.1235  0.0949
 1040YOPC   C1B14299   3.303   2.809   6.131 -0.0778  0.2239 -0.4186
 1040YOPC   C2B14300   3.562   2.683   6.473 -0.0730 -0.3502 -0.1011
 1040YOPC   D3B14301   3.226   2.515   6.821 -0.3791 -0.3916  0.1662
 1040YOPC   C4B14302   2.912   2.470   7.052 -0.1416  0.1400  0.1527
 1041YOPC   NC314303  13.607   9.106   5.320 -0.3041 -0.3721  0.0168
 1041YOPC   PO414304  13.594   8.735   5.621  0.0492 -0.0729  0.0824
 1041YOPC   GL114305  13.402   8.875   6.007  0.3283 -0.2522  0.0371
 1041YOPC   GL214306  13.688   8.789   6.252 -0.0460  0.0540 -0.1502
 1041YOPC   C1A14307  13.152   8.988   6.472  0.2873 -0.1592  0.0609
 1041YOPC   D2A14308  12.732   8.936   6.756  0.2282  0.2571 -0.0817
 1041YOPC   C3A14309  12.822   9.036   7.144 -0.2409  0.1145  0.0074
 1041YOPC   C4A14310  12.947   8.761   7.501 -0.0185 -0.2226  0.0109
 1041YOPC   C1B14311  13.979   8.863   6.710  0.3752 -0.2139 -0.2157
 1041YOPC   C2B14312  13.831   8.935   7.173  0.1567  0.1087  0.0156
 1041YOPC   D3B14313  13.940   9.191   7.580  0.2564  0.3462 -0.0646
 1041YOPC   C4B14314  14.137   9.492   7.967 -0.2541  0.2588 -0.0288
 1042YOPC   NC314315   5.937   3.504   5.862 -0.1238 -0.2250  0.1235
 1042YOPC   PO414316   5.565   3.617   5.610  0.2312 -0.3099  0.1979
 1042YOPC   GL114317   5.459   3.672   6.029 -0.1070  0.0845 -0.2649
 1042YOPC   GL214318   5.238   3.696   6.193 -0.0664 -0.1438 -0.1001
 1042YOPC   C1A14319   5.714   3.609   6.461  0.0129  0.2651 -0.1466
 1042YOPC   D2A14320   5.805   3.602   6.914  0.2443 -0.0266  0.2588
 1042YOPC   C3A14321   5.755   3.739   7.223 -0.0111  0.0851 -0.1417
 1042YOPC   C4A14322   5.669   3.933   7.635  0.0368 -0.3192  0.0866
 1042YOPC   C1B14323   4.830   3.449   6.079 -0.1184 -0.1838  0.0522
 1042YOPC   C2B14324   4.418   3.245   6.014 -0.0627 -0.1529  0.3462
 1042YOPC   D3B14325   4.209   3.100   6.433  0.0239  0.1050 -0.0579
 1042YOPC   C4B14326   4.223   2.875   6.734  0.0937  0.3623 -0.1144
 1043YOPC   NC314327   6.961  11.274   5.181 -0.0606 -0.2887 -0.1927
 1043YOPC   PO414328   6.839  11.106   5.588  0.0438 -0.0651 -0.2282
 1043YOPC   GL114329   7.207  10.886   5.849 -0.0266  0.0781 -0.1848
 1043YOPC   GL214330   7.530  10.889   5.843  0.2456 -0.0105  0.0638
 1043YOPC   C1A14331   7.176  10.700   6.255  0.1112 -0.1171 -0.1012
 1043YOPC   D2A14332   7.052  10.688   6.648  0.1954  0.1811 -0.1232
 1043YOPC   C3A14333   7.081  10.727   7.129 -0.2944 -0.1764  0.3787
 1043YOPC   C4A14334   7.325  10.614   7.462 -0.0094  0.1496  0.0157
 1043YOPC   C1B14335   7.510  11.213   6.196 -0.2249 -0.4167  0.1342
 1043YOPC   C2B14336   7.612  11.502   6.509  0.0217  0.0278 -0.1932
 1043YOPC   D3B14337   7.551  11.385   6.952  0.1132 -0.4178  0.0971
 1043YOPC   C4B14338   7.666  11.401   7.386  0.0672 -0.0004 -0.3741
 1044YOPC   NC314339  10.284   3.044   5.627 -0.1443 -0.0681 -0.0490
 1044YOPC   PO414340  10.605   2.940   5.911 -0.3140 -0.0501 -0.0505
 1044YOPC   GL114341  10.209   2.859   6.075 -0.1788  0.0620  0.1094
 1044YOPC   GL214342  10.217   2.523   6.068  0.1861  0.3163  0.2217
 1044YOPC   C1A14343  10.135   2.870   6.600 -0.0165 -0.0630  0.1803
 1044YOPC   D2A14344  10.464   2.814   6.900  0.2105  0.0848 -0.3489
 1044YOPC   C3A14345  10.581   3.045   7.279  0.1078 -0.1706  0.1854
 1044YOPC   C4A14346  10.424   3.258   7.498 -0.1717  0.0100 -0.3395
 1044YOPC   C1B14347  10.247   2.302   6.497 -0.4074  0.1100  0.0712
 1044YOPC   C2B14348  10.540   2.129   6.796  0.2204 -0.1985 -0.1320
 1044YOPC   D3B14349  10.624   1.676   6.991  0.1266 -0.1558  0.1133
 1044YOPC   C4B14350  10.568   1.515   7.368 -0.1601 -0.4777 -0.0582
 1045YOPC   NC314351  12.604  16.262   5.776 -0.2228 -0.1135  0.1140
 1045YOPC   PO414352  12.533  16.649   6.010  0.0788 -0.1270  0.1206
 1045YOPC   GL114353  12.398  16.723   6.430  0.0115  0.0602 -0.3767
 1045YOPC   GL214354  12.351  17.048   6.490 -0.0061 -0.1747  0.0629
 1045YOPC   C1A14355  12.267  16.815   6.916  0.0823 -0.1344  0.0548
 1045YOPC   D2A14356  12.435  16.968   7.312 -0.1452  0.1047  0.3570
 1045YOPC   C3A14357  12.484  17.400   7.582  0.0815 -0.0056 -0.3076
 1045YOPC   C4A14358  12.374  17.743   7.679 -0.1956  0.1321  0.1473
 1045YOPC   C1B14359  12.573  17.190   6.855  0.2739 -0.2677  0.1865
 1045YOPC   C2B14360  12.888  17.226   7.140 -0.2868  0.1374  0.0645
 1045YOPC   D3B14361  12.916  17.139   7.464  0.0707  0.0770 -0.2351
 1045YOPC   C4B14362  12.716  16.904   7.729 -0.1519  0.1194  0.0942
 1046YOPC   NC314363   3.213   0.231   4.559 -0.1275  0.0873  0.1183
 1046YOPC   PO414364   3.019   0.315   4.932 -0.3981  0.1040  0.6011
 1046YOPC   GL114365   3.260   0.311   5.257  0.0157 -0.2408  0.2574
 1046YOPC   GL214366   3.353   0.019   5.345  0.2868  0.4878  0.0759
 1046YOPC   C1A14367   3.423   0.361   5.703  0.0522 -0.1269 -0.2411
 1046YOPC   D2A14368   3.765   0.452   5.878 -0.1891  0.0572  0.0136
 1046YOPC   C3A14369   3.968   0.661   6.229 -0.3186 -0.0632 -0.0244
 1046YOPC   C4A14370   3.962   0.679   6.723  0.1318  0.2603  0.1407
 1046YOPC   C1B14371   3.262  -0.183   5.745  0.0664 -0.0978 -0.2876
 1046YOPC   C2B14372   3.502  -0.418   6.017  0.2200  0.0447  0.0846
 1046YOPC   D3B14373   3.395  -0.291   6.392 -0.2833 -0.1715  0.1778
 1046YOPC   C4B14374   3.446   0.015   6.572 -0.1922  0.4592 -0.2351
 1047YOPC   NC314375   1.290  16.561   5.485  0.0179  0.0542  0.2630
 1047YOPC   PO414376   1.288  16.943   5.644  0.0525 -0.0050 -0.2120
 1047YOPC   GL114377   1.436  16.736   6.017 -0.2612 -0.1582 -0.2532
 1047YOPC   GL214378   1.713  16.499   6.263  0.1680 -0.1424  0.0273
 1047YOPC   C1A14379   1.221  16.801   6.402 -0.0509 -0.1290 -0.1926
 1047YOPC   D2A14380   1.238  16.419   6.749  0.0399  0.1727 -0.1149
 1047YOPC   C3A14381   1.348  16.657   7.084  0.1691  0.3544  0.1322
 1047YOPC   C4A14382   1.769  16.759   7.169  0.3530 -0.1100  0.1615
 1047YOPC   C1B14383   2.073  16.546   6.518 -0.1952  0.1642 -0.2520
 1047YOPC   C2B14384   2.248  16.584   6.894 -0.3676 -0.0134 -0.0549
 1047YOPC   D3B14385   2.136  16.315   7.235 -0.1790 -0.2107  0.1313
 1047YOPC   C4B14386   2.156  16.375   7.704  0.5135  0.1462  0.2771
 1048YOPC   NC314387   4.910   1.208   5.225 -0.2275  0.0188 -0.0508
 1048YOPC   PO414388   5.033   0.753   5.137 -0.1202  0.2491 -0.1155
 1048YOPC   GL114389   4.930   0.804   5.578  0.1317 -0.4076 -0.1388
 1048YOPC   GL214390   5.073   0.467   5.634 -0.2044  0.2666 -0.0822
 1048YOPC   C1A14391   5.018   0.724   6.113 -0.4444  0.0267 -0.3716
 1048YOPC   D2A14392   4.919   0.685   6.641 -0.0331 -0.1077 -0.1038
 1048YOPC   C3A14393   4.470   0.883   6.740 -0.1094  0.1138 -0.0450
 1048YOPC   C4A14394   4.143   1.008   7.080  0.0700 -0.2604  0.0233
 1048YOPC   C1B14395   5.396   0.352   5.807  0.0202  0.2568 -0.2203
 1048YOPC   C2B14396   5.746   0.303   6.182 -0.4810  0.0220 -0.0446
 1048YOPC   D3B14397   5.584   0.100   6.587  0.0507 -0.1463 -0.0600
 1048YOPC   C4B14398   5.379   0.151   6.876  0.1037 -0.2671 -0.1186
 1049YOPC   NC314399   3.562   2.632   5.555  0.1515 -0.1180 -0.0705
 1049YOPC   PO414400   3.940   2.471   5.596 -0.1851 -0.2097  0.0963
 1049YOPC   GL114401   4.266   2.497   5.924  0.4025 -0.1983  0.2969
 1049YOPC   GL214402   4.442   2.751   6.006 -0.1406 -0.0263 -0.0850
 1049YOPC   C1A14403   4.286   2.135   6.179 -0.0271  0.2455 -0.2058
 1049YOPC   D2A14404   4.510   2.047   6.485 -0.0318 -0.0889 -0.1254
 1049YOPC   C3A14405   4.964   2.175   6.581 -0.2927  0.1319  0.0442
 1049YOPC   C4A14406   5.046   2.625   6.540  0.1201  0.0052 -0.0711
 1049YOPC   C1B14407   4.647   2.543   6.271  0.0157 -0.1266 -0.4712
 1049YOPC   C2B14408   4.579   2.536   6.762 -0.2826  0.0839 -0.1222
 1049YOPC   D3B14409   4.520   2.930   7.112 -0.3540 -0.0679  0.0144
 1049YOPC   C4B14410   4.242   3.265   7.430 -0.1451  0.2619  0.1294
 1050YOPC   NC314411   4.966  13.188   5.212 -0.2655  0.1862 -0.3558
 1050YOPC   PO414412   5.215  13.396   5.428 -0.1124  0.0805  0.0534
 1050YOPC   GL114413   5.525  13.448   5.721  0.1765  0.1937  0.3030
 1050YOPC   GL214414   5.523  13.785   5.906 -0.3506  0.2973  0.0073
 1050YOPC   C1A14415   5.890  13.375   5.911 -0.0773 -0.3822  0.0281
 1050YOPC   D2A14416   6.000  13.493   6.384 -0.1388 -0.1400  0.4369
 1050YOPC   C3A14417   6.187  13.410   6.779 -0.2337  0.1645  0.0945
 1050YOPC   C4A14418   6.237  13.105   7.113  0.0154  0.2056  0.0490
 1050YOPC   C1B14419   5.652  13.825   6.342 -0.1072  0.0142  0.0851
 1050YOPC   C2B14420   5.688  13.798   6.800 -0.2477  0.2712 -0.0766
 1050YOPC   D3B14421   6.067  13.792   7.089 -0.2527  0.0411 -0.3511
 1050YOPC   C4B14422   6.297  13.537   7.292  0.2190  0.1486  0.2326
 1051YOPC   NC314423  15.653  14.877   5.492  0.0180 -0.2839 -0.4173
 1051YOPC   PO414424  15.441  14.954   5.973  0.2951 -0.0835 -0.3291
 1051YOPC   GL114425  15.545  14.870   6.402 -0.1188 -0.0834  0.0354
 1051YOPC   GL214426  15.453  14.516   6.578 -0.1133 -0.3535  0.2049
 1051YOPC   C1A14427  15.641  14.850   6.877  0.1316 -0.2816 -0.0006
 1051YOPC   D2A14428  15.721  14.766   7.203  0.1460  0.0582  0.1478
 1051YOPC   C3A14429  15.594  14.891   7.601  0.0372 -0.0016  0.1370
 1051YOPC   C4A14430  15.537  15.078   8.060 -0.1728 -0.0730 -0.0027
 1051YOPC   C1B14431  15.741  14.191   6.622 -0.3442  0.2492  0.0539
 1051YOPC   C2B14432  15.682  13.886   6.926  0.2627  0.0157  0.0533
 1051YOPC   D3B14433  15.712  13.855   7.385 -0.1675 -0.2609 -0.1611
 1051YOPC   C4B14434  15.466  13.890   7.777  0.1849 -0.0213  0.1450
 1052YOPC   NC314435  13.696  10.351   5.373 -0.0865  0.0284 -0.2662
 1052YOPC   PO414436  13.431  10.089   5.456  0.0163 -0.3495 -0.2667
 1052YOPC   GL114437  13.480  10.029   5.818 -0.3600  0.1290  0.2301
 1052YOPC   GL214438  13.780   9.957   6.041  0.1423  0.0305 -0.0322
 1052YOPC   C1A14439  13.275   9.814   6.102  0.1036  0.2433  0.1960
 1052YOPC   D2A14440  13.211   9.731   6.519 -0.0539 -0.2986  0.0764
 1052YOPC   C3A14441  13.150   9.883   6.915 -0.1203 -0.2281  0.0377
 1052YOPC   C4A14442  13.161   9.903   7.371  0.0074 -0.2069 -0.0347
 1052YOPC   C1B14443  13.759   9.902   6.487 -0.0310  0.1945 -0.1658
 1052YOPC   C2B14444  13.776   9.808   6.898 -0.0324 -0.1271  0.0679
 1052YOPC   D3B14445  14.008   9.941   7.160 -0.0097  0.0857 -0.1409
 1052YOPC   C4B14446  14.083   9.791   7.589 -0.0106  0.1039  0.2042
 1053YOPC   NC314447  13.194  18.072   6.262 -0.1100 -0.0802  0.0848
 1053YOPC   PO414448  13.164  17.675   6.202  0.0048 -0.1025 -0.0206
 1053YOPC   GL114449  13.076  17.523   6.560  0.0604 -0.1672 -0.1052
 1053YOPC   GL214450  13.243  17.418   6.773  0.2847 -0.3572  0.0503
 1053YOPC   C1A14451  12.766  17.683   6.806  0.5433  0.0579  0.1707
 1053YOPC   D2A14452  12.603  17.704   7.205  0.4034 -0.1271  0.4776
 1053YOPC   C3A14453  12.226  17.484   7.109  0.1110  0.0786  0.1689
 1053YOPC   C4A14454  12.000  17.334   6.757  0.1030 -0.1682  0.3141
 1053YOPC   C1B14455  13.461  17.441   7.064  0.2373 -0.3058  0.1449
 1053YOPC   C2B14456  13.542  17.383   7.463  0.1406  0.0163 -0.3356
 1053YOPC   D3B14457  13.352  17.299   7.768  0.5056  0.0158 -0.0437
 1053YOPC   C4B14458  13.149  16.935   8.029 -0.2586  0.0771  0.0524
 1054YOPC   NC314459  17.392  17.354   5.951 -0.3221 -0.0398 -0.1267
 1054YOPC   PO414460  17.794  17.069   5.788  0.0937 -0.1496  0.0230
 1054YOPC   GL114461  18.082  17.012   6.081  0.0380 -0.1989 -0.4420
 1054YOPC   GL214462  17.998  16.777   6.284  0.1275 -0.0949 -0.0590
 1054YOPC   C1A14463  18.210  17.187   6.455  0.0284  0.1862  0.2149
 1054YOPC   D2A14464  18.241  16.945   6.892  0.1086 -0.0666 -0.5640
 1054YOPC   C3A14465  18.230  16.878   7.315 -0.0220 -0.1744  0.1939
 1054YOPC   C4A14466  18.270  16.736   7.792  0.3012 -0.1034 -0.3501
 1054YOPC   C1B14467  17.829  16.747   6.590 -0.2451 -0.1135 -0.1599
 1054YOPC   C2B14468  17.932  16.544   6.919 -0.0642 -0.0824  0.0536
 1054YOPC   D3B14469  17.815  16.544   7.317 -0.0290 -0.0273  0.0378
 1054YOPC   C4B14470  17.686  16.629   7.777  0.1674  0.2136 -0.0826
 1055YOPC   NC314471   9.806   1.291   5.723  0.0237  0.0108  0.3507
 1055YOPC   PO414472   9.444   0.991   5.567 -0.3957  0.1424 -0.2168
 1055YOPC   GL114473   9.357   1.161   5.979  0.0565 -0.0735 -0.0076
 1055YOPC   GL214474   9.606   1.075   6.121  0.1570 -0.2385 -0.0221
 1055YOPC   C1A14475   9.332   1.280   6.470  0.0537  0.0865  0.0780
 1055YOPC   D2A14476   9.292   1.484   6.800  0.0010 -0.0381 -0.0707
 1055YOPC   C3A14477   9.312   1.450   7.263  0.2290  0.2459  0.2232
 1055YOPC   C4A14478   9.584   1.603   7.538 -0.1346  0.0739 -0.4817
 1055YOPC   C1B14479   9.718   0.977   6.500  0.1180 -0.1572  0.0172
 1055YOPC   C2B14480   9.606   1.007   7.018 -0.2907 -0.0813 -0.0579
 1055YOPC   D3B14481   9.753   1.126   7.432  0.0969  0.1247 -0.0961
 1055YOPC   C4B14482   9.406   1.147   7.744 -0.1038  0.0932 -0.2735
 1056YOPC   NC314483   5.730  10.907   5.656  0.0550 -0.3466 -0.1963
 1056YOPC   PO414484   5.693  11.411   5.583 -0.1096 -0.1392 -0.0312
 1056YOPC   GL114485   5.764  11.759   5.848  0.1477 -0.2638 -0.0463
 1056YOPC   GL214486   5.707  12.151   5.841  0.0775 -0.0628 -0.3884
 1056YOPC   C1A14487   5.852  11.837   6.267  0.2968 -0.2116 -0.0632
 1056YOPC   D2A14488   5.932  11.503   6.557 -0.3133  0.1300 -0.3637
 1056YOPC   C3A14489   6.171  11.752   6.924  0.1265 -0.0319 -0.0036
 1056YOPC   C4A14490   6.033  11.945   7.160 -0.1955 -0.1972  0.0101
 1056YOPC   C1B14491   5.473  12.525   5.961 -0.0974  0.1693  0.2044
 1056YOPC   C2B14492   5.281  12.695   6.350 -0.1800  0.1173 -0.0224
 1056YOPC   D3B14493   5.593  12.707   6.648  0.3582  0.0288 -0.2980
 1056YOPC   C4B14494   5.936  12.610   6.845 -0.1127  0.0594  0.0646
 1057YOPC   NC314495   7.957  18.610   5.365  0.1618 -0.0099 -0.4309
 1057YOPC   PO414496   7.858  18.185   5.547 -0.1122 -0.1312 -0.0945
 1057YOPC   GL114497   7.790  18.076   5.940 -0.0330  0.1157  0.1938
 1057YOPC   GL214498   8.041  18.046   6.172  0.0143 -0.0128  0.1160
 1057YOPC   C1A14499   7.677  18.311   6.352  0.2104 -0.0975  0.1270
 1057YOPC   D2A14500   7.728  18.621   6.512  0.2956 -0.2485 -0.1184
 1057YOPC   C3A14501   7.645  18.482   7.006  0.0279 -0.2000  0.0569
 1057YOPC   C4A14502   7.577  18.477   7.467 -0.1734  0.0083  0.0667
 1057YOPC   C1B14503   8.152  17.678   6.467  0.2335  0.1876  0.2652
 1057YOPC   C2B14504   8.160  17.677   6.959 -0.0895 -0.3029  0.1371
 1057YOPC   D3B14505   7.999  17.400   7.250 -0.1211  0.1042  0.2408
 1057YOPC   C4B14506   7.735  17.134   7.471 -0.0386  0.1388 -0.1226
 1058YOPC   NC314507  17.762   7.782   5.740  0.0529 -0.2222  0.1354
 1058YOPC   PO414508  17.980   8.162   5.826  0.0097  0.1585  0.0165
 1058YOPC   GL114509  17.784   7.967   6.232 -0.0169  0.1319  0.1507
 1058YOPC   GL214510  17.537   7.793   6.194 -0.3794  0.0761  0.1903
 1058YOPC   C1A14511  17.921   7.806   6.554  0.0043  0.0770  0.1943
 1058YOPC   D2A14512  18.273   7.561   6.817 -0.3562 -0.0641  0.1173
 1058YOPC   C3A14513  18.177   7.265   7.090 -0.0337  0.3831 -0.3538
 1058YOPC   C4A14514  18.379   7.018   7.474  0.1593  0.0552  0.0281
 1058YOPC   C1B14515  17.355   7.896   6.526  0.0890 -0.3478  0.0538
 1058YOPC   C2B14516  17.252   7.821   6.899 -0.0191 -0.1651 -0.0837
 1058YOPC   D3B14517  17.403   7.717   7.375  0.0883 -0.0714  0.3393
 1058YOPC   C4B14518  17.334   7.400   7.603  0.0384 -0.1565 -0.2241
 1059YOPC   NC314519  16.408   0.960   5.650 -0.0354 -0.0146  0.0444
 1059YOPC   PO414520  16.616   0.621   5.720  0.2161  0.0770 -0.4109
 1059YOPC   GL114521  16.622   0.552   6.194  0.3004  0.2042  0.2351
 1059YOPC   GL214522  16.890   0.687   6.138  0.0954  0.1131 -0.0491
 1059YOPC   C1A14523  16.465   0.416   6.538 -0.0668 -0.1228 -0.3849
 1059YOPC   D2A14524  16.164   0.664   6.808  0.1404  0.1819 -0.0289
 1059YOPC   C3A14525  16.165   0.949   7.075  0.0710 -0.3768 -0.0194
 1059YOPC   C4A14526  16.437   0.884   7.390  0.1502 -0.2055  0.2304
 1059YOPC   C1B14527  17.036   1.155   6.185 -0.3418 -0.2322 -0.2964
 1059YOPC   C2B14528  17.176   1.439   6.478  0.4413  0.0920 -0.1685
 1059YOPC   D3B14529  17.530   1.689   6.533 -0.4157  0.0379  0.0104
 1059YOPC   C4B14530  17.636   2.068   6.650 -0.1190  0.1144  0.3558
 1060YOPC   NC314531   5.448   8.592   5.805 -0.3152 -0.0530  0.2529
 1060YOPC   PO414532   4.935   8.436   5.752  0.1412  0.1658  0.2516
 1060YOPC   GL114533   4.823   8.350   6.134  0.2740 -0.3765 -0.0780
 1060YOPC   GL214534   4.751   8.043   6.096 -0.1094  0.5815 -0.1345
 1060YOPC   C1A14535   4.452   8.435   6.417 -0.1499 -0.1301 -0.1227
 1060YOPC   D2A14536   4.440   8.866   6.646  0.0075 -0.0072 -0.2917
 1060YOPC   C3A14537   4.466   8.976   7.067 -0.1476 -0.2032 -0.1171
 1060YOPC   C4A14538   4.272   9.074   7.437 -0.1451 -0.0774 -0.3429
 1060YOPC   C1B14539   4.497   7.916   6.438 -0.2761  0.0697 -0.2792
 1060YOPC   C2B14540   4.423   7.973   6.786  0.1653  0.1688  0.1004
 1060YOPC   D3B14541   4.374   8.402   6.921  0.0822 -0.2846 -0.2301
 1060YOPC   C4B14542   4.163   8.604   7.221 -0.1309 -0.0877 -0.4597
 1061YOPC   NC314543   7.674   7.060   5.701 -0.1931 -0.0825  0.1583
 1061YOPC   PO414544   7.524   7.519   5.603  0.1321 -0.1996  0.1546
 1061YOPC   GL114545   7.878   7.432   5.931  0.2842  0.0586  0.1888
 1061YOPC   GL214546   8.213   7.173   6.071  0.0083  0.2011 -0.1138
 1061YOPC   C1A14547   8.105   7.679   6.282  0.0606  0.1702  0.2612
 1061YOPC   D2A14548   7.897   7.741   6.644  0.0557  0.2148  0.0081
 1061YOPC   C3A14549   8.044   8.000   6.947 -0.1697 -0.0289 -0.1628
 1061YOPC   C4A14550   7.685   8.130   7.288 -0.1981  0.0361  0.1077
 1061YOPC   C1B14551   7.968   7.247   6.436 -0.0685 -0.2669 -0.2533
 1061YOPC   C2B14552   7.904   7.284   6.840  0.3779 -0.1780  0.2363
 1061YOPC   D3B14553   8.029   7.535   7.120 -0.3282  0.1575  0.2242
 1061YOPC   C4B14554   8.056   7.767   7.411 -0.0364 -0.3460 -0.0118
 1062YOPC   NC314555   2.453   9.525   5.417 -0.2094 -0.0511  0.3519
 1062YOPC   PO414556   2.644   9.929   5.629  0.1763  0.2274 -0.0252
 1062YOPC   GL114557   3.051  10.039   5.962 -0.0120  0.2262 -0.0195
 1062YOPC   GL214558   3.158   9.751   6.060 -0.0425  0.0860 -0.0890
 1062YOPC   C1A14559   3.240  10.464   6.039 -0.0670  0.1272 -0.1270
 1062YOPC   D2A14560   3.449  10.780   6.221 -0.0236  0.0273 -0.1875
 1062YOPC   C3A14561   3.900  10.958   6.190 -0.1157  0.0652  0.3545
 1062YOPC   C4A14562   4.295  10.714   6.299  0.3030 -0.0981 -0.1525
 1062YOPC   C1B14563   2.782   9.886   6.356 -0.1541  0.4930  0.1182
 1062YOPC   C2B14564   2.377   9.603   6.391 -0.0865 -0.0348  0.0502
 1062YOPC   D3B14565   2.404   9.355   6.555  0.1689  0.0493 -0.1276
 1062YOPC   C4B14566   2.431   9.229   6.888  0.0583 -0.0588  0.2209
 1063YOPC   NC314567   0.909   7.050   4.942  0.1706  0.1667  0.3410
 1063YOPC   PO414568   1.168   6.773   5.071 -0.1460 -0.2078  0.0904
 1063YOPC   GL114569   1.101   6.880   5.521 -0.0007 -0.0642 -0.2375
 1063YOPC   GL214570   1.223   7.197   5.590  0.0492  0.1110 -0.1596
 1063YOPC   C1A14571   1.130   6.601   5.881  0.3834 -0.1649 -0.0550
 1063YOPC   D2A14572   1.499   6.537   6.107  0.0216  0.0807 -0.4416
 1063YOPC   C3A14573   1.573   6.340   6.505 -0.0209  0.1108  0.0526
 1063YOPC   C4A14574   1.712   6.135   6.931 -0.1209 -0.1132 -0.3802
 1063YOPC   C1B14575   1.296   7.375   6.022  0.0607  0.2305  0.0009
 1063YOPC   C2B14576   1.637   7.552   6.334 -0.1669  0.3426  0.0605
 1063YOPC   D3B14577   1.824   7.400   6.736 -0.2279  0.1092  0.0224
 1063YOPC   C4B14578   2.029   7.193   7.120 -0.0488  0.1067  0.2822
 1064YOPC   NC314579  17.159   8.886   5.576  0.2340  0.1931  0.0301
 1064YOPC   PO414580  17.496   9.209   5.720 -0.1366  0.2028  0.3997
 1064YOPC   GL114581  17.705   9.402   5.988 -0.1311 -0.0550  0.2125
 1064YOPC   GL214582  17.923   9.542   5.806 -0.3383  0.1295  0.0495
 1064YOPC   C1A14583  17.498   9.437   6.375  0.0559 -0.2433 -0.0783
 1064YOPC   D2A14584  17.488   9.384   6.797  0.1847  0.1133 -0.0960
 1064YOPC   C3A14585  17.678   9.457   7.182 -0.4512 -0.0162  0.2097
 1064YOPC   C4A14586  17.849   9.471   7.517 -0.0528  0.2054  0.0665
 1064YOPC   C1B14587  17.975   9.735   6.206 -0.0647 -0.0223  0.1951
 1064YOPC   C2B14588  17.825   9.745   6.660 -0.2067 -0.3806  0.1609
 1064YOPC   D3B14589  17.855   9.924   7.090  0.1870  0.2633 -0.1172
 1064YOPC   C4B14590  17.982   9.978   7.538 -0.0678 -0.4214 -0.0592
 1065YOPC   NC314591  12.638   9.999   5.187 -0.4348 -0.0952  0.0621
 1065YOPC   PO414592  12.862  10.297   5.331  0.0696  0.3338  0.0218
 1065YOPC   GL114593  12.791  10.480   5.736 -0.0093  0.2336 -0.2128
 1065YOPC   GL214594  12.533  10.297   5.836  0.0360 -0.0087  0.1156
 1065YOPC   C1A14595  12.929  10.643   6.171  0.1666 -0.0755  0.2063
 1065YOPC   D2A14596  13.231  10.820   6.372 -0.1168  0.1195 -0.3187
 1065YOPC   C3A14597  13.301  10.809   6.780 -0.2237  0.0851  0.0755
 1065YOPC   C4A14598  12.965  10.865   7.027  0.1922 -0.0192  0.1131
 1065YOPC   C1B14599  12.481  10.401   6.186 -0.0562  0.1697  0.0785
 1065YOPC   C2B14600  12.478  10.051   6.457  0.0429 -0.3269  0.0627
 1065YOPC   D3B14601  12.483   9.960   6.882 -0.0322  0.2476  0.3032
 1065YOPC   C4B14602  12.686  10.047   7.342  0.0315 -0.0397  0.1362
 1066YOPC   NC314603  16.097   4.266   5.334 -0.0289 -0.1138 -0.0219
 1066YOPC   PO414604  16.226   4.109   5.764  0.5772 -0.0005  0.2845
 1066YOPC   GL114605  16.452   3.821   6.095 -0.1326  0.0877 -0.1844
 1066YOPC   GL214606  16.760   3.684   6.108  0.1816  0.2226  0.0072
 1066YOPC   C1A14607  16.515   3.812   6.553 -0.0802  0.1404  0.0265
 1066YOPC   D2A14608  16.594   4.016   6.878  0.2847  0.0539 -0.2247
 1066YOPC   C3A14609  16.346   4.309   7.121 -0.0319  0.1615 -0.0244
 1066YOPC   C4A14610  15.991   4.569   7.139  0.1143 -0.0281 -0.2061
 1066YOPC   C1B14611  17.052   3.553   6.407 -0.0536  0.0886  0.3490
 1066YOPC   C2B14612  17.370   3.215   6.420 -0.1866 -0.1752  0.2675
 1066YOPC   D3B14613  17.585   3.016   6.768 -0.0671 -0.0846 -0.1643
 1066YOPC   C4B14614  17.877   2.784   7.021 -0.1189  0.1977  0.0462
 1067YOPC   NC314615  16.955  10.965   4.506 -0.0822  0.1391  0.1898
 1067YOPC   PO414616  16.885  11.155   5.051  0.1155  0.1837  0.0019
 1067YOPC   GL114617  16.786  11.195   5.429  0.1548  0.1984 -0.0227
 1067YOPC   GL214618  16.987  11.406   5.671  0.0718 -0.1200 -0.4070
 1067YOPC   C1A14619  16.518  11.096   5.898 -0.1098 -0.2134 -0.0655
 1067YOPC   D2A14620  16.381  11.175   6.260  0.3360  0.1060  0.0490
 1067YOPC   C3A14621  16.667  11.142   6.555 -0.2585  0.0669 -0.3051
 1067YOPC   C4A14622  16.810  11.148   6.993  0.0024  0.0445 -0.1255
 1067YOPC   C1B14623  16.745  11.510   6.112 -0.1584  0.5181 -0.2965
 1067YOPC   C2B14624  16.878  11.635   6.478  0.0401 -0.0813 -0.1523
 1067YOPC   D3B14625  16.600  11.599   6.833 -0.1920  0.0079 -0.0167
 1067YOPC   C4B14626  16.389  11.435   7.193 -0.1137 -0.1673 -0.1949
 1068YOPC   NC314627  12.626  14.468   5.684  0.2648 -0.0054 -0.3792
 1068YOPC   PO414628  12.938  14.597   5.882  0.1797 -0.0762 -0.4464
 1068YOPC   GL114629  12.664  14.572   6.229 -0.0674 -0.0132  0.0276
 1068YOPC   GL214630  12.721  14.217   6.172 -0.1657  0.1466 -0.1572
 1068YOPC   C1A14631  12.640  14.451   6.667 -0.1009  0.0655 -0.1526
 1068YOPC   D2A14632  12.804  14.322   6.984 -0.4479 -0.1021  0.0532
 1068YOPC   C3A14633  12.837  14.398   7.431  0.0000 -0.2087 -0.1454
 1068YOPC   C4A14634  12.713  14.683   7.762  0.0292 -0.0142 -0.1539
 1068YOPC   C1B14635  13.018  14.148   6.396  0.1364  0.0288  0.4230
 1068YOPC   C2B14636  13.191  14.036   6.799 -0.0037  0.2273  0.3219
 1068YOPC   D3B14637  13.267  14.401   7.144  0.0442  0.0899  0.0142
 1068YOPC   C4B14638  13.384  14.444   7.511 -0.1047  0.0886  0.0559
 1069YOPC   NC314639  12.157  12.696   5.262 -0.0575  0.3772  0.0011
 1069YOPC   PO414640  12.296  12.308   5.426 -0.0477  0.1050  0.1597
 1069YOPC   GL114641  12.289  12.283   5.887 -0.0491  0.2523  0.2719
 1069YOPC   GL214642  12.201  11.956   5.833 -0.0485  0.1000 -0.1633
 1069YOPC   C1A14643  12.054  12.166   6.257 -0.1062 -0.0512  0.1961
 1069YOPC   D2A14644  11.763  12.046   6.636  0.0097 -0.4222  0.0019
 1069YOPC   C3A14645  11.745  12.082   7.115 -0.1165 -0.2367 -0.0253
 1069YOPC   C4A14646  11.665  11.995   7.501 -0.2697  0.0941 -0.2946
 1069YOPC   C1B14647  12.442  11.786   6.196  0.1886  0.3845  0.1592
 1069YOPC   C2B14648  12.418  11.995   6.601 -0.2385 -0.1031 -0.5825
 1069YOPC   D3B14649  12.134  11.824   6.868 -0.1251  0.1727 -0.3784
 1069YOPC   C4B14650  11.719  11.670   6.955 -0.2569  0.1908 -0.0540
 1070YOPC   NC314651  14.239   3.100   5.867 -0.1750  0.2649 -0.0630
 1070YOPC   PO414652  14.014   2.739   6.002  0.2005  0.0496  0.1551
 1070YOPC   GL114653  13.953   3.030   6.396  0.1784 -0.0495 -0.1026
 1070YOPC   GL214654  13.806   3.287   6.353 -0.1247 -0.2087 -0.0637
 1070YOPC   C1A14655  13.950   3.228   6.831 -0.0174 -0.0348  0.1082
 1070YOPC   D2A14656  14.172   3.446   7.180 -0.1371  0.0855  0.1311
 1070YOPC   C3A14657  14.656   3.476   7.186  0.1167 -0.1125 -0.1055
 1070YOPC   C4A14658  15.094   3.568   7.455 -0.1610  0.1038  0.0823
 1070YOPC   C1B14659  13.673   3.595   6.727 -0.2374 -0.0181  0.2400
 1070YOPC   C2B14660  13.715   3.853   7.078  0.0104  0.2050  0.0687
 1070YOPC   D3B14661  13.621   3.902   7.435 -0.1980  0.0334  0.2438
 1070YOPC   C4B14662  13.434   3.831   7.748  0.2374 -0.0998 -0.1122
 1071YOPC   NC314663   9.659   5.143   5.418  0.1325  0.0943 -0.1565
 1071YOPC   PO414664   9.833   5.180   5.824  0.0033 -0.0521 -0.0752
 1071YOPC   GL114665   9.773   5.513   6.096 -0.0620  0.0212 -0.0774
 1071YOPC   GL214666  10.051   5.744   6.108 -0.0584  0.5458 -0.0202
 1071YOPC   C1A14667   9.655   5.589   6.440 -0.0307 -0.0619 -0.1892
 1071YOPC   D2A14668   9.665   5.692   6.895  0.3193 -0.1454 -0.0628
 1071YOPC   C3A14669   9.539   5.524   7.255 -0.2482  0.2524 -0.0692
 1071YOPC   C4A14670   9.650   5.180   7.509 -0.2297  0.3286 -0.0343
 1071YOPC   C1B14671  10.057   5.753   6.581 -0.2898  0.3394 -0.1528
 1071YOPC   C2B14672  10.049   6.128   6.824  0.0442 -0.0762  0.0365
 1071YOPC   D3B14673   9.891   5.959   7.290  0.0541  0.2571 -0.1409
 1071YOPC   C4B14674   9.735   5.839   7.720 -0.0497  0.1382 -0.0653
 1072YOPC   NC314675   4.786  12.227   4.987 -0.3809 -0.2594  0.0253
 1072YOPC   PO414676   5.099  12.022   5.388  0.0072  0.0476 -0.0295
 1072YOPC   GL114677   5.212  12.036   5.732 -0.1608 -0.1566 -0.1211
 1072YOPC   GL214678   5.274  11.677   5.757  0.0434  0.0659 -0.1757
 1072YOPC   C1A14679   5.345  12.075   6.147  0.0830  0.3187 -0.1266
 1072YOPC   D2A14680   5.278  12.253   6.518  0.1818 -0.2105  0.3365
 1072YOPC   C3A14681   5.455  12.356   6.990 -0.4072  0.2090 -0.0966
 1072YOPC   C4A14682   5.681  12.192   7.376  0.1820  0.0258  0.0807
 1072YOPC   C1B14683   5.354  11.576   6.081  0.1661  0.2032  0.0718
 1072YOPC   C2B14684   5.367  11.710   6.496 -0.3478  0.1506  0.0170
 1072YOPC   D3B14685   5.122  11.856   6.829 -0.0489  0.0801 -0.0992
 1072YOPC   C4B14686   5.121  11.940   7.326 -0.2147  0.2850 -0.1987
 1073YOPC   NC314687   7.914  12.374   5.584  0.0382 -0.1017  0.0524
 1073YOPC   PO414688   8.194  11.994   5.693 -0.2356  0.3285  0.0778
 1073YOPC   GL114689   7.991  12.163   6.064 -0.2628 -0.0710  0.1101
 1073YOPC   GL214690   7.954  11.862   6.146 -0.2419  0.0527  0.3016
 1073YOPC   C1A14691   7.479  12.180   6.086  0.1079  0.2494  0.2348
 1073YOPC   D2A14692   7.031  12.211   6.145 -0.2387  0.1490  0.0223
 1073YOPC   C3A14693   6.827  11.990   6.285 -0.0308  0.0342 -0.0499
 1073YOPC   C4A14694   6.690  11.775   6.676  0.4075 -0.2703 -0.0966
 1073YOPC   C1B14695   7.674  12.102   6.555  0.0183  0.2384  0.2922
 1073YOPC   C2B14696   7.493  12.333   6.897 -0.0449 -0.1539 -0.0924
 1073YOPC   D3B14697   7.207  12.552   7.097 -0.0354 -0.0144  0.3846
 1073YOPC   C4B14698   6.933  12.577   7.122 -0.1005 -0.0203 -0.0723
 1074YOPC   NC314699   2.582  18.017   5.293 -0.2299 -0.1089  0.1102
 1074YOPC   PO414700   2.914  18.221   5.401  0.3410 -0.1137  0.1066
 1074YOPC   GL114701   2.632  18.604   5.650  0.1360  0.0233  0.0318
 1074YOPC   GL214702   2.704  18.884   5.580 -0.1906  0.0102 -0.2416
 1074YOPC   C1A14703   2.392  18.793   6.001  0.0844 -0.1808 -0.2038
 1074YOPC   D2A14704   2.192  18.747   6.399 -0.0808 -0.2980  0.0041
 1074YOPC   C3A14705   2.199  19.203   6.585 -0.3296 -0.3113  0.0720
 1074YOPC   C4A14706   1.914  19.322   6.947  0.1219  0.0546 -0.0078
 1074YOPC   C1B14707   2.904  18.984   5.878  0.0553  0.2216  0.1310
 1074YOPC   C2B14708   3.254  18.915   6.148  0.0261  0.1911 -0.0913
 1074YOPC   D3B14709   3.480  19.153   6.262 -0.2144 -0.0942  0.0829
 1074YOPC   C4B14710   3.522  19.319   6.754  0.2055  0.1077 -0.3756
 1075YOPC   NC314711   9.730  11.281   5.704 -0.0844 -0.1956  0.4091
 1075YOPC   PO414712   9.879  10.987   5.903 -0.1107 -0.0019 -0.1776
 1075YOPC   GL114713   9.759  10.865   6.251  0.0244 -0.0249  0.0186
 1075YOPC   GL214714  10.052  10.673   6.380  0.0356 -0.1682 -0.1502
 1075YOPC   C1A14715   9.603  10.865   6.611  0.2680  0.0579 -0.4089
 1075YOPC   D2A14716   9.990  10.732   6.849  0.4387 -0.1732  0.1037
 1075YOPC   C3A14717  10.122  11.012   7.132  0.2330  0.1832 -0.0990
 1075YOPC   C4A14718  10.175  11.240   7.482  0.0098  0.1386  0.0595
 1075YOPC   C1B14719  10.376  11.026   6.565 -0.0041  0.2199 -0.0761
 1075YOPC   C2B14720  10.557  11.177   6.970 -0.2456  0.0072 -0.3950
 1075YOPC   D3B14721  10.391  11.570   7.157  0.1909  0.1135 -0.2194
 1075YOPC   C4B14722  10.409  11.868   7.414  0.0216  0.1675  0.1534
 1076YOPC   NC314723  11.364  13.382   5.211 -0.5483 -0.2835  0.0101
 1076YOPC   PO414724  11.775  13.431   5.355  0.0804 -0.2012  0.1182
 1076YOPC   GL114725  11.679  13.347   5.843  0.1089  0.2243  0.0618
 1076YOPC   GL214726  11.655  13.589   6.014  0.0517 -0.1358  0.2751
 1076YOPC   C1A14727  11.487  13.163   6.284  0.1365 -0.0647  0.1708
 1076YOPC   D2A14728  11.426  12.910   6.656  0.0619  0.0631 -0.0460
 1076YOPC   C3A14729  11.614  13.057   7.035  0.2442 -0.0745  0.0442
 1076YOPC   C4A14730  11.677  13.484   7.260 -0.1518 -0.0517 -0.1115
 1076YOPC   C1B14731  11.604  13.682   6.470  0.0492 -0.1091  0.0948
 1076YOPC   C2B14732  11.448  13.976   6.756 -0.0458 -0.0106 -0.0716
 1076YOPC   D3B14733  11.212  13.848   7.114  0.0023 -0.0380 -0.1104
 1076YOPC   C4B14734  11.146  13.969   7.519 -0.0256 -0.1853 -0.3622
 1077YOPC   NC314735   4.413   2.697   5.479 -0.0109  0.1379  0.2323
 1077YOPC   PO414736   4.131   2.976   5.662 -0.3929  0.1028  0.1092
 1077YOPC   GL114737   3.820   2.903   5.931 -0.0835 -0.1316  0.2552
 1077YOPC   GL214738   3.788   2.684   6.016  0.0335 -0.1891 -0.1938
 1077YOPC   C1A14739   3.684   3.137   6.270  0.2874  0.1553 -0.0819
 1077YOPC   D2A14740   3.786   3.112   6.699  0.1797  0.0880 -0.5176
 1077YOPC   C3A14741   3.819   3.260   7.012  0.1796 -0.0010  0.2388
 1077YOPC   C4A14742   3.470   3.500   7.086 -0.1482 -0.1318  0.0309
 1077YOPC   C1B14743   4.058   2.574   6.345  0.0530  0.1384 -0.0358
 1077YOPC   C2B14744   4.066   2.362   6.623  0.0708  0.0004 -0.0974
 1077YOPC   D3B14745   4.237   2.356   7.087  0.0532  0.2135 -0.0853
 1077YOPC   C4B14746   4.097   2.182   7.468  0.2601  0.0104  0.0774
 1078YOPC   NC314747   5.695   7.744   5.767  0.0675  0.0150 -0.0311
 1078YOPC   PO414748   5.459   8.126   5.673 -0.1371 -0.0517  0.3137
 1078YOPC   GL114749   5.658   8.160   6.048  0.5111  0.0508  0.0555
 1078YOPC   GL214750   5.389   8.430   6.267  0.2921  0.0632  0.0929
 1078YOPC   C1A14751   5.701   7.974   6.442 -0.1008  0.0572 -0.1314
 1078YOPC   D2A14752   5.720   8.080   6.821  0.3110  0.2993 -0.2126
 1078YOPC   C3A14753   5.869   8.417   6.974 -0.0837  0.1234  0.2655
 1078YOPC   C4A14754   5.635   8.782   7.036  0.0044 -0.2666 -0.4436
 1078YOPC   C1B14755   5.237   8.123   6.428 -0.3199  0.0371 -0.4513
 1078YOPC   C2B14756   4.817   8.242   6.708 -0.2602  0.0357 -0.2976
 1078YOPC   D3B14757   4.815   8.367   7.089  0.2147 -0.0210  0.1199
 1078YOPC   C4B14758   4.589   8.593   7.398  0.2247 -0.1024 -0.1407
 1079YOPC   NC314759   7.149   7.719   5.429 -0.2106  0.0569 -0.1934
 1079YOPC   PO414760   6.952   8.083   5.543 -0.1714  0.0060 -0.1599
 1079YOPC   GL114761   6.797   8.082   5.961 -0.3163 -0.0198  0.1559
 1079YOPC   GL214762   6.646   7.804   5.929  0.0507 -0.0850 -0.4604
 1079YOPC   C1A14763   6.745   8.070   6.429 -0.3191 -0.2187 -0.0999
 1079YOPC   D2A14764   6.692   8.206   6.818 -0.0187 -0.2351 -0.3740
 1079YOPC   C3A14765   6.747   7.967   7.061  0.0825 -0.0746  0.2035
 1079YOPC   C4A14766   6.729   7.794   7.523 -0.0923  0.0957 -0.0178
 1079YOPC   C1B14767   6.532   7.669   6.390  0.3245  0.0872 -0.0529
 1079YOPC   C2B14768   6.461   7.709   6.785 -0.0510 -0.0525 -0.0174
 1079YOPC   D3B14769   6.223   7.287   6.909 -0.0285 -0.4599 -0.1198
 1079YOPC   C4B14770   6.217   6.945   6.726  0.3591 -0.0781  0.4761
 1080YOPC   NC314771   0.743  16.870   5.533  0.2629 -0.1419 -0.1366
 1080YOPC   PO414772   0.345  16.631   5.482  0.0039 -0.1710 -0.0338
 1080YOPC   GL114773   0.394  16.803   5.900 -0.2684  0.3128 -0.3123
 1080YOPC   GL214774   0.579  17.086   5.946  0.0428 -0.0867 -0.1223
 1080YOPC   C1A14775   0.388  16.778   6.267 -0.2648 -0.0374  0.1535
 1080YOPC   D2A14776   0.307  16.687   6.679 -0.0225  0.2661 -0.1254
 1080YOPC   C3A14777   0.043  16.859   6.992  0.0845 -0.1948 -0.2370
 1080YOPC   C4A14778  -0.028  16.743   7.375 -0.1563  0.2106  0.0265
 1080YOPC   C1B14779   0.836  17.054   6.303  0.1607 -0.2003  0.2103
 1080YOPC   C2B14780   0.872  16.876   6.817  0.0262  0.1883 -0.0016
 1080YOPC   D3B14781   0.618  16.787   7.111  0.1608 -0.0037 -0.4695
 1080YOPC   C4B14782   0.482  16.616   7.448 -0.0052  0.0019 -0.0417
 1081YOPC   NC314783   5.009   6.250   5.361  0.2308 -0.3106 -0.3156
 1081YOPC   PO414784   4.599   6.178   5.533  0.1355  0.1729 -0.0661
 1081YOPC   GL114785   4.443   6.359   6.036  0.0464 -0.0229  0.0943
 1081YOPC   GL214786   4.516   6.190   6.355  0.0503 -0.0451 -0.0402
 1081YOPC   C1A14787   4.073   6.583   6.299 -0.0741  0.0481 -0.5366
 1081YOPC   D2A14788   3.916   6.652   6.683  0.0429 -0.1997  0.2322
 1081YOPC   C3A14789   4.247   6.851   7.046 -0.1616 -0.1649 -0.2846
 1081YOPC   C4A14790   4.646   6.909   7.097  0.0478  0.0073 -0.1876
 1081YOPC   C1B14791   4.852   6.155   6.580  0.3025  0.1490 -0.0055
 1081YOPC   C2B14792   5.160   5.950   6.595  0.1244  0.2443  0.0025
 1081YOPC   D3B14793   5.570   6.168   6.773  0.3298 -0.0980  0.1550
 1081YOPC   C4B14794   5.834   5.996   7.112  0.0753  0.0596 -0.2282
 1082YOPC   NC314795  12.777  12.162   5.226  0.2675  0.1534  0.1770
 1082YOPC   PO414796  12.666  11.743   5.377 -0.4731 -0.3265 -0.2024
 1082YOPC   GL114797  12.688  11.949   5.734 -0.0186 -0.2487 -0.0808
 1082YOPC   GL214798  12.720  12.216   5.701 -0.4647 -0.1804  0.1182
 1082YOPC   C1A14799  12.800  12.066   6.138 -0.5152  0.3945 -0.0960
 1082YOPC   D2A14800  12.922  11.836   6.595  0.0175  0.1553  0.2118
 1082YOPC   C3A14801  13.096  12.067   6.972 -0.0592 -0.0364  0.0689
 1082YOPC   C4A14802  12.958  12.471   7.156  0.1909 -0.1995 -0.0117
 1082YOPC   C1B14803  12.861  12.552   6.048  0.0908 -0.2120 -0.0910
 1082YOPC   C2B14804  12.817  12.807   6.426 -0.2505 -0.1649  0.0325
 1082YOPC   D3B14805  12.768  12.829   6.744  0.0490  0.1081 -0.0164
 1082YOPC   C4B14806  12.478  12.838   7.114 -0.0003  0.0045 -0.0137
 1083YOPC   NC314807   3.780  14.311   5.284 -0.1164  0.2982  0.2484
 1083YOPC   PO414808   3.458  13.983   5.431  0.1235 -0.1876  0.0513
 1083YOPC   GL114809   3.333  13.994   5.847 -0.0279  0.0381 -0.1027
 1083YOPC   GL214810   3.253  13.716   5.937  0.1422 -0.0958 -0.0176
 1083YOPC   C1A14811   3.190  14.373   6.007  0.3620 -0.3354  0.0591
 1083YOPC   D2A14812   3.297  14.483   6.457  0.1162 -0.1836 -0.1808
 1083YOPC   C3A14813   3.140  14.144   6.804  0.4080  0.1676 -0.2767
 1083YOPC   C4A14814   2.920  14.296   7.155  0.3522  0.0713  0.1935
 1083YOPC   C1B14815   3.409  13.373   6.174  0.1220 -0.2156 -0.1335
 1083YOPC   C2B14816   3.503  13.365   6.588  0.0068 -0.1316  0.0157
 1083YOPC   D3B14817   3.404  13.727   7.022  0.0219 -0.2563  0.1303
 1083YOPC   C4B14818   3.374  13.597   7.398 -0.1131  0.0887 -0.2267
 1084YOPC   NC314819  12.248   4.833   5.021 -0.2297 -0.2401 -0.0247
 1084YOPC   PO414820  12.271   4.959   5.552  0.0936 -0.1772 -0.0164
 1084YOPC   GL114821  12.553   5.137   5.953  0.2994  0.3157 -0.3154
 1084YOPC   GL214822  12.555   5.465   6.044  0.0589  0.1404 -0.1926
 1084YOPC   C1A14823  12.350   5.182   6.399 -0.3077 -0.1556 -0.2081
 1084YOPC   D2A14824  12.029   4.919   6.756  0.0365  0.0286  0.0897
 1084YOPC   C3A14825  11.899   5.101   7.111  0.1094  0.2977  0.0156
 1084YOPC   C4A14826  11.971   5.036   7.507 -0.1313  0.2641 -0.3967
 1084YOPC   C1B14827  12.587   5.685   6.408 -0.5205 -0.3460  0.0026
 1084YOPC   C2B14828  12.627   5.761   6.803 -0.1030 -0.0665 -0.1717
 1084YOPC   D3B14829  12.243   5.829   7.091 -0.0346  0.1472 -0.1775
 1084YOPC   C4B14830  12.048   6.108   7.312 -0.1351 -0.0246  0.1165
 1085YOPC   NC314831   3.242   4.010   4.915 -0.5027 -0.1187  0.1991
 1085YOPC   PO414832   3.262   4.039   5.364 -0.0201  0.0438 -0.0246
 1085YOPC   GL114833   3.313   4.148   5.773 -0.0876 -0.1403 -0.0719
 1085YOPC   GL214834   3.159   4.292   5.952 -0.0509  0.2076 -0.1431
 1085YOPC   C1A14835   3.558   4.093   6.175 -0.0072 -0.1859  0.4709
 1085YOPC   D2A14836   3.834   3.973   6.474  0.3114 -0.0750 -0.2561
 1085YOPC   C3A14837   3.750   3.863   6.995 -0.2827 -0.1579 -0.2428
 1085YOPC   C4A14838   3.502   3.869   7.427 -0.4073 -0.1709  0.0451
 1085YOPC   C1B14839   3.205   4.357   6.391 -0.0236  0.0131  0.4828
 1085YOPC   C2B14840   3.425   4.145   6.704  0.1709  0.0460 -0.1790
 1085YOPC   D3B14841   3.195   3.850   6.932  0.0427  0.0968  0.1838
 1085YOPC   C4B14842   2.793   3.751   6.864  0.2299  0.0554 -0.0378
 1086YOPC   NC314843   1.863  15.228   5.397  0.1095  0.1238 -0.3254
 1086YOPC   PO414844   2.022  15.591   5.472 -0.1953  0.0571  0.1076
 1086YOPC   GL114845   2.110  15.733   5.916 -0.1083 -0.0509 -0.4268
 1086YOPC   GL214846   1.789  15.979   6.054 -0.3722  0.4666  0.2108
 1086YOPC   C1A14847   2.224  15.854   6.368 -0.0630 -0.0454 -0.0620
 1086YOPC   D2A14848   2.232  16.001   6.698  0.0619 -0.4071 -0.2844
 1086YOPC   C3A14849   2.522  15.929   7.047  0.2498 -0.0029 -0.0932
 1086YOPC   C4A14850   2.433  15.495   7.169 -0.1669 -0.1533 -0.3202
 1086YOPC   C1B14851   1.767  16.098   6.491  0.1323 -0.1840  0.1706
 1086YOPC   C2B14852   1.738  16.392   6.844 -0.1170  0.2529 -0.3215
 1086YOPC   D3B14853   1.672  16.794   6.689  0.3548 -0.2517 -0.0164
 1086YOPC   C4B14854   1.739  17.015   6.367 -0.1064 -0.1891  0.0213
 1087YOPC   NC314855  18.209  15.475   5.656 -0.3818 -0.1329 -0.1682
 1087YOPC   PO414856  18.591  15.690   5.721 -0.1374 -0.0831 -0.0065
 1087YOPC   GL114857  18.819  15.759   6.011 -0.1162  0.1850 -0.0335
 1087YOPC   GL214858  18.848  16.042   5.977  0.2723 -0.2694 -0.2221
 1087YOPC   C1A14859  18.864  15.734   6.407  0.2203 -0.0254 -0.0749
 1087YOPC   D2A14860  18.944  15.549   6.789 -0.0129 -0.1409 -0.0858
 1087YOPC   C3A14861  18.998  15.135   6.931  0.0033 -0.0926 -0.3459
 1087YOPC   C4A14862  19.365  14.999   6.809  0.0273  0.0427 -0.3427
 1087YOPC   C1B14863  19.073  16.250   6.321  0.1348  0.0895 -0.0983
 1087YOPC   C2B14864  19.111  16.015   6.717  0.2632 -0.0558  0.0548
 1087YOPC   D3B14865  19.494  15.782   6.899  0.0986  0.1310  0.2791
 1087YOPC   C4B14866  19.409  15.425   7.018 -0.1502 -0.1620  0.0929
 1088YOPC   NC314867  11.891   9.792   5.500 -0.0714 -0.0273  0.0334
 1088YOPC   PO414868  11.515   9.963   5.665  0.2367  0.3675  0.0789
 1088YOPC   GL114869  11.388   9.917   6.040 -0.0542 -0.1543 -0.1863
 1088YOPC   GL214870  11.231   9.654   5.991 -0.3225 -0.0667  0.1868
 1088YOPC   C1A14871  11.659   9.832   6.314 -0.3683  0.0457 -0.1984
 1088YOPC   D2A14872  12.054   9.815   6.557 -0.0448  0.0030 -0.0235
 1088YOPC   C3A14873  12.029   9.733   6.919  0.2508  0.0335 -0.0170
 1088YOPC   C4A14874  11.928   9.845   7.429 -0.1330 -0.1913  0.4764
 1088YOPC   C1B14875  11.335   9.482   6.386  0.3695 -0.0897 -0.4683
 1088YOPC   C2B14876  11.324   9.542   6.852  0.1628 -0.2644 -0.2174
 1088YOPC   D3B14877  10.953   9.748   7.080  0.2093 -0.1496  0.1806
 1088YOPC   C4B14878  10.899   9.764   7.491  0.1295  0.0438  0.1042
 1089YOPC   NC314879   4.386  18.461   5.204  0.2939  0.1878 -0.3148
 1089YOPC   PO414880   3.974  18.282   5.236  0.0549  0.0429  0.0174
 1089YOPC   GL114881   4.078  18.443   5.600 -0.0775  0.1546  0.0640
 1089YOPC   GL214882   4.106  18.182   5.713  0.0890 -0.1407  0.0463
 1089YOPC   C1A14883   4.223  18.762   5.934  0.3616  0.0996 -0.4450
 1089YOPC   D2A14884   4.287  19.040   6.245  0.2535 -0.0577 -0.0385
 1089YOPC   C3A14885   4.456  19.478   6.268  0.0163  0.1315 -0.2395
 1089YOPC   C4A14886   4.493  19.612   5.827 -0.4659 -0.1060  0.1812
 1089YOPC   C1B14887   4.011  18.388   6.128  0.2114  0.0375  0.1094
 1089YOPC   C2B14888   4.154  18.519   6.496 -0.1000  0.1849  0.4923
 1089YOPC   D3B14889   3.894  18.402   6.798  0.3457  0.1158  0.0573
 1089YOPC   C4B14890   3.905  18.078   7.043 -0.1989 -0.0251 -0.2406
 1090YOPC   NC314891  10.181   7.041   5.394  0.1668 -0.2772 -0.1274
 1090YOPC   PO414892   9.761   7.117   5.671 -0.0262 -0.0503  0.1840
 1090YOPC   GL114893   9.550   7.185   6.060  0.0902  0.0502 -0.0584
 1090YOPC   GL214894   9.443   7.081   6.177  0.0388  0.3117 -0.1125
 1090YOPC   C1A14895   9.507   7.375   6.550 -0.2282  0.1230 -0.0208
 1090YOPC   D2A14896   9.429   7.604   6.957 -0.0685  0.1666  0.2024
 1090YOPC   C3A14897   9.197   7.376   7.300 -0.1405 -0.1176 -0.6019
 1090YOPC   C4A14898   9.127   6.915   7.459  0.0489  0.1937 -0.0645
 1090YOPC   C1B14899   9.457   6.837   6.624  0.1220 -0.4227  0.4459
 1090YOPC   C2B14900   9.450   6.999   7.115  0.1419  0.0026 -0.2025
 1090YOPC   D3B14901   9.607   7.192   7.573 -0.3972  0.1584 -0.0086
 1090YOPC   C4B14902   9.740   7.099   7.989  0.2804 -0.0032 -0.4076
 1091YOPC   NC314903   5.551   0.727   5.179 -0.2160 -0.0706  0.2801
 1091YOPC   PO414904   5.877   0.515   5.379  0.0789  0.1507 -0.0965
 1091YOPC   GL114905   5.843   0.701   5.632 -0.1938 -0.1648 -0.2416
 1091YOPC   GL214906   6.144   0.890   5.786 -0.0787  0.2921 -0.0585
 1091YOPC   C1A14907   5.623   0.721   6.036 -0.0636  0.1923  0.1999
 1091YOPC   D2A14908   5.731   0.930   6.502  0.0632  0.1741 -0.0356
 1091YOPC   C3A14909   6.064   1.221   6.367 -0.1970 -0.0462  0.0379
 1091YOPC   C4A14910   6.544   1.276   6.630 -0.3362  0.3016  0.0604
 1091YOPC   C1B14911   6.126   0.718   6.192 -0.1708 -0.0654  0.3082
 1091YOPC   C2B14912   6.187   0.690   6.512  0.1879 -0.2366  0.0756
 1091YOPC   D3B14913   6.177   1.028   6.856 -0.1194 -0.1740 -0.0941
 1091YOPC   C4B14914   6.485   1.235   7.120 -0.1082 -0.0699  0.2186
 1092YOPC   NC314915   1.518   5.419   5.067 -0.3860 -0.2249  0.1404
 1092YOPC   PO414916   1.686   5.102   5.396  0.2205 -0.2985 -0.1747
 1092YOPC   GL114917   1.525   5.135   5.683 -0.0439  0.2707 -0.0822
 1092YOPC   GL214918   1.306   4.936   5.740 -0.3798  0.1144  0.1146
 1092YOPC   C1A14919   1.452   5.343   6.198 -0.0847  0.0171 -0.1399
 1092YOPC   D2A14920   1.490   5.247   6.737 -0.0164  0.1442 -0.4297
 1092YOPC   C3A14921   1.130   5.251   7.096 -0.0274 -0.2423  0.2226
 1092YOPC   C4A14922   1.053   5.572   7.415  0.0044 -0.1100 -0.2718
 1092YOPC   C1B14923   1.454   4.791   6.139  0.1608  0.2162 -0.0087
 1092YOPC   C2B14924   1.323   4.777   6.624 -0.0208 -0.3503 -0.0583
 1092YOPC   D3B14925   1.597   4.830   7.072 -0.2428  0.0565  0.1249
 1092YOPC   C4B14926   1.934   4.852   7.326 -0.1693 -0.0914  0.2458
 1093YOPC   NC314927   3.323  17.906   5.523  0.3351  0.0390 -0.0167
 1093YOPC   PO414928   3.390  17.462   5.352 -0.0563  0.1140 -0.0815
 1093YOPC   GL114929   3.675  17.478   5.683 -0.0292  0.0228 -0.0027
 1093YOPC   GL214930   3.729  17.808   5.747  0.0332 -0.2059 -0.4672
 1093YOPC   C1A14931   3.678  17.404   6.153 -0.3014 -0.0458 -0.0314
 1093YOPC   D2A14932   3.859  17.466   6.532 -0.0604 -0.2559  0.1719
 1093YOPC   C3A14933   3.996  17.653   6.824  0.2705  0.0376  0.1096
 1093YOPC   C4A14934   3.791  17.645   7.287 -0.0160 -0.2874 -0.1905
 1093YOPC   C1B14935   3.772  17.896   6.133 -0.1565  0.2349 -0.1815
 1093YOPC   C2B14936   3.735  17.990   6.536  0.0137 -0.0440 -0.1928
 1093YOPC   D3B14937   3.528  17.773   6.894  0.0038  0.1748  0.1676
 1093YOPC   C4B14938   3.313  17.787   7.280  0.0544  0.1546  0.1661
 1094YOPC   NC314939  15.167  10.364   4.924  0.0459  0.0850 -0.2414
 1094YOPC   PO414940  14.869  10.459   5.321 -0.0744 -0.1061  0.1144
 1094YOPC   GL114941  14.824  10.397   5.697  0.1253 -0.0369 -0.0782
 1094YOPC   GL214942  14.604  10.559   5.794 -0.2611 -0.0483  0.1731
 1094YOPC   C1A14943  14.704  10.341   6.244 -0.2141 -0.1371  0.0922
 1094YOPC   D2A14944  14.592  10.318   6.659  0.0090  0.2874  0.1643
 1094YOPC   C3A14945  14.835  10.464   6.935 -0.1403 -0.2607 -0.0331
 1094YOPC   C4A14946  14.710  10.549   7.415 -0.1997 -0.0725 -0.1930
 1094YOPC   C1B14947  14.495  10.769   6.090 -0.1674 -0.0077  0.1789
 1094YOPC   C2B14948  14.280  10.808   6.472  0.0607 -0.0862 -0.1762
 1094YOPC   D3B14949  14.395  10.711   6.798  0.3210  0.1295 -0.2805
 1094YOPC   C4B14950  14.292  10.795   7.216 -0.0494  0.1214  0.2123
 1095YOPC   NC314951   9.299  16.750   5.096  0.3400 -0.4340 -0.1275
 1095YOPC   PO414952   9.133  17.043   5.337  0.1487 -0.0799  0.4356
 1095YOPC   GL114953   8.974  17.092   5.762 -0.1920  0.0113 -0.1947
 1095YOPC   GL214954   9.382  17.117   5.825  0.0015  0.1624  0.2399
 1095YOPC   C1A14955   9.044  17.154   6.183 -0.0856  0.0917 -0.2917
 1095YOPC   D2A14956   9.032  17.232   6.562  0.1928  0.2864  0.1278
 1095YOPC   C3A14957   9.092  17.548   6.900 -0.0879  0.2472 -0.0027
 1095YOPC   C4A14958   9.399  17.794   7.007  0.2632  0.0672 -0.1394
 1095YOPC   C1B14959   9.253  16.693   6.084  0.4498 -0.0556 -0.2809
 1095YOPC   C2B14960   9.242  16.490   6.504 -0.1086 -0.0197  0.2100
 1095YOPC   D3B14961   9.383  16.789   6.872 -0.1853 -0.0277 -0.0368
 1095YOPC   C4B14962   9.449  16.814   7.386  0.1159  0.0076  0.0282
 1096YOPC   NC314963   8.972  14.952   4.934 -0.3036  0.0398  0.0954
 1096YOPC   PO414964   9.247  14.988   5.307 -0.0703  0.0126  0.0485
 1096YOPC   GL114965   9.071  15.071   5.723  0.0148  0.1628  0.2865
 1096YOPC   GL214966   9.395  15.196   5.833  0.4264 -0.0223 -0.1155
 1096YOPC   C1A14967   8.860  15.354   6.055  0.3441 -0.0292 -0.0426
 1096YOPC   D2A14968   9.042  15.590   6.297 -0.0171  0.2638  0.1448
 1096YOPC   C3A14969   8.841  15.544   6.599  0.1861 -0.1040  0.1462
 1096YOPC   C4A14970   8.404  15.454   6.689 -0.0176 -0.1289 -0.0111
 1096YOPC   C1B14971   9.130  14.979   6.235 -0.3801  0.1144 -0.0550
 1096YOPC   C2B14972   9.033  14.999   6.631  0.3306  0.2063  0.0310
 1096YOPC   D3B14973   8.798  15.227   6.953  0.3232  0.1055  0.0050
 1096YOPC   C4B14974   8.758  15.124   7.313 -0.0690  0.1245  0.1347
 1097YOPC   NC314975   2.092  16.115   5.587  0.3509 -0.1057  0.2280
 1097YOPC   PO414976   1.771  16.365   5.787  0.1135  0.0729  0.0426
 1097YOPC   GL114977   1.366  16.150   5.879  0.0734 -0.1765 -0.0778
 1097YOPC   GL214978   1.029  16.008   5.797 -0.0358 -0.2608 -0.2938
 1097YOPC   C1A14979   1.283  16.077   6.279 -0.3269  0.1257 -0.1895
 1097YOPC   D2A14980   1.183  15.877   6.682  0.0043 -0.1085  0.0671
 1097YOPC   C3A14981   1.187  16.028   7.092 -0.0629 -0.2431 -0.1997
 1097YOPC   C4A14982   1.085  16.061   7.584  0.1829 -0.0813 -0.0748
 1097YOPC   C1B14983   1.138  15.628   6.015  0.1646  0.0041 -0.0343
 1097YOPC   C2B14984   1.226  15.207   5.959 -0.1217 -0.1011 -0.2150
 1097YOPC   D3B14985   1.352  14.989   6.342 -0.4377 -0.2006 -0.3679
 1097YOPC   C4B14986   1.639  14.979   6.739  0.2525 -0.1020  0.0979
 1098YOPC   NC314987  13.472   6.256   5.703  0.1240  0.3147 -0.1722
 1098YOPC   PO414988  13.002   6.232   5.570  0.0430 -0.0832 -0.2363
 1098YOPC   GL114989  12.973   6.094   5.987 -0.0654 -0.3229  0.2465
 1098YOPC   GL214990  13.150   6.068   6.137 -0.0474  0.3033 -0.2834
 1098YOPC   C1A14991  12.651   6.208   6.295 -0.1848 -0.1381  0.3228
 1098YOPC   D2A14992  12.708   6.206   6.782 -0.0108 -0.2870  0.2891
 1098YOPC   C3A14993  12.471   6.383   7.105  0.1479  0.0716  0.2077
 1098YOPC   C4A14994  12.323   6.500   7.436  0.0973 -0.2066  0.1449
 1098YOPC   C1B14995  13.089   5.921   6.536 -0.0330 -0.0434  0.0152
 1098YOPC   C2B14996  13.056   5.821   6.927 -0.2604 -0.1275 -0.1893
 1098YOPC   D3B14997  12.904   5.994   7.189  0.3451 -0.2716  0.0788
 1098YOPC   C4B14998  12.548   6.026   7.518  0.0185 -0.1304 -0.0091
 1099YOPC   NC314999  11.705   7.043   5.461  0.0182  0.0102 -0.1121
 1099YOPC   PO415000  11.456   6.746   5.443  0.0343  0.1549 -0.1167
 1099YOPC   GL115001  11.268   6.546   5.782  0.0816 -0.1166  0.0736
 1099YOPC   GL215002  10.922   6.636   5.622  0.2400  0.1653 -0.0564
 1099YOPC   C1A15003  11.325   6.143   5.994 -0.1040 -0.0021  0.1174
 1099YOPC   D2A15004  11.189   5.690   6.031  0.0015  0.0163  0.0458
 1099YOPC   C3A15005  11.050   5.845   6.447  0.6802  0.1248 -0.1623
 1099YOPC   C4A15006  11.062   5.739   6.842  0.3021 -0.1098 -0.0346
 1099YOPC   C1B15007  10.963   6.734   6.134 -0.1628  0.3138  0.2612
 1099YOPC   C2B15008  10.931   6.524   6.483 -0.1695 -0.3767  0.2773
 1099YOPC   D3B15009  10.722   6.740   6.831 -0.2811  0.1167 -0.1199
 1099YOPC   C4B15010  10.674   6.907   7.193 -0.0551  0.0966 -0.1067
 1100YOPC   NC315011  12.990   7.498   5.742  0.1301  0.2239  0.3407
 1100YOPC   PO415012  13.203   7.814   6.037  0.0083 -0.1107 -0.1818
 1100YOPC   GL115013  13.264   7.625   6.395  0.3844  0.1255  0.3183
 1100YOPC   GL215014  13.489   7.371   6.578  0.3088  0.1347 -0.2838
 1100YOPC   C1A15015  12.963   7.405   6.662  0.3099 -0.1000 -0.2111
 1100YOPC   D2A15016  12.930   7.206   7.117  0.1603  0.2760 -0.0760
 1100YOPC   C3A15017  12.910   7.346   7.513 -0.1970  0.0985  0.1638
 1100YOPC   C4A15018  13.193   7.469   7.755 -0.2791 -0.0139 -0.0493
 1100YOPC   C1B15019  13.386   7.342   6.974 -0.1464  0.0490  0.1063
 1100YOPC   C2B15020  13.445   7.217   7.362  0.0260 -0.0250  0.3307
 1100YOPC   D3B15021  13.140   6.909   7.544  0.0059 -0.0653  0.0310
 1100YOPC   C4B15022  12.892   6.926   7.906  0.0678 -0.1004  0.0881
 1101YOPC   NC315023  18.493   2.754   5.824  0.0414  0.2754  0.1587
 1101YOPC   PO415024  18.889   2.791   5.641 -0.0027 -0.0163 -0.0220
 1101YOPC   GL115025  18.874   2.956   6.145 -0.2063 -0.2112 -0.1218
 1101YOPC   GL215026  18.764   3.180   6.104 -0.1530 -0.0545 -0.2236
 1101YOPC   C1A15027  19.095   2.904   6.520  0.1774 -0.3016 -0.0101
 1101YOPC   D2A15028  19.442   2.666   6.842  0.2497  0.0634  0.3995
 1101YOPC   C3A15029  19.617   2.762   7.214 -0.3257 -0.0944  0.1632
 1101YOPC   C4A15030  19.639   2.825   7.651  0.2300  0.0016 -0.0716
 1101YOPC   C1B15031  18.493   3.400   6.390 -0.0097 -0.2612  0.0062
 1101YOPC   C2B15032  18.544   3.338   6.823 -0.3134 -0.0929  0.0240
 1101YOPC   D3B15033  18.390   3.563   7.112 -0.0656 -0.2800 -0.0692
 1101YOPC   C4B15034  17.981   3.592   7.489  0.3574  0.0147  0.1774
 1102YOPC   NC315035  16.248  17.771   5.955 -0.2643 -0.3342  0.1801
 1102YOPC   PO415036  15.861  17.643   6.263  0.0218  0.1134  0.2044
 1102YOPC   GL115037  16.150  17.828   6.382  0.0114 -0.0431 -0.0649
 1102YOPC   GL215038  16.446  17.636   6.463  0.0914 -0.2676  0.1669
 1102YOPC   C1A15039  16.245  18.011   6.784 -0.0404  0.0837  0.0599
 1102YOPC   D2A15040  16.172  18.158   7.216 -0.2669 -0.2246 -0.1398
 1102YOPC   C3A15041  16.535  18.367   7.475 -0.0638  0.0689 -0.0188
 1102YOPC   C4A15042  16.773  18.608   7.680 -0.1662 -0.1829 -0.0343
 1102YOPC   C1B15043  16.330  17.572   6.970 -0.0976 -0.0390 -0.0373
 1102YOPC   C2B15044  16.189  17.673   7.413  0.1423 -0.2108  0.3056
 1102YOPC   D3B15045  16.005  17.620   7.724 -0.3013  0.2527 -0.0546
 1102YOPC   C4B15046  15.827  17.509   8.025  0.2858  0.1019 -0.0691
 1103YOPC   NC315047   3.401   5.050   5.715  0.3727  0.1448 -0.1058
 1103YOPC   PO415048   3.029   4.857   5.800 -0.1382  0.1183  0.1959
 1103YOPC   GL115049   2.667   4.723   6.060  0.3528  0.0395 -0.1942
 1103YOPC   GL215050   2.563   5.065   6.056 -0.3551  0.1779 -0.0426
 1103YOPC   C1A15051   2.617   4.594   6.482 -0.0273  0.1870  0.2081
 1103YOPC   D2A15052   2.457   4.382   6.775  0.0814  0.1408 -0.1614
 1103YOPC   C3A15053   2.243   4.518   7.156 -0.1881 -0.1218  0.1385
 1103YOPC   C4A15054   2.398   4.684   7.481  0.4557 -0.1709  0.1237
 1103YOPC   C1B15055   2.391   5.148   6.394  0.1825  0.1949 -0.5188
 1103YOPC   C2B15056   2.249   5.376   6.827 -0.3971  0.1831  0.3701
 1103YOPC   D3B15057   2.365   5.127   7.195 -0.1450 -0.1590 -0.2678
 1103YOPC   C4B15058   2.788   5.075   7.478  0.1334  0.2030  0.2471
 1104YOPC   NC315059  11.306  16.582   5.879 -0.1193 -0.0726  0.2834
 1104YOPC   PO415060  11.052  16.268   5.916 -0.0249 -0.1367 -0.1733
 1104YOPC   GL115061  10.731  16.361   6.255 -0.0463 -0.0023  0.2068
 1104YOPC   GL215062  10.439  16.218   6.239 -0.1185 -0.0359  0.1211
 1104YOPC   C1A15063  10.838  16.470   6.651 -0.0603 -0.0412  0.2123
 1104YOPC   D2A15064  10.877  16.589   7.110  0.2773  0.1581 -0.2686
 1104YOPC   C3A15065  10.626  16.756   7.236  0.1424  0.0902 -0.2343
 1104YOPC   C4A15066  10.350  16.731   7.487 -0.7270  0.1854 -0.2698
 1104YOPC   C1B15067  10.355  16.007   6.587  0.2063  0.2867  0.1710
 1104YOPC   C2B15068  10.137  16.012   6.971 -0.0312 -0.1374  0.0763
 1104YOPC   D3B15069  10.496  15.813   7.348 -0.1546  0.4178 -0.1346
 1104YOPC   C4B15070  10.445  15.671   7.736 -0.2354 -0.2238  0.4826
 1105YOPC   NC315071   1.855  14.601   4.790 -0.3051  0.2398  0.0761
 1105YOPC   PO415072   1.634  14.895   5.136  0.1640 -0.0791  0.1912
 1105YOPC   GL115073   1.459  14.589   5.460 -0.1721 -0.0462  0.0441
 1105YOPC   GL215074   1.152  14.619   5.596  0.0717  0.2886  0.1545
 1105YOPC   C1A15075   1.690  14.203   5.570 -0.0057  0.0528  0.0741
 1105YOPC   D2A15076   1.923  13.780   5.554 -0.1106 -0.0806 -0.3323
 1105YOPC   C3A15077   1.720  13.461   5.822  0.0983 -0.1100  0.1717
 1105YOPC   C4A15078   1.607  13.505   6.268  0.2030  0.2453  0.2144
 1105YOPC   C1B15079   1.040  14.731   6.091  0.2007 -0.1929 -0.0065
 1105YOPC   C2B15080   1.040  14.564   6.521  0.1268  0.0471 -0.1031
 1105YOPC   D3B15081   1.185  14.851   6.859 -0.0724  0.1143  0.1854
 1105YOPC   C4B15082   0.912  15.030   7.154  0.4410  0.1484 -0.1216
 1106YOPC   NC315083   3.923  13.342   5.311 -0.1681 -0.1820  0.4820
 1106YOPC   PO415084   3.782  12.907   5.192 -0.1822  0.0646  0.0617
 1106YOPC   GL115085   3.732  12.852   5.646  0.1156  0.1292  0.2262
 1106YOPC   GL215086   3.505  12.968   5.864 -0.3332  0.0529  0.2961
 1106YOPC   C1A15087   3.959  12.873   5.967 -0.0855  0.2012 -0.3469
 1106YOPC   D2A15088   4.284  12.888   6.091 -0.2726  0.3250  0.0449
 1106YOPC   C3A15089   4.473  13.238   6.409  0.1959 -0.0059  0.1740
 1106YOPC   C4A15090   4.790  13.468   6.297  0.3240  0.2402  0.2100
 1106YOPC   C1B15091   3.597  12.929   6.340 -0.2613  0.1949  0.0268
 1106YOPC   C2B15092   3.649  12.833   6.724 -0.3135 -0.0037 -0.2361
 1106YOPC   D3B15093   3.783  13.103   7.010 -0.1174 -0.0615 -0.0570
 1106YOPC   C4B15094   3.839  13.496   7.069  0.1560 -0.0024 -0.2106
 1107YOPC   NC315095  18.162  10.291   5.377 -0.4370  0.2722 -0.2276
 1107YOPC   PO415096  18.073  10.684   5.357  0.3151 -0.0600 -0.0998
 1107YOPC   GL115097  17.923  10.575   5.775  0.0697 -0.1907  0.3111
 1107YOPC   GL215098  17.789  10.934   5.755 -0.3746  0.0631 -0.1637
 1107YOPC   C1A15099  17.865  10.503   6.233 -0.1545  0.2143  0.2798
 1107YOPC   D2A15100  17.530  10.621   6.465  0.0483 -0.3918 -0.1888
 1107YOPC   C3A15101  17.561  10.725   6.831  0.0902 -0.0483 -0.2376
 1107YOPC   C4A15102  17.457  10.357   7.196  0.2398 -0.3051  0.3509
 1107YOPC   C1B15103  17.903  10.962   6.265  0.0156 -0.4597 -0.0596
 1107YOPC   C2B15104  17.999  10.831   6.616 -0.1612  0.2997  0.0884
 1107YOPC   D3B15105  17.944  10.925   7.015  0.0068 -0.3339 -0.0916
 1107YOPC   C4B15106  17.622  10.856   7.336 -0.2233 -0.0137  0.3559
 1108YOPC   NC315107  13.520   5.206   5.924 -0.1080  0.0496  0.1031
 1108YOPC   PO415108  13.596   4.712   5.939 -0.1646  0.2416  0.4561
 1108YOPC   GL115109  13.695   4.814   6.306  0.0936  0.0145  0.3452
 1108YOPC   GL215110  13.496   5.056   6.382  0.0701 -0.0185  0.1682
 1108YOPC   C1A15111  13.863   4.645   6.667  0.1987  0.0619  0.0811
 1108YOPC   D2A15112  13.951   4.404   7.041  0.1848  0.0486  0.0761
 1108YOPC   C3A15113  13.844   4.345   7.435  0.2991  0.0634  0.0829
 1108YOPC   C4A15114  13.690   4.675   7.773 -0.2064 -0.3704  0.0550
 1108YOPC   C1B15115  13.535   5.032   6.814 -0.2247  0.1444  0.1152
 1108YOPC   C2B15116  13.632   5.338   7.139  0.2063 -0.2441 -0.1883
 1108YOPC   D3B15117  13.958   5.370   7.412  0.1000  0.0100  0.1182
 1108YOPC   C4B15118  13.987   5.060   7.694 -0.4534  0.1486  0.0837
 1109YOPC   NC315119  14.398   4.273   5.786 -0.2253  0.2688 -0.0566
 1109YOPC   PO415120  14.089   4.740   5.784  0.0317 -0.1202 -0.2491
 1109YOPC   GL115121  14.214   4.782   6.257  0.1082  0.0783  0.1887
 1109YOPC   GL215122  14.428   4.495   6.323  0.0013  0.0213 -0.1306
 1109YOPC   C1A15123  14.288   4.914   6.618 -0.0952 -0.2586 -0.4100
 1109YOPC   D2A15124  14.161   5.331   6.922  0.0558  0.2794  0.1714
 1109YOPC   C3A15125  14.478   5.387   7.182 -0.0205  0.1028 -0.2680
 1109YOPC   C4A15126  14.824   5.516   7.400  0.1134 -0.3138 -0.0524
 1109YOPC   C1B15127  14.407   4.403   6.792 -0.0350 -0.1320 -0.0514
 1109YOPC   C2B15128  14.402   4.626   7.039  0.1007 -0.0780 -0.0611
 1109YOPC   D3B15129  14.205   4.696   7.443  0.0130  0.0679 -0.0233
 1109YOPC   C4B15130  14.211   4.676   7.912 -0.0211 -0.1259 -0.0944
 1110YOPC   NC315131   0.494   6.339   5.372 -0.0875  0.4605  0.1323
 1110YOPC   PO415132   0.045   6.282   5.332  0.1030  0.0774 -0.0073
 1110YOPC   GL115133   0.147   6.272   5.688  0.1620  0.1648  0.0035
 1110YOPC   GL215134  -0.030   6.365   5.859 -0.1784  0.0780 -0.1891
 1110YOPC   C1A15135   0.406   6.192   6.072 -0.1171 -0.0542  0.0953
 1110YOPC   D2A15136   0.419   6.195   6.518 -0.0643  0.0679 -0.1662
 1110YOPC   C3A15137   0.559   5.943   6.857  0.0638  0.1672 -0.0624
 1110YOPC   C4A15138   0.581   5.773   7.174 -0.0133 -0.0614 -0.0087
 1110YOPC   C1B15139   0.060   6.509   6.241  0.1075  0.3711  0.3786
 1110YOPC   C2B15140   0.225   6.669   6.540 -0.0022  0.0964  0.1969
 1110YOPC   D3B15141   0.071   6.726   6.947  0.3759 -0.3161 -0.1224
 1110YOPC   C4B15142  -0.003   6.450   7.378  0.1461 -0.0175  0.0204
 1111YOPC   NC315143   8.668   5.642   5.287 -0.2079 -0.2734  0.0258
 1111YOPC   PO415144   8.264   5.587   5.594 -0.0532  0.0681 -0.3713
 1111YOPC   GL115145   8.399   5.596   6.034 -0.1251  0.1224  0.2508
 1111YOPC   GL215146   8.503   5.963   6.046  0.3610  0.0577 -0.2691
 1111YOPC   C1A15147   8.633   5.444   6.388 -0.0391  0.1629  0.1488
 1111YOPC   D2A15148   8.968   5.199   6.374  0.0803  0.0556  0.0265
 1111YOPC   C3A15149   9.032   4.822   6.668 -0.0984  0.0313 -0.1692
 1111YOPC   C4A15150   9.029   4.365   6.865 -0.0298 -0.1056  0.1143
 1111YOPC   C1B15151   8.351   5.906   6.533 -0.4103 -0.3136  0.1728
 1111YOPC   C2B15152   8.582   5.619   6.883  0.0772 -0.0975  0.0814
 1111YOPC   D3B15153   8.604   5.190   6.847 -0.4467 -0.2681  0.0818
 1111YOPC   C4B15154   8.695   4.812   7.066  0.3481 -0.0055  0.0540
 1112YOPC   NC315155   5.937   9.798   5.848  0.1495  0.0952 -0.0047
 1112YOPC   PO415156   5.454   9.625   5.815 -0.0210  0.2908  0.0198
 1112YOPC   GL115157   5.556   9.610   6.235 -0.0669 -0.0013 -0.3544
 1112YOPC   GL215158   5.741   9.322   6.168  0.2052 -0.0974  0.0943
 1112YOPC   C1A15159   5.557   9.419   6.668  0.1315  0.2106  0.3222
 1112YOPC   D2A15160   5.484   9.279   6.998  0.0666 -0.0264  0.1016
 1112YOPC   C3A15161   5.579   9.072   7.480  0.0974  0.0894 -0.1862
 1112YOPC   C4A15162   5.241   9.155   7.860  0.0908  0.2360  0.1740
 1112YOPC   C1B15163   5.484   9.067   6.342  0.2684  0.0013 -0.0198
 1112YOPC   C2B15164   5.363   8.904   6.696 -0.0754  0.4494 -0.1194
 1112YOPC   D3B15165   5.330   8.452   6.778 -0.1076  0.1631  0.0832
 1112YOPC   C4B15166   5.227   8.085   6.905  0.1132 -0.0374  0.3049
 1113YOPC   NC315167   1.769   8.998   5.272  0.2966 -0.1454 -0.1126
 1113YOPC   PO415168   1.306   9.106   5.455  0.1720  0.0509  0.0344
 1113YOPC   GL115169   1.193   9.249   5.854  0.0550 -0.2014 -0.0652
 1113YOPC   GL215170   0.867   9.188   5.831 -0.0426  0.1451 -0.1651
 1113YOPC   C1A15171   1.340   9.479   6.125  0.0225 -0.0169 -0.2640
 1113YOPC   D2A15172   1.449   9.872   6.262 -0.0251 -0.1941 -0.0959
 1113YOPC   C3A15173   1.594   9.914   6.654 -0.2324  0.0582 -0.2629
 1113YOPC   C4A15174   1.311   9.698   7.079 -0.0628 -0.1587 -0.0366
 1113YOPC   C1B15175   0.926   8.961   6.171 -0.0228 -0.2526 -0.1543
 1113YOPC   C2B15176   0.911   8.625   6.434 -0.1346  0.3465  0.1066
 1113YOPC   D3B15177   1.167   8.617   6.726  0.0169 -0.2713 -0.2415
 1113YOPC   C4B15178   1.099   8.664   7.142 -0.3343  0.1576 -0.1675
 1114YOPC   NC315179  12.698  13.174   5.349  0.1804  0.0680 -0.0052
 1114YOPC   PO415180  12.679  13.611   5.401  0.0266  0.3410  0.2302
 1114YOPC   GL115181  12.843  13.514   5.818  0.1752 -0.0173  0.1041
 1114YOPC   GL215182  13.250  13.610   5.858 -0.3387 -0.1845 -0.1756
 1114YOPC   C1A15183  12.636  13.701   6.228  0.1401  0.2336 -0.2085
 1114YOPC   D2A15184  12.503  13.894   6.670  0.1410  0.0422  0.0757
 1114YOPC   C3A15185  12.281  13.689   6.959 -0.0788 -0.0243  0.1355
 1114YOPC   C4A15186  12.151  13.172   7.106 -0.1107 -0.1290  0.0660
 1114YOPC   C1B15187  13.321  13.706   6.382 -0.2841 -0.2306 -0.3838
 1114YOPC   C2B15188  12.972  13.610   6.661 -0.1620  0.1108 -0.0790
 1114YOPC   D3B15189  13.267  13.534   7.023  0.0032 -0.0980  0.0450
 1114YOPC   C4B15190  13.450  13.552   7.505 -0.2589 -0.0112  0.4112
 1115YOPC   NC315191  14.712   2.152   6.247 -0.0458 -0.1030  0.3550
 1115YOPC   PO415192  14.541   1.773   6.160  0.1284 -0.0675 -0.1964
 1115YOPC   GL115193  14.388   1.895   6.563 -0.3100 -0.4139  0.1509
 1115YOPC   GL215194  14.331   1.782   6.781  0.0481  0.1473 -0.0032
 1115YOPC   C1A15195  14.368   2.263   6.914  0.0635 -0.0846  0.0988
 1115YOPC   D2A15196  14.703   2.492   6.833 -0.0530  0.0834 -0.2151
 1115YOPC   C3A15197  15.143   2.298   6.825  0.2013  0.1253  0.0816
 1115YOPC   C4A15198  15.559   2.388   6.840  0.0349 -0.1924  0.0192
 1115YOPC   C1B15199  14.273   1.783   7.125 -0.1355 -0.0107 -0.0127
 1115YOPC   C2B15200  14.165   2.034   7.338  0.0255  0.1159 -0.3463
 1115YOPC   D3B15201  14.212   1.997   7.712  0.1009 -0.2016 -0.2752
 1115YOPC   C4B15202  14.087   1.590   7.994  0.1929  0.2008 -0.3743
 1116YOPC   NC315203   7.050   6.792   5.765  0.1910  0.0141 -0.1646
 1116YOPC   PO415204   7.407   6.620   5.875  0.0817  0.0763  0.1874
 1116YOPC   GL115205   7.345   6.924   6.170  0.0878 -0.0908  0.2432
 1116YOPC   GL215206   7.308   7.216   5.976  0.1297 -0.0943 -0.0382
 1116YOPC   C1A15207   7.499   7.125   6.551 -0.1475 -0.0838  0.0853
 1116YOPC   D2A15208   7.482   7.545   6.748  0.0075  0.0387 -0.0806
 1116YOPC   C3A15209   7.544   7.641   7.196  0.1148 -0.2144 -0.1129
 1116YOPC   C4A15210   7.472   7.848   7.632 -0.2088 -0.1617 -0.2217
 1116YOPC   C1B15211   7.544   7.595   6.277 -0.0266  0.0931 -0.1229
 1116YOPC   C2B15212   7.750   7.933   6.132  0.1633  0.1415  0.0769
 1116YOPC   D3B15213   7.883   8.157   6.480 -0.0664 -0.1800 -0.1343
 1116YOPC   C4B15214   8.110   8.544   6.725 -0.0281 -0.0824  0.0092
 1117YOPC   NC315215  11.088   4.087   5.514  0.1552  0.1305  0.2277
 1117YOPC   PO415216  11.500   4.294   5.628 -0.0101 -0.0274  0.3739
 1117YOPC   GL115217  11.317   4.282   6.003 -0.0393  0.1954 -0.1061
 1117YOPC   GL215218  10.918   4.227   6.030 -0.4913  0.0638 -0.3004
 1117YOPC   C1A15219  11.209   4.325   6.448  0.0336 -0.3037  0.2321
 1117YOPC   D2A15220  11.271   4.344   6.887  0.0651 -0.1586  0.0921
 1117YOPC   C3A15221  10.872   4.303   7.243  0.0681 -0.2506 -0.0193
 1117YOPC   C4A15222  10.741   4.104   7.552 -0.1027 -0.0178 -0.3183
 1117YOPC   C1B15223  10.763   4.151   6.418 -0.2379  0.2887 -0.2066
 1117YOPC   C2B15224  10.776   4.412   6.816  0.1366 -0.0815  0.3159
 1117YOPC   D3B15225  10.445   4.632   6.883  0.1180 -0.0774 -0.0549
 1117YOPC   C4B15226  10.059   4.684   6.822 -0.1343 -0.0481 -0.1634
 1118YOPC   NC315227   1.632  10.650   5.299 -0.2500 -0.2935 -0.1483
 1118YOPC   PO415228   1.994  10.678   5.343  0.0284 -0.0150 -0.2614
 1118YOPC   GL115229   1.904  10.700   5.715 -0.1780 -0.0402  0.1263
 1118YOPC   GL215230   1.840  10.444   5.998 -0.0919 -0.2527  0.0718
 1118YOPC   C1A15231   1.599  10.996   5.974 -0.0604  0.1737 -0.0730
 1118YOPC   D2A15232   1.264  11.041   6.340  0.3319  0.0102 -0.1811
 1118YOPC   C3A15233   1.204  11.031   6.664 -0.1472 -0.1301  0.2050
 1118YOPC   C4A15234   1.194  10.730   6.958  0.0701 -0.0283  0.2100
 1118YOPC   C1B15235   1.969  10.529   6.410  0.0925 -0.1296 -0.2517
 1118YOPC   C2B15236   2.078  10.311   6.806 -0.0912  0.1030  0.0421
 1118YOPC   D3B15237   2.152  10.639   7.150  0.0977 -0.0022 -0.0279
 1118YOPC   C4B15238   2.205  10.974   7.234 -0.1201  0.0769 -0.0747
 1119YOPC   NC315239  17.431  13.880   5.528  0.2029  0.1887  0.0304
 1119YOPC   PO415240  17.686  14.257   5.329 -0.3143  0.0616 -0.1285
 1119YOPC   GL115241  17.679  14.253   5.788  0.1549  0.1261 -0.0069
 1119YOPC   GL215242  17.954  14.151   5.938  0.1956  0.0324  0.1107
 1119YOPC   C1A15243  17.553  14.269   6.184 -0.1935  0.1055 -0.1170
 1119YOPC   D2A15244  17.541  14.379   6.550  0.1623 -0.3228 -0.4738
 1119YOPC   C3A15245  17.594  14.489   7.035 -0.1493  0.2428  0.1445
 1119YOPC   C4A15246  17.397  14.368   7.375  0.0110  0.3538  0.2112
 1119YOPC   C1B15247  18.047  14.278   6.286 -0.2486  0.2108  0.0565
 1119YOPC   C2B15248  18.056  14.378   6.658 -0.0175  0.0271  0.1174
 1119YOPC   D3B15249  17.843  14.065   6.931 -0.2781 -0.2331 -0.3125
 1119YOPC   C4B15250  18.075  13.837   7.254  0.1853 -0.2836  0.2404
 1120YOPC   NC315251   2.213   2.433   4.930  0.2168  0.2015 -0.3515
 1120YOPC   PO415252   2.447   2.760   5.101 -0.1359  0.1369  0.1027
 1120YOPC   GL115253   2.272   3.074   5.418 -0.1602 -0.2077  0.1111
 1120YOPC   GL215254   2.008   3.304   5.363 -0.2065 -0.0419 -0.0324
 1120YOPC   C1A15255   2.382   3.202   5.756  0.0957 -0.1610 -0.0636
 1120YOPC   D2A15256   2.641   3.394   6.023  0.1792  0.0246 -0.1355
 1120YOPC   C3A15257   2.523   3.691   6.307  0.2722 -0.0083  0.0917
 1120YOPC   C4A15258   2.434   3.424   6.747  0.2609 -0.1626  0.1984
 1120YOPC   C1B15259   1.911   3.252   5.807 -0.1076 -0.1188  0.2801
 1120YOPC   C2B15260   1.849   3.024   6.168  0.0986  0.0462  0.0493
 1120YOPC   D3B15261   1.963   2.943   6.633  0.0509  0.0930  0.2154
 1120YOPC   C4B15262   2.028   2.934   7.075  0.0076  0.2913  0.0684
 1121YOPC   NC315263   2.170   0.549   5.107  0.2894 -0.1542 -0.0482
 1121YOPC   PO415264   2.316   0.834   5.431  0.4049 -0.0264 -0.0545
 1121YOPC   GL115265   2.463   0.772   5.780 -0.1890 -0.1451  0.2803
 1121YOPC   GL215266   2.486   0.514   5.852 -0.3203 -0.0462 -0.1398
 1121YOPC   C1A15267   2.612   1.029   6.094 -0.2114 -0.0824  0.0413
 1121YOPC   D2A15268   2.707   0.927   6.480 -0.2636  0.1014  0.2659
 1121YOPC   C3A15269   2.584   0.555   6.790  0.0845 -0.1633  0.2487
 1121YOPC   C4A15270   2.334   0.620   7.191  0.0839 -0.0289  0.0383
 1121YOPC   C1B15271   2.584   0.489   6.259 -0.2555  0.0921 -0.2290
 1121YOPC   C2B15272   2.870   0.479   6.352 -0.2096 -0.1490 -0.2316
 1121YOPC   D3B15273   3.067   0.244   6.781  0.1458 -0.1555  0.1055
 1121YOPC   C4B15274   3.045  -0.148   6.973 -0.1388 -0.2094  0.0587
 1122YOPC   NC315275   2.651  10.865   5.029  0.2663 -0.0285 -0.0640
 1122YOPC   PO415276   2.624  10.721   5.418  0.1386 -0.2640 -0.4323
 1122YOPC   GL115277   2.668  10.536   5.854  0.2176 -0.3409 -0.0709
 1122YOPC   GL215278   2.504  10.648   5.998 -0.3043 -0.0978 -0.1817
 1122YOPC   C1A15279   2.844  10.363   6.327  0.1037 -0.1672  0.0818
 1122YOPC   D2A15280   3.155  10.556   6.573 -0.0522 -0.2111  0.2713
 1122YOPC   C3A15281   3.050  10.648   6.936 -0.1005 -0.2034  0.0835
 1122YOPC   C4A15282   2.956  10.416   7.305  0.2665  0.0350  0.3883
 1122YOPC   C1B15283   2.454  10.678   6.386  0.1390  0.0669 -0.1113
 1122YOPC   C2B15284   2.414  10.692   6.772  0.0212 -0.3554 -0.3275
 1122YOPC   D3B15285   2.564  10.250   6.952  0.1164  0.0622 -0.1217
 1122YOPC   C4B15286   2.689  10.027   7.256  0.0936 -0.0478 -0.0258
 1123YOPC   NC315287  14.116  17.768   5.891 -0.1193  0.2383  0.1079
 1123YOPC   PO415288  14.422  17.782   6.089 -0.1895 -0.1713 -0.2059
 1123YOPC   GL115289  13.947  17.912   6.348 -0.2822 -0.1454  0.2006
 1123YOPC   GL215290  13.687  17.772   6.424 -0.4703 -0.0624  0.3447
 1123YOPC   C1A15291  13.782  18.239   6.718 -0.1046 -0.0146 -0.0743
 1123YOPC   D2A15292  13.780  18.219   7.099 -0.0787  0.0407  0.1567
 1123YOPC   C3A15293  14.039  18.133   7.398 -0.3385 -0.1803 -0.2537
 1123YOPC   C4A15294  13.881  18.338   7.774 -0.2440  0.2065  0.1807
 1123YOPC   C1B15295  13.798  17.787   6.880  0.0398 -0.1878  0.0023
 1123YOPC   C2B15296  13.834  17.737   7.289  0.1403  0.0006  0.2263
 1123YOPC   D3B15297  13.645  17.925   7.699  0.0430  0.0513  0.0946
 1123YOPC   C4B15298  13.313  17.809   7.984  0.0898  0.0744 -0.2834
 1124YOPC   NC315299  11.670   8.940   5.533  0.0526 -0.1394 -0.0881
 1124YOPC   PO415300  11.930   8.557   5.633 -0.3171 -0.2230 -0.1542
 1124YOPC   GL115301  11.704   8.558   5.997 -0.1451 -0.0762  0.1681
 1124YOPC   GL215302  11.722   8.357   6.225 -0.0845 -0.1561  0.1876
 1124YOPC   C1A15303  11.609   8.775   6.392 -0.0631 -0.2075 -0.0711
 1124YOPC   D2A15304  11.679   8.828   6.886  0.0367 -0.2732  0.2839
 1124YOPC   C3A15305  11.787   8.684   7.362  0.2121  0.2149 -0.1621
 1124YOPC   C4A15306  11.955   8.353   7.652  0.0913  0.2428 -0.0626
 1124YOPC   C1B15307  11.796   8.322   6.618 -0.0874  0.1223 -0.0707
 1124YOPC   C2B15308  11.897   8.311   7.031  0.2322  0.0731 -0.3164
 1124YOPC   D3B15309  12.046   7.979   7.275 -0.0278  0.0717 -0.1913
 1124YOPC   C4B15310  12.100   7.872   7.687 -0.0134  0.2085  0.0016
 1125YOPC   NC315311   8.155  14.722   5.336 -0.1954  0.2421  0.2673
 1125YOPC   PO415312   7.955  14.319   5.504  0.1164  0.0168 -0.1212
 1125YOPC   GL115313   8.111  14.406   5.870  0.1046 -0.2667 -0.1252
 1125YOPC   GL215314   8.334  14.611   5.775  0.1071 -0.0222 -0.0319
 1125YOPC   C1A15315   8.067  14.485   6.263 -0.1854 -0.1514 -0.4490
 1125YOPC   D2A15316   8.074  14.534   6.615 -0.1360  0.0367 -0.0747
 1125YOPC   C3A15317   7.947  14.351   6.918 -0.1490 -0.3496 -0.1581
 1125YOPC   C4A15318   7.735  14.279   7.279  0.2820 -0.2381  0.0066
 1125YOPC   C1B15319   8.422  14.834   6.115 -0.0818 -0.0860  0.1078
 1125YOPC   C2B15320   8.541  15.039   6.436  0.1186  0.0254 -0.1792
 1125YOPC   D3B15321   8.513  14.810   6.782 -0.1752  0.0699  0.2035
 1125YOPC   C4B15322   8.350  14.576   7.056 -0.1050 -0.0640 -0.0959
 1126YOPC   NC315323   4.200  15.770   5.022  0.1233 -0.1504 -0.0583
 1126YOPC   PO415324   4.283  15.533   5.301  0.0835  0.0700  0.1823
 1126YOPC   GL115325   4.255  15.694   5.727  0.1584  0.1715  0.0512
 1126YOPC   GL215326   4.563  15.772   5.886 -0.1010  0.0231  0.3046
 1126YOPC   C1A15327   4.138  15.666   6.162  0.3173  0.2123 -0.0311
 1126YOPC   D2A15328   4.149  15.535   6.544  0.3596 -0.1084 -0.0331
 1126YOPC   C3A15329   4.329  15.809   6.864 -0.1720 -0.0864 -0.0096
 1126YOPC   C4A15330   4.726  15.949   7.061  0.2742  0.0904  0.0538
 1126YOPC   C1B15331   4.613  15.523   6.321  0.1886 -0.1097 -0.1745
 1126YOPC   C2B15332   4.668  15.349   6.892 -0.2999  0.3095  0.3111
 1126YOPC   D3B15333   4.456  15.551   7.279 -0.1300 -0.1342 -0.1009
 1126YOPC   C4B15334   4.313  15.548   7.737 -0.0355  0.2709  0.2593
 1127YOPC   NC315335  17.124   4.238   5.452  0.2089 -0.0408 -0.2877
 1127YOPC   PO415336  16.935   4.256   5.710  0.2226  0.0346 -0.2216
 1127YOPC   GL115337  16.777   4.242   6.045 -0.2128 -0.0745 -0.0466
 1127YOPC   GL215338  16.466   4.393   6.181 -0.1004  0.2465  0.0693
 1127YOPC   C1A15339  16.939   4.125   6.487 -0.0894  0.0498 -0.2264
 1127YOPC   D2A15340  17.120   3.970   6.836  0.0329 -0.0707 -0.0730
 1127YOPC   C3A15341  17.092   4.259   7.176 -0.0457  0.0169 -0.2489
 1127YOPC   C4A15342  17.479   4.340   7.595  0.2067  0.1052 -0.1399
 1127YOPC   C1B15343  16.571   4.460   6.500 -0.2930 -0.1121  0.0852
 1127YOPC   C2B15344  16.754   4.466   6.899  0.2726  0.0240 -0.2893
 1127YOPC   D3B15345  16.664   4.671   7.248  0.1782 -0.0092  0.1490
 1127YOPC   C4B15346  16.411   5.028   7.405 -0.1448  0.0494  0.0842
 1128YOPC   NC315347   3.763   9.123   5.623 -0.1805  0.3755 -0.0444
 1128YOPC   PO415348   3.463   9.084   5.809  0.1201 -0.0912  0.1246
 1128YOPC   GL115349   3.533   9.014   6.183  0.2216  0.0477 -0.2333
 1128YOPC   GL215350   3.452   9.357   6.295 -0.1255 -0.0422  0.0752
 1128YOPC   C1A15351   3.529   8.774   6.575  0.1035  0.4116  0.1502
 1128YOPC   D2A15352   3.283   8.521   6.837 -0.0243  0.1876  0.1965
 1128YOPC   C3A15353   3.231   8.719   7.245 -0.1093  0.0784  0.0124
 1128YOPC   C4A15354   3.080   8.866   7.533 -0.3059 -0.1216 -0.0224
 1128YOPC   C1B15355   3.526   9.389   6.620  0.1229 -0.2012  0.2625
 1128YOPC   C2B15356   3.480   9.136   6.998 -0.1082  0.0521 -0.1399
 1128YOPC   D3B15357   3.289   9.341   7.387  0.2552  0.0570  0.0604
 1128YOPC   C4B15358   2.965   9.278   7.837 -0.4473 -0.0662  0.1297
 1129YOPC   NC315359   2.110   4.790   5.290  0.1473 -0.0205 -0.0130
 1129YOPC   PO415360   2.174   4.957   5.721  0.1041  0.1861  0.1528
 1129YOPC   GL115361   1.983   5.115   5.945 -0.2945  0.1149  0.0519
 1129YOPC   GL215362   2.049   5.401   6.055  0.1705  0.1765  0.1147
 1129YOPC   C1A15363   1.859   5.049   6.368 -0.2695 -0.1588 -0.2258
 1129YOPC   D2A15364   1.944   5.026   6.772  0.0143  0.0973  0.1404
 1129YOPC   C3A15365   2.326   4.883   6.789  0.2622 -0.0105 -0.1180
 1129YOPC   C4A15366   2.672   4.729   7.015  0.2981  0.0625  0.2320
 1129YOPC   C1B15367   1.895   5.542   6.489 -0.0530  0.0787 -0.3898
 1129YOPC   C2B15368   1.909   5.712   6.956 -0.0150  0.0632 -0.0415
 1129YOPC   D3B15369   1.769   5.305   7.224  0.0541  0.1804  0.1104
 1129YOPC   C4B15370   1.486   5.077   7.484 -0.4745 -0.1281  0.2769
 1130YOPC   NC315371   4.433  17.163   4.829 -0.0718 -0.0067  0.0960
 1130YOPC   PO415372   4.911  17.166   5.003 -0.2390 -0.0446 -0.1947
 1130YOPC   GL115373   5.257  17.159   5.354  0.3079 -0.2274 -0.1543
 1130YOPC   GL215374   5.084  17.220   5.580  0.2322 -0.1432 -0.0239
 1130YOPC   C1A15375   5.602  17.199   5.672 -0.1804  0.0403  0.3089
 1130YOPC   D2A15376   6.036  16.847   5.778 -0.0818 -0.1864 -0.0281
 1130YOPC   C3A15377   6.134  16.686   6.278 -0.0641  0.0021 -0.0919
 1130YOPC   C4A15378   5.989  16.859   6.657 -0.0242  0.1085 -0.0128
 1130YOPC   C1B15379   5.266  16.837   5.759 -0.1923  0.0924  0.1664
 1130YOPC   C2B15380   5.413  16.614   6.112 -0.0252  0.2311 -0.3947
 1130YOPC   D3B15381   5.436  16.731   6.555  0.2701  0.2932 -0.1220
 1130YOPC   C4B15382   5.636  16.532   6.835 -0.1274 -0.1876  0.2910
 1131YOPC   NC315383  11.657   7.758   5.752  0.0145  0.2291 -0.0360
 1131YOPC   PO415384  11.378   8.001   6.074  0.2216 -0.3274 -0.1605
 1131YOPC   GL115385  11.752   7.892   6.352  0.0277  0.1153 -0.2674
 1131YOPC   GL215386  11.933   7.746   6.179 -0.0381 -0.0832  0.0505
 1131YOPC   C1A15387  11.871   7.635   6.804  0.2594 -0.0072  0.0797
 1131YOPC   D2A15388  12.315   7.679   6.935  0.2662  0.4335  0.0033
 1131YOPC   C3A15389  12.463   7.442   7.389  0.3163  0.0554 -0.1300
 1131YOPC   C4A15390  12.401   7.304   7.797 -0.0167 -0.1904 -0.0380
 1131YOPC   C1B15391  12.292   7.794   6.484  0.3181  0.0830 -0.0844
 1131YOPC   C2B15392  12.356   8.135   6.840  0.0487 -0.2846 -0.0129
 1131YOPC   D3B15393  12.454   8.222   7.324  0.0009  0.1773 -0.1956
 1131YOPC   C4B15394  12.520   8.170   7.688 -0.0670 -0.1138 -0.3893
 1132YOPC   NC315395  16.403  10.391   5.011  0.0813 -0.0231  0.0260
 1132YOPC   PO415396  16.078  10.590   5.186 -0.3975  0.2988  0.0129
 1132YOPC   GL115397  15.876  10.585   5.541 -0.0512  0.0904 -0.0048
 1132YOPC   GL215398  16.059  10.262   5.609  0.0121  0.0148  0.1482
 1132YOPC   C1A15399  15.520  10.582   5.794  0.0926 -0.0516 -0.0942
 1132YOPC   D2A15400  15.238  10.360   5.996 -0.1015  0.3559  0.0724
 1132YOPC   C3A15401  15.168  10.355   6.438  0.2830  0.0382 -0.1619
 1132YOPC   C4A15402  15.339  10.430   6.873 -0.1616 -0.0798  0.1716
 1132YOPC   C1B15403  15.988  10.567   5.998 -0.0966 -0.1957  0.1249
 1132YOPC   C2B15404  15.944  10.642   6.339  0.0808 -0.2732  0.1610
 1132YOPC   D3B15405  16.208  10.867   6.621  0.0875  0.0841  0.3285
 1132YOPC   C4B15406  16.233  10.802   7.067 -0.0919 -0.1129 -0.2205
 1133YOPC   NC315407  11.523   0.719   5.372 -0.0628 -0.0811  0.0655
 1133YOPC   PO415408  11.724   0.521   5.791  0.1378  0.3253 -0.0259
 1133YOPC   GL115409  11.712   0.635   6.207 -0.1499  0.1846  0.0546
 1133YOPC   GL215410  11.613   0.347   6.504 -0.3148  0.1281  0.1284
 1133YOPC   C1A15411  11.654   0.881   6.562  0.0643  0.0852 -0.1848
 1133YOPC   D2A15412  11.752   0.968   6.968  0.2344 -0.2854  0.0509
 1133YOPC   C3A15413  12.155   0.960   7.021  0.0282 -0.1102  0.0027
 1133YOPC   C4A15414  12.515   0.838   6.778 -0.0292 -0.0836 -0.0834
 1133YOPC   C1B15415  11.551   0.437   7.019 -0.1645  0.0817  0.0549
 1133YOPC   C2B15416  11.685   0.721   7.393  0.0535 -0.0770 -0.3571
 1133YOPC   D3B15417  11.447   0.798   7.715  0.1451  0.2645 -0.6093
 1133YOPC   C4B15418  11.274   1.113   7.985 -0.0836  0.3556  0.3974
 1134YOPC   NC315419   6.347   7.315   5.479  0.0517  0.0800  0.2966
 1134YOPC   PO415420   5.808   7.258   5.554  0.1690  0.0675  0.4386
 1134YOPC   GL115421   5.880   7.215   6.006  0.1895  0.4054  0.5191
 1134YOPC   GL215422   6.158   7.302   5.929  0.1276  0.1721 -0.1683
 1134YOPC   C1A15423   5.777   7.158   6.534 -0.0916 -0.1537 -0.2813
 1134YOPC   D2A15424   5.703   7.075   7.002  0.2234  0.2330  0.0498
 1134YOPC   C3A15425   5.922   7.133   7.346  0.2137  0.1170 -0.2735
 1134YOPC   C4A15426   5.928   7.395   7.652 -0.1177 -0.0800 -0.3378
 1134YOPC   C1B15427   6.282   6.988   6.214  0.1646  0.1124 -0.1113
 1134YOPC   C2B15428   6.531   6.617   6.429 -0.1989 -0.0586  0.3057
 1134YOPC   D3B15429   6.652   6.637   6.859  0.2104  0.1815  0.1831
 1134YOPC   C4B15430   6.764   6.708   7.228 -0.1756 -0.1344 -0.1173
 1135YOPC   NC315431  14.970   7.697   5.476  0.0076  0.0767  0.2706
 1135YOPC   PO415432  14.761   7.374   5.625  0.0414  0.0362 -0.0139
 1135YOPC   GL115433  14.591   7.187   6.050  0.1013 -0.0628 -0.1828
 1135YOPC   GL215434  14.519   6.914   6.115  0.5279  0.1516 -0.0646
 1135YOPC   C1A15435  14.573   7.121   6.511  0.0437  0.0025  0.1334
 1135YOPC   D2A15436  14.738   6.885   6.864 -0.1402 -0.1254  0.0411
 1135YOPC   C3A15437  14.403   7.092   7.124  0.1632  0.0988 -0.0982
 1135YOPC   C4A15438  14.299   7.220   7.541 -0.3660  0.0430  0.1045
 1135YOPC   C1B15439  14.307   6.531   6.397 -0.2276 -0.1763  0.4112
 1135YOPC   C2B15440  14.133   6.151   6.419 -0.1930  0.0480  0.0969
 1135YOPC   D3B15441  14.203   6.069   6.853 -0.1572 -0.2754 -0.4624
 1135YOPC   C4B15442  14.174   5.787   7.210  0.1795 -0.0250  0.2922
 1136YOPC   NC315443  17.243   1.915   5.199  0.1439  0.1036 -0.1980
 1136YOPC   PO415444  17.159   2.344   5.480  0.1182  0.1201 -0.3950
 1136YOPC   GL115445  17.117   2.229   5.894  0.0014  0.1988 -0.2969
 1136YOPC   GL215446  17.052   2.437   6.147  0.0418  0.0506 -0.0396
 1136YOPC   C1A15447  17.209   2.069   6.358 -0.0429 -0.4359  0.0628
 1136YOPC   D2A15448  17.137   1.833   6.751 -0.0106  0.1155  0.0292
 1136YOPC   C3A15449  17.194   1.535   7.039  0.2277 -0.2508  0.0962
 1136YOPC   C4A15450  17.211   1.677   7.442  0.2839 -0.0774  0.0750
 1136YOPC   C1B15451  16.870   2.391   6.513  0.3248  0.0933  0.0797
 1136YOPC   C2B15452  16.679   2.509   6.979 -0.1505 -0.0344  0.0828
 1136YOPC   D3B15453  16.770   2.756   7.294  0.1613  0.3142 -0.1549
 1136YOPC   C4B15454  16.666   2.799   7.711  0.5134 -0.2253  0.1469
 1137YOPC   NC315455   6.556   1.827   5.348 -0.1943  0.0373 -0.6036
 1137YOPC   PO415456   6.572   1.636   5.740 -0.1420 -0.0613 -0.0111
 1137YOPC   GL115457   6.543   1.790   6.103 -0.1312 -0.3587 -0.3513
 1137YOPC   GL215458   6.847   1.931   6.067  0.0365  0.1182 -0.1704
 1137YOPC   C1A15459   6.313   1.708   6.476  0.1585  0.1965  0.2053
 1137YOPC   D2A15460   6.179   1.574   6.800  0.2211 -0.2665  0.1843
 1137YOPC   C3A15461   5.860   1.834   7.050  0.0303  0.2324 -0.1160
 1137YOPC   C4A15462   5.741   2.061   7.401  0.0347 -0.3303  0.2126
 1137YOPC   C1B15463   6.738   2.006   6.516  0.0760 -0.1610  0.1944
 1137YOPC   C2B15464   6.467   2.053   6.931  0.2524  0.1096  0.0129
 1137YOPC   D3B15465   6.545   2.343   7.286 -0.0914 -0.1272 -0.1415
 1137YOPC   C4B15466   6.518   2.528   7.684  0.0588  0.2782  0.0011
 1138YOPC   NC315467   9.158  11.199   5.577  0.1694  0.1160 -0.1495
 1138YOPC   PO415468   8.808  11.402   5.496 -0.3629  0.1837 -0.0890
 1138YOPC   GL115469   8.792  11.323   5.932 -0.4751  0.0287 -0.0508
 1138YOPC   GL215470   8.993  11.463   6.191 -0.0563  0.3510  0.1484
 1138YOPC   C1A15471   8.663  11.073   6.104  0.2773  0.1067 -0.0645
 1138YOPC   D2A15472   8.340  10.954   6.410 -0.0824 -0.0602 -0.2660
 1138YOPC   C3A15473   8.468  11.140   6.867  0.5513 -0.0626 -0.0219
 1138YOPC   C4A15474   8.575  10.950   7.227  0.0020  0.0012 -0.1420
 1138YOPC   C1B15475   8.889  11.091   6.510 -0.0702  0.0516  0.2790
 1138YOPC   C2B15476   9.151  10.971   6.863 -0.1951 -0.0128  0.2905
 1138YOPC   D3B15477   9.115  10.784   7.177  0.0593 -0.1385  0.0338
 1138YOPC   C4B15478   9.037  10.700   7.604  0.0418  0.2935 -0.4393
 1139YOPC   NC315479   2.347   9.574   5.901 -0.0266  0.1053  0.0417
 1139YOPC   PO415480   2.059   9.809   5.496 -0.2044 -0.0357 -0.1692
 1139YOPC   GL115481   2.070  10.026   5.853 -0.0210  0.3090  0.2800
 1139YOPC   GL215482   2.325  10.145   6.077 -0.0821 -0.0997  0.0022
 1139YOPC   C1A15483   1.927  10.044   6.321  0.1981  0.2684  0.2592
 1139YOPC   D2A15484   2.054   9.786   6.697 -0.0653 -0.0972 -0.2854
 1139YOPC   C3A15485   1.932   9.652   7.048  0.0219  0.2061 -0.0368
 1139YOPC   C4A15486   1.707   9.507   7.347 -0.1793 -0.0416 -0.1282
 1139YOPC   C1B15487   2.386  10.098   6.512 -0.0018 -0.0128  0.1930
 1139YOPC   C2B15488   2.518   9.757   6.841 -0.2824 -0.2541 -0.0588
 1139YOPC   D3B15489   2.431   9.627   7.178 -0.0324  0.0694 -0.6293
 1139YOPC   C4B15490   2.153   9.695   7.568  0.3292  0.2069  0.0408
 1140YOPC   NC315491  17.518   6.024   5.380 -0.0847  0.1091  0.1161
 1140YOPC   PO415492  18.057   6.007   5.537  0.0933 -0.0088  0.0911
 1140YOPC   GL115493  18.198   6.213   6.006  0.1093  0.0144 -0.0691
 1140YOPC   GL215494  17.973   6.240   6.212 -0.4194  0.1039  0.0392
 1140YOPC   C1A15495  18.411   6.349   6.330  0.3395 -0.1526 -0.4270
 1140YOPC   D2A15496  18.555   6.382   6.755 -0.2405  0.0091 -0.1290
 1140YOPC   C3A15497  18.972   6.266   6.921  0.0624  0.0103 -0.1591
 1140YOPC   C4A15498  19.229   6.332   7.176  0.0793 -0.2377 -0.1227
 1140YOPC   C1B15499  18.049   5.806   6.279  0.2155 -0.0391 -0.0053
 1140YOPC   C2B15500  18.292   5.526   6.622  0.1268  0.1054 -0.0863
 1140YOPC   D3B15501  18.214   5.356   6.963  0.4000 -0.1090 -0.2132
 1140YOPC   C4B15502  18.414   5.537   7.204 -0.0247  0.2057  0.2001
 1141YOPC   NC315503   0.229  12.152   4.632  0.0338 -0.0858 -0.6187
 1141YOPC   PO415504   0.385  12.229   5.059  0.0296 -0.0885  0.1329
 1141YOPC   GL115505   0.312  12.615   5.365 -0.3522  0.0335 -0.1347
 1141YOPC   GL215506  -0.022  12.727   5.519 -0.1249 -0.1645  0.1269
 1141YOPC   C1A15507   0.358  12.814   5.698  0.0567 -0.1618 -0.1985
 1141YOPC   D2A15508   0.200  13.186   5.949 -0.1337  0.0532 -0.3895
 1141YOPC   C3A15509   0.485  13.490   6.089  0.0088 -0.1207 -0.0392
 1141YOPC   C4A15510   0.643  13.756   5.883 -0.2515 -0.2851  0.5732
 1141YOPC   C1B15511  -0.106  12.732   5.927 -0.1407 -0.3013  0.2092
 1141YOPC   C2B15512  -0.327  12.762   6.308  0.2236  0.5879  0.1255
 1141YOPC   D3B15513  -0.468  13.177   6.549  0.2255  0.0064  0.1616
 1141YOPC   C4B15514  -0.781  13.406   6.358  0.3200  0.0536 -0.2405
 1142YOPC   NC315515  10.476   0.621   6.022  0.1784  0.2085  0.3050
 1142YOPC   PO415516  10.865   0.447   5.836 -0.1781 -0.2053 -0.1349
 1142YOPC   GL115517  10.897   0.467   6.273 -0.1983  0.2250  0.0197
 1142YOPC   GL215518  11.027   0.334   6.380 -0.0759 -0.0931 -0.0180
 1142YOPC   C1A15519  10.681   0.463   6.716  0.1685  0.0290  0.0291
 1142YOPC   D2A15520  10.593   0.726   7.040  0.3022 -0.1545 -0.2997
 1142YOPC   C3A15521  10.510   0.585   7.296 -0.2289  0.0070  0.1026
 1142YOPC   C4A15522  10.308   0.573   7.601 -0.0567  0.0490 -0.0089
 1142YOPC   C1B15523  11.051   0.190   6.856 -0.0932 -0.2340 -0.2693
 1142YOPC   C2B15524  10.857   0.176   7.203 -0.2976  0.3751  0.0563
 1142YOPC   D3B15525  10.483   0.116   7.099 -0.4464  0.0136 -0.0467
 1142YOPC   C4B15526  10.140   0.198   7.153 -0.1773 -0.1931 -0.0570
 1143YOPC   NC315527  16.644   2.436   5.890 -0.0563  0.1025  0.0402
 1143YOPC   PO415528  16.644   2.882   5.803 -0.0090 -0.0086  0.0404
 1143YOPC   GL115529  16.836   2.883   6.130 -0.4310 -0.1501 -0.3718
 1143YOPC   GL215530  16.763   3.125   6.296 -0.4675 -0.1695  0.2126
 1143YOPC   C1A15531  16.938   2.842   6.641 -0.1721  0.2583 -0.1208
 1143YOPC   D2A15532  17.025   3.011   6.985 -0.0880 -0.2031  0.2941
 1143YOPC   C3A15533  16.689   3.249   7.218 -0.1539 -0.2968  0.2430
 1143YOPC   C4A15534  16.474   3.259   7.567  0.1897 -0.0724  0.0928
 1143YOPC   C1B15535  16.680   3.255   6.682 -0.0256 -0.1192 -0.1434
 1143YOPC   C2B15536  16.890   3.549   6.924  0.2108 -0.1936 -0.0263
 1143YOPC   D3B15537  17.015   3.629   7.340  0.0928 -0.1471 -0.1058
 1143YOPC   C4B15538  17.095   3.792   7.710  0.0673  0.1040 -0.0026
 1144ERGO   ROH15539   3.439   8.232   6.256  0.2121 -0.0190 -0.0139
 1144ERGO    R115540   3.427   8.028   6.451 -0.0227 -0.1055 -0.1149
 1144ERGO    R215541   3.515   8.064   6.710  0.2362 -0.4039 -0.1513
 1144ERGO    R315542   3.265   7.980   6.773  0.1169  0.0264 -0.0253
 1144ERGO    R415543   3.434   7.880   6.991  0.0844 -0.4071 -0.1976
 1144ERGO    R515544   3.297   7.762   6.869 -0.2227 -0.0895 -0.1673
 1144ERGO    C115545   3.151   7.695   7.215 -0.1159 -0.0050 -0.1063
 1144ERGO    C215546   3.082   7.719   7.641 -0.0780 -0.2387 -0.1866
 1145ERGO   ROH15547   0.916  17.618   6.111 -0.1848 -0.0738 -0.1605
 1145ERGO    R115548   1.002  17.615   6.381 -0.1015  0.0741 -0.1853
 1145ERGO    R215549   0.829  17.653   6.593 -0.0691 -0.0168 -0.1500
 1145ERGO    R315550   0.933  17.417   6.678  0.1591  0.0957 -0.1052
 1145ERGO    R415551   0.833  17.547   6.922 -0.1215 -0.0093 -0.1461
 1145ERGO    R515552   1.034  17.470   6.889 -0.0062  0.2174 -0.0473
 1145ERGO    C115553   0.933  17.263   7.193  0.0622  0.1003 -0.1017
 1145ERGO    C215554   0.874  17.039   7.469  0.1949 -0.0513 -0.0235
 1146ERGO   ROH15555  13.772   8.343   6.529  0.1165  0.1710 -0.1742
 1146ERGO    R115556  13.556   8.500   6.622  0.0411 -0.0518  0.0385
 1146ERGO    R215557  13.450   8.473   6.876  0.4761 -0.0036  0.2313
 1146ERGO    R315558  13.500   8.740   6.890  0.1364  0.0827 -0.0597
 1146ERGO    R415559  13.330   8.684   7.122  0.5735  0.0162  0.2625
 1146ERGO    R515560  13.295   8.835   6.968  0.1207 -0.1428  0.1915
 1146ERGO    C115561  13.307   9.058   7.278  0.3111  0.1087  0.0075
 1146ERGO    C215562  13.155   9.363   7.443  0.3428 -0.0141  0.1936
 1147ERGO   ROH15563  16.483  18.406   6.444 -0.1196  0.1019 -0.0425
 1147ERGO    R115564  16.425  18.584   6.656 -0.0631 -0.0468  0.1005
 1147ERGO    R215565  16.494  18.531   6.919  0.2325 -0.1199  0.0132
 1147ERGO    R315566  16.615  18.774   6.902  0.0209 -0.0126  0.0092
 1147ERGO    R415567  16.518  18.758   7.178  0.1225 -0.1332  0.0355
 1147ERGO    R515568  16.478  18.918   7.036 -0.0587 -0.1468  0.0718
 1147ERGO    C115569  16.646  19.118   7.314 -0.1401 -0.0403  0.0448
 1147ERGO    C215570  16.736  19.232   7.665 -0.0600 -0.2925 -0.0662
 1148ERGO   ROH15571  12.946   2.864   6.307 -0.0355  0.0310 -0.0532
 1148ERGO    R115572  12.986   2.769   6.571 -0.0534  0.0437 -0.0459
 1148ERGO    R215573  13.166   2.885   6.746  0.0482 -0.0432 -0.0908
 1148ERGO    R315574  12.948   2.901   6.908  0.0822  0.1167 -0.0587
 1148ERGO    R415575  13.177   2.925   7.089  0.1299 -0.1561 -0.0799
 1148ERGO    R515576  13.013   2.783   7.106 -0.0045 -0.0052 -0.1020
 1148ERGO    C115577  12.980   2.962   7.441  0.2096 -0.0718 -0.0435
 1148ERGO    C215578  12.919   2.970   7.896  0.2197  0.3912  0.0238
 1149ERGO   ROH15579  18.345   8.245   6.147  0.4467  0.0232  0.0355
 1149ERGO    R115580  18.270   8.181   6.413  0.4240 -0.0116  0.0206
 1149ERGO    R215581  18.453   8.114   6.608  0.4386  0.2647  0.1070
 1149ERGO    R315582  18.333   8.316   6.745  0.1285  0.1488  0.0160
 1149ERGO    R415583  18.300   8.080   6.916  0.4400  0.1601  0.0969
 1149ERGO    R515584  18.143   8.213   6.847  0.2563 -0.0878  0.0245
 1149ERGO    C115585  18.099   8.249   7.224  0.1498 -0.0097  0.0055
 1149ERGO    C215586  18.041   8.462   7.497 -0.1588  0.1584  0.1571
 1150ERGO   ROH15587  12.241   7.338   6.159  0.2089  0.1741  0.1038
 1150ERGO    R115588  12.375   7.301   6.406  0.2818  0.0304  0.0415
 1150ERGO    R215589  12.248   7.331   6.650  0.4087  0.0897  0.0881
 1150ERGO    R315590  12.344   7.080   6.693  0.2349  0.0085  0.0237
 1150ERGO    R415591  12.374   7.216   6.951  0.3227 -0.0592  0.0706
 1150ERGO    R515592  12.530   7.112   6.841  0.2611 -0.1446  0.0396
 1150ERGO    C115593  12.536   6.914   7.167  0.1095 -0.2222 -0.0002
 1150ERGO    C215594  12.655   6.942   7.454  0.0318  0.1720  0.0113
 1151ERGO   ROH15595  11.692   5.801   5.869 -0.4267 -0.1206 -0.0277
 1151ERGO    R115596  11.723   5.857   6.144 -0.3352 -0.0564 -0.0520
 1151ERGO    R215597  11.531   5.794   6.332 -0.1352 -0.3024  0.0651
 1151ERGO    R315598  11.738   5.665   6.453  0.1133 -0.0136 -0.0370
 1151ERGO    R415599  11.573   5.769   6.674 -0.0215 -0.3566  0.0485
 1151ERGO    R515600  11.787   5.802   6.644 -0.0678  0.0090  0.0037
 1151ERGO    C115601  11.792   5.635   6.987  0.2780 -0.1172 -0.0570
 1151ERGO    C215602  11.631   5.817   7.240  0.0345  0.1200  0.0416
 1152ERGO   ROH15603   3.957  10.316   5.966 -0.0565 -0.2703 -0.0169
 1152ERGO    R115604   3.865  10.476   6.180 -0.0330 -0.1738 -0.0787
 1152ERGO    R215605   3.744  10.369   6.404 -0.1028 -0.0647 -0.0661
 1152ERGO    R315606   3.936  10.510   6.535 -0.0747 -0.0909 -0.0768
 1152ERGO    R415607   3.704  10.517   6.714  0.0225 -0.3124  0.0713
 1152ERGO    R515608   3.817  10.689   6.642 -0.0830 -0.2123  0.1286
 1152ERGO    C115609   3.861  10.735   7.018  0.1219 -0.4813  0.1412
 1152ERGO    C215610   3.927  10.811   7.276  0.1526  0.1129 -0.0451
 1153ERGO   ROH15611   0.712   1.334   6.088  0.0825 -0.0873 -0.1170
 1153ERGO    R115612   0.793   1.478   6.317 -0.1701 -0.0224 -0.0663
 1153ERGO    R215613   1.010   1.649   6.316 -0.0406 -0.1887  0.1754
 1153ERGO    R315614   0.829   1.828   6.411 -0.0579  0.0049 -0.2030
 1153ERGO    R415615   1.091   1.949   6.467 -0.0395 -0.1293  0.0595
 1153ERGO    R515616   0.930   1.915   6.610 -0.2651  0.0836 -0.1243
 1153ERGO    C115617   0.969   2.293   6.643 -0.0552  0.0871 -0.3632
 1153ERGO    C215618   1.164   2.445   6.685 -0.2572 -0.2012 -0.0445
 1154ERGO   ROH15619   1.377   0.715   5.836 -0.0813 -0.0656  0.1809
 1154ERGO    R115620   1.564   0.688   6.047 -0.1773 -0.3032  0.2384
 1154ERGO    R215621   1.648   0.902   6.200  0.1390 -0.3839  0.1830
 1154ERGO    R315622   1.567   0.744   6.407 -0.1775 -0.1820  0.2204
 1154ERGO    R415623   1.656   0.994   6.533  0.1156 -0.2385  0.1440
 1154ERGO    R515624   1.723   0.792   6.582 -0.1858 -0.3175  0.2685
 1154ERGO    C115625   1.586   0.900   6.921 -0.1952  0.0357  0.1564
 1154ERGO    C215626   1.478   1.201   6.950  0.0301  0.1123 -0.0829
 1155ERGO   ROH15627  18.781   7.091   5.929  0.0258  0.1683  0.0715
 1155ERGO    R115628  18.742   7.108   6.209  0.0670  0.1223  0.0801
 1155ERGO    R215629  18.494   7.155   6.322  0.1099  0.2680  0.1177
 1155ERGO    R315630  18.550   6.928   6.460 -0.0348  0.1898  0.0509
 1155ERGO    R415631  18.362   7.073   6.631 -0.1501  0.1251 -0.0274
 1155ERGO    R515632  18.557   6.997   6.689 -0.2092  0.0697  0.0934
 1155ERGO    C115633  18.338   6.813   6.940 -0.4370 -0.0316 -0.1745
 1155ERGO    C215634  18.351   6.539   7.195 -0.3299 -0.0462  0.2503
 1156ERGO   ROH15635  13.336   1.729   6.546  0.2303 -0.0859 -0.0753
 1156ERGO    R115636  13.192   1.799   6.780  0.2069  0.1299 -0.1534
 1156ERGO    R215637  13.166   1.628   6.995 -0.2607  0.1201 -0.2131
 1156ERGO    R315638  13.267   1.839   7.134  0.0538 -0.1007 -0.0913
 1156ERGO    R415639  13.128   1.679   7.335 -0.1640 -0.0351 -0.1775
 1156ERGO    R515640  13.098   1.891   7.295  0.1324  0.0400 -0.0475
 1156ERGO    C115641  13.200   1.906   7.663  0.1875 -0.3327 -0.0423
 1156ERGO    C215642  13.210   2.071   7.933  0.0003 -0.0280 -0.0050
 1157ERGO   ROH15643   3.072  13.172   5.821  0.2629 -0.0604 -0.0985
 1157ERGO    R115644   2.961  13.065   6.058  0.1649  0.0563 -0.0894
 1157ERGO    R215645   3.099  12.891   6.223 -0.0020 -0.0945 -0.0918
 1157ERGO    R315646   3.038  13.075   6.414  0.2036 -0.0196 -0.0981
 1157ERGO    R415647   3.121  12.838   6.564 -0.0279 -0.0797 -0.0891
 1157ERGO    R515648   2.935  12.948   6.588  0.0928  0.1077 -0.0788
 1157ERGO    C115649   3.076  12.980   6.941  0.1499 -0.0008 -0.0935
 1157ERGO    C215650   3.224  13.251   7.122 -0.1317 -0.2177  0.0647
 1158ERGO   ROH15651   4.284  16.694   5.848  0.0889  0.0113 -0.0124
 1158ERGO    R115652   4.303  16.635   6.124  0.0352  0.0697  0.0045
 1158ERGO    R215653   4.544  16.637   6.261  0.0139  0.0733  0.0472
 1158ERGO    R315654   4.412  16.809   6.424  0.0031  0.1247 -0.0163
 1158ERGO    R415655   4.673  16.771   6.551 -0.0339  0.1178  0.0475
 1158ERGO    R515656   4.479  16.745   6.645 -0.0548  0.1639  0.0105
 1158ERGO    C115657   4.625  17.012   6.874 -0.0719  0.1917 -0.0118
 1158ERGO    C215658   4.897  17.236   6.928 -0.0826  0.3531 -0.2121
 1159ERGO   ROH15659  11.874   1.753   6.424  0.0063  0.0174 -0.0065
 1159ERGO    R115660  12.062   1.816   6.627 -0.0791 -0.0457  0.0934
 1159ERGO    R215661  12.152   2.073   6.672  0.0800 -0.0925  0.0563
 1159ERGO    R315662  12.068   2.023   6.926 -0.1252  0.0600  0.0215
 1159ERGO    R415663  12.312   2.183   6.958  0.1898 -0.4234  0.1257
 1159ERGO    R515664  12.271   1.989   7.050 -0.2350 -0.3518  0.1027
 1159ERGO    C115665  12.327   2.199   7.363  0.0614 -0.4730  0.1335
 1159ERGO    C215666  12.410   2.334   7.617  0.1026 -0.2100 -0.0849
 1160ERGO   ROH15667  15.902   5.957   6.433  0.1166  0.2204 -0.0418
 1160ERGO    R115668  15.956   5.862   6.694  0.0398  0.0776 -0.0766
 1160ERGO    R215669  16.050   6.026   6.895 -0.0305 -0.0293  0.0445
 1160ERGO    R315670  15.835   5.930   7.030 -0.0680 -0.1155 -0.0747
 1160ERGO    R415671  16.046   5.951   7.232 -0.1862 -0.0276  0.0438
 1160ERGO    R515672  15.927   5.774   7.186 -0.0900 -0.0771 -0.0220
 1160ERGO    C115673  15.842   5.817   7.556 -0.3120 -0.1075 -0.0684
 1160ERGO    C215674  15.539   5.655   7.770 -0.0903 -0.1537 -0.1104
 1161ERGO   ROH15675   4.537   9.144   7.925 -0.1160  0.1580 -0.1888
 1161ERGO    R115676   4.455   8.900   7.807 -0.0278  0.1616 -0.2607
 1161ERGO    R215677   4.510   8.654   7.920  0.0393  0.1464 -0.3189
 1161ERGO    R315678   4.241   8.621   7.901  0.0516  0.0706 -0.3523
 1161ERGO    R415679   4.354   8.367   7.807  0.1359  0.2056 -0.6105
 1161ERGO    R515680   4.211   8.492   7.701  0.0943  0.2629 -0.4820
 1161ERGO    C115681   4.010   8.169   7.723  0.2036  0.1689 -0.8116
 1161ERGO    C215682   3.979   7.945   8.023 -0.2474 -0.1751  0.3034
 1162ERGO   ROH15683  12.287   2.983   6.605  0.3243 -0.1885  0.0629
 1162ERGO    R115684  12.092   2.989   6.810  0.1967 -0.1631 -0.0576
 1162ERGO    R215685  12.139   2.891   7.064  0.0254 -0.1719 -0.0269
 1162ERGO    R315686  12.060   3.139   7.140  0.0124 -0.1612 -0.0755
 1162ERGO    R415687  12.039   2.976   7.383  0.1566 -0.0805 -0.0095
 1162ERGO    R515688  11.882   3.099   7.296  0.0923 -0.1419  0.0209
 1162ERGO    C115689  11.906   3.259   7.641  0.2208 -0.0172 -0.0450
 1162ERGO    C215690  11.993   3.109   7.874 -0.3312 -0.2112  0.1949
 1163ERGO   ROH15691  11.141   0.875   6.499 -0.0067 -0.2133  0.1311
 1163ERGO    R115692  11.205   0.710   6.720 -0.1612 -0.2085  0.1799
 1163ERGO    R215693  11.269   0.813   6.969 -0.0540 -0.1932  0.1442
 1163ERGO    R315694  11.069   0.649   7.051 -0.2126  0.0256  0.2047
 1163ERGO    R415695  11.172   0.769   7.297  0.0208 -0.1070  0.1787
 1163ERGO    R515696  11.148   0.556   7.257 -0.2363 -0.0817  0.1683
 1163ERGO    C115697  10.927   0.589   7.566 -0.0845  0.1487  0.2556
 1163ERGO    C215698  10.947   0.750   7.856  0.2534 -0.3862 -0.0421
 1164ERGO   ROH15699   8.039  13.441   5.517  0.1445  0.0965  0.1020
 1164ERGO    R115700   7.986  13.391   5.791  0.0530  0.1858  0.1006
 1164ERGO    R215701   7.739  13.436   5.905 -0.0456  0.0187 -0.0494
 1164ERGO    R315702   7.763  13.176   5.981  0.1518  0.0764  0.0959
 1164ERGO    R415703   7.529  13.275   6.127 -0.0916 -0.0853 -0.1657
 1164ERGO    R515704   7.703  13.177   6.213 -0.0635  0.1318  0.0449
 1164ERGO    C115705   7.429  12.938   6.329  0.0671 -0.0917 -0.0971
 1164ERGO    C215706   7.320  12.598   6.474 -0.1763 -0.2613 -0.0865
 1165ERGO   ROH15707   0.227  17.435   6.058 -0.0813  0.2006  0.1394
 1165ERGO    R115708   0.296  17.291   6.292  0.0600  0.1697  0.0795
 1165ERGO    R215709   0.496  17.374   6.465 -0.0122  0.2893  0.1056
 1165ERGO    R315710   0.298  17.356   6.650  0.0080  0.0285  0.1060
 1165ERGO    R415711   0.542  17.285   6.795  0.0960  0.2974  0.0933
 1165ERGO    R515712   0.360  17.168   6.785  0.2330  0.0797  0.0794
 1165ERGO    C115713   0.384  17.216   7.162  0.1780  0.0570  0.0868
 1165ERGO    C215714   0.269  17.104   7.479 -0.2034  0.0340  0.2377
 1166ERGO   ROH15715  12.105  15.480   6.685  0.0300  0.0404  0.0469
 1166ERGO    R115716  12.037  15.480   6.960 -0.1056  0.0278  0.0147
 1166ERGO    R215717  11.916  15.265   7.084  0.1719 -0.1283  0.0263
 1166ERGO    R315718  12.127  15.286   7.255  0.0629  0.2645  0.1224
 1166ERGO    R415719  11.900  15.206   7.424  0.1629 -0.3433 -0.0104
 1166ERGO    R515720  12.031  15.378   7.455 -0.2347 -0.0513  0.1338
 1166ERGO    C115721  12.088  15.191   7.783  0.0555 -0.0997  0.0585
 1166ERGO    C215722  12.006  15.070   8.001 -0.0606  0.2790  0.1216
 1167ERGO   ROH15723   8.710   7.257   6.132  0.0909  0.2018  0.0274
 1167ERGO    R115724   8.623   7.451   6.319 -0.0154  0.1720  0.0102
 1167ERGO    R215725   8.415   7.406   6.495 -0.0435  0.1022 -0.0357
 1167ERGO    R315726   8.599   7.478   6.681 -0.1065  0.1583  0.0043
 1167ERGO    R415727   8.354   7.616   6.763 -0.1253  0.1899 -0.1225
 1167ERGO    R515728   8.549   7.707   6.730 -0.1151  0.1729 -0.0846
 1167ERGO    C115729   8.492   7.805   7.094 -0.2321  0.2935 -0.1354
 1167ERGO    C215730   8.565   7.768   7.494 -0.1515 -0.1271  0.1351
 1168ERGO   ROH15731   2.918  14.067   5.620 -0.1040  0.0342  0.1166
 1168ERGO    R115732   2.760  14.058   5.854 -0.1076  0.0208  0.1143
 1168ERGO    R215733   2.866  14.010   6.105 -0.1148 -0.0321  0.1119
 1168ERGO    R315734   2.739  14.242   6.167 -0.0822 -0.0224  0.1397
 1168ERGO    R415735   2.893  14.175   6.407  0.2104  0.1438 -0.0080
 1168ERGO    R515736   2.680  14.217   6.398  0.1947  0.0974  0.2239
 1168ERGO    C115737   2.789  14.489   6.642  0.4305  0.2552 -0.0516
 1168ERGO    C215738   2.949  14.635   6.809  0.0510  0.1389  0.2045
 1169ERGO   ROH15739  10.045  17.577   5.804  0.2632 -0.1690  0.0036
 1169ERGO    R115740  10.096  17.534   6.079  0.2567  0.0371  0.0393
 1169ERGO    R215741  10.113  17.740   6.261 -0.2377  0.1510 -0.0260
 1169ERGO    R315742   9.923  17.597   6.393  0.0036 -0.2013 -0.0487
 1169ERGO    R415743  10.054  17.756   6.601 -0.3876  0.1299 -0.0508
 1169ERGO    R515744  10.026  17.540   6.602  0.0515  0.0667  0.0018
 1169ERGO    C115745   9.841  17.631   6.923 -0.2482 -0.2132 -0.0866
 1169ERGO    C215746   9.860  17.484   7.187 -0.0605 -0.0012 -0.0457
 1170ERGO   ROH15747   0.069   2.396   6.200 -0.0377  0.1736  0.1107
 1170ERGO    R115748   0.056   2.529   6.449  0.0839  0.1651  0.1220
 1170ERGO    R215749  -0.044   2.410   6.677 -0.0029  0.2287  0.1162
 1170ERGO    R315750   0.196   2.482   6.782  0.0627  0.0248  0.1119
 1170ERGO    R415751   0.071   2.316   6.989 -0.0399  0.0574  0.0799
 1170ERGO    R515752   0.151   2.517   7.015  0.1110 -0.0053  0.1269
 1170ERGO    C115753   0.364   2.330   7.269  0.0002 -0.2337  0.0547
 1170ERGO    C215754   0.641   2.280   7.607 -0.2295  0.0539  0.1872
 1171ERGO   ROH15755   0.001  10.123   5.956  0.0654  0.0619 -0.1405
 1171ERGO    R115756   0.055  10.169   6.230  0.0374  0.1628 -0.1508
 1171ERGO    R215757  -0.146  10.197   6.418  0.0122  0.3160 -0.1902
 1171ERGO    R315758  -0.010   9.998   6.545 -0.0760  0.3195 -0.0900
 1171ERGO    R415759  -0.145  10.144   6.760 -0.1364  0.3716 -0.1806
 1171ERGO    R515760   0.068  10.098   6.747 -0.1459  0.3357 -0.0776
 1171ERGO    C115761  -0.016   9.927   7.078 -0.3055  0.4073 -0.0808
 1171ERGO    C215762   0.151   9.844   7.312  0.2618 -0.1160  0.1125
 1172ERGO   ROH15763   7.759   5.082   6.535 -0.0813  0.1533 -0.0370
 1172ERGO    R115764   7.644   5.025   6.787  0.0664  0.0528  0.0096
 1172ERGO    R215765   7.751   5.118   7.024  0.0586  0.1814 -0.0345
 1172ERGO    R315766   7.500   5.216   7.062 -0.0314 -0.0714  0.0452
 1172ERGO    R415767   7.650   5.300   7.300  0.0797  0.4406 -0.1953
 1172ERGO    R515768   7.461   5.190   7.297  0.2060  0.2024  0.1185
 1172ERGO    C115769   7.356   5.499   7.495  0.0074  0.3543 -0.2142
 1172ERGO    C215770   7.339   5.735   7.634 -0.1339  0.1816 -0.3118
 1173ERGO   ROH15771   5.314  14.394   5.885 -0.0632  0.1567 -0.0662
 1173ERGO    R115772   5.495  14.313   6.087 -0.1386 -0.0381 -0.0739
 1173ERGO    R215773   5.567  14.478   6.297  0.1291 -0.0723 -0.1324
 1173ERGO    R315774   5.485  14.267   6.448 -0.1439  0.0826 -0.0588
 1173ERGO    R415775   5.553  14.476   6.642  0.3728 -0.0189 -0.1210
 1173ERGO    R515776   5.629  14.272   6.639  0.0052 -0.1602 -0.1624
 1173ERGO    C115777   5.468  14.278   6.985  0.2585  0.1575 -0.0453
 1173ERGO    C215778   5.407  14.269   7.312 -0.2280 -0.1056  0.3450
 1174ERGO   ROH15779  17.753  10.052   5.593 -0.0846  0.1366  0.1428
 1174ERGO    R115780  17.710  10.084   5.871 -0.1823  0.1242  0.1300
 1174ERGO    R215781  17.459  10.123   5.979 -0.2446 -0.0493  0.0622
 1174ERGO    R315782  17.526   9.909   6.132 -0.1275  0.0068  0.0890
 1174ERGO    R415783  17.340  10.063   6.298 -0.5207 -0.2837 -0.0800
 1174ERGO    R515784  17.540   9.997   6.355 -0.4938 -0.0261  0.1269
 1174ERGO    C115785  17.335   9.827   6.628 -0.5720 -0.3675 -0.1375
 1174ERGO    C215786  17.359   9.859   6.999  0.1163  0.4055  0.1225
 1175ERGO   ROH15787   6.127  11.964   5.550 -0.0326 -0.0812 -0.0274
 1175ERGO    R115788   6.317  11.890   5.746 -0.0190 -0.1785 -0.0769
 1175ERGO    R215789   6.266  11.908   6.017  0.0929 -0.0617 -0.0637
 1175ERGO    R315790   6.339  11.646   6.015 -0.1158 -0.1223 -0.0168
 1175ERGO    R415791   6.355  11.725   6.296  0.0535 -0.0497 -0.0429
 1175ERGO    R515792   6.513  11.631   6.178 -0.0633 -0.2105 -0.0776
 1175ERGO    C115793   6.476  11.373   6.457 -0.1653 -0.0996  0.0133
 1175ERGO    C215794   6.365  11.223   6.780  0.1374  0.1874  0.1228
 1176ERGO   ROH15795  11.042  15.746   6.224 -0.2613  0.2515 -0.2354
 1176ERGO    R115796  10.916  15.902   6.424 -0.2413  0.0980 -0.1014
 1176ERGO    R215797  10.834  15.796   6.667  0.1105 -0.0110 -0.0277
 1176ERGO    R315798  10.985  15.997   6.768 -0.0121  0.1503 -0.1602
 1176ERGO    R415799  10.825  15.904   6.995  0.0668  0.1746 -0.0884
 1176ERGO    R515800  10.841  16.109   6.923 -0.0748  0.1460 -0.2123
 1176ERGO    C115801  10.962  16.156   7.281 -0.0735  0.4341 -0.2481
 1176ERGO    C215802  10.831  16.080   7.607 -0.2382 -0.1380  0.1173
 1177ERGO   ROH15803  12.874  11.106   7.913  0.0312 -0.3535  0.1585
 1177ERGO    R115804  12.684  11.048   7.712  0.0374 -0.2439  0.1212
 1177ERGO    R215805  12.748  10.910   7.481  0.0573 -0.0649  0.0213
 1177ERGO    R315806  12.543  10.749   7.559  0.0877 -0.1605 -0.0922
 1177ERGO    R415807  12.612  10.658   7.288 -0.0368  0.1881 -0.2518
 1177ERGO    R515808  12.415  10.717   7.359 -0.0052  0.1055 -0.0811
 1177ERGO    C115809  12.341  10.360   7.249 -0.0631  0.2458 -0.5173
 1177ERGO    C215810  12.059  10.216   7.159 -0.2052 -0.0937  0.2336
 1178ERGO   ROH15811  16.524  13.846   6.070 -0.4945  0.2588  0.1119
 1178ERGO    R115812  16.540  13.655   6.278 -0.3285  0.2165  0.0627
 1178ERGO    R215813  16.768  13.620   6.431 -0.1666  0.1133 -0.1890
 1178ERGO    R315814  16.596  13.660   6.638  0.0694  0.1374  0.0063
 1178ERGO    R415815  16.806  13.489   6.748  0.1351  0.0587 -0.2461
 1178ERGO    R515816  16.592  13.450   6.753  0.1287  0.1252 -0.0180
 1178ERGO    C115817  16.667  13.449   7.127  0.5325  0.0495 -0.0961
 1178ERGO    C215818  16.718  13.282   7.329 -0.0766  0.1753 -0.2209
 1179ERGO   ROH15819   5.027  16.215   5.647  0.1878  0.0553  0.0458
 1179ERGO    R115820   5.106  16.315   5.900  0.0149  0.0603  0.0974
 1179ERGO    R215821   4.928  16.430   6.077 -0.1340 -0.0909  0.0390
 1179ERGO    R315822   5.027  16.244   6.248 -0.0851 -0.0536  0.0539
 1179ERGO    R415823   4.937  16.462   6.421 -0.1312 -0.0484  0.0363
 1179ERGO    R515824   5.135  16.372   6.419 -0.1058 -0.0063  0.0375
 1179ERGO    C115825   5.037  16.306   6.782 -0.0835  0.0116  0.0487
 1179ERGO    C215826   5.068  16.252   7.145  0.2197  0.0156  0.2633
 1180ERGO   ROH15827  14.953   1.854   6.654 -0.0127  0.0356  0.0849
 1180ERGO    R115828  14.786   1.976   6.847 -0.0020  0.0845  0.0629
 1180ERGO    R215829  14.741   1.866   7.096 -0.0624  0.1005  0.0571
 1180ERGO    R315830  14.823   2.110   7.183 -0.0068  0.0792  0.0662
 1180ERGO    R415831  14.699   1.984   7.418  0.3279 -0.0664  0.1749
 1180ERGO    R515832  14.650   2.180   7.334  0.1683 -0.0353  0.3288
 1180ERGO    C115833  14.752   2.282   7.687  0.6072 -0.1837  0.2520
 1180ERGO    C215834  15.152   2.363   7.977  0.0136 -0.0408 -0.1251
 1181ERGO   ROH15835  12.117   0.293   6.361  0.2678 -0.1542 -0.1061
 1181ERGO    R115836  12.226   0.447   6.571  0.2289 -0.1853 -0.0630
 1181ERGO    R215837  12.077   0.529   6.789  0.1765 -0.1751 -0.1037
 1181ERGO    R315838  12.275   0.408   6.930  0.1141 -0.2155 -0.0501
 1181ERGO    R415839  12.073   0.479   7.131  0.1697  0.0245 -0.0732
 1181ERGO    R515840  12.285   0.530   7.136  0.2037 -0.1011 -0.1203
 1181ERGO    C115841  12.256   0.336   7.462  0.1072  0.1027 -0.0050
 1181ERGO    C215842  12.310   0.293   7.846 -0.2453 -0.0782 -0.2323
 1182ERGO   ROH15843   3.119   4.816   6.293  0.0863  0.0881 -0.1566
 1182ERGO    R115844   3.021   5.038   6.438  0.2093  0.1314 -0.1374
 1182ERGO    R215845   2.831   5.014   6.638 -0.0165  0.2482 -0.3296
 1182ERGO    R315846   3.017   5.147   6.785  0.0060 -0.0473 -0.0818
 1182ERGO    R415847   2.760   5.229   6.899 -0.0044  0.1485 -0.2441
 1182ERGO    R515848   2.918   5.361   6.827  0.1984  0.0318 -0.0226
 1182ERGO    C115849   2.892   5.479   7.189  0.0237 -0.1868  0.0383
 1182ERGO    C215850   2.851   5.555   7.417 -0.0376 -0.1512 -0.0032
 1183ERGO   ROH15851  18.590   5.943   5.712 -0.1492 -0.0314 -0.0615
 1183ERGO    R115852  18.676   5.823   5.954 -0.2607 -0.1753 -0.0935
 1183ERGO    R215853  18.779   5.969   6.164 -0.0379 -0.3369 -0.0968
 1183ERGO    R315854  18.585   5.843   6.305 -0.1743 -0.1095 -0.0723
 1183ERGO    R415855  18.732   5.999   6.505  0.1153 -0.3491 -0.0725
 1183ERGO    R515856  18.690   5.785   6.513 -0.1777 -0.3058 -0.1161
 1183ERGO    C115857  18.522   5.897   6.836  0.0762 -0.1428 -0.0354
 1183ERGO    C215858  18.505   6.054   7.200  0.0841 -0.2139 -0.0514
 1184ERGO   ROH15859  13.548   9.369   6.031  0.2254  0.0799 -0.0433
 1184ERGO    R115860  13.461   9.363   6.300  0.1141  0.1164 -0.0784
 1184ERGO    R215861  13.565   9.187   6.486 -0.0050  0.1041 -0.0277
 1184ERGO    R315862  13.612   9.414   6.628 -0.0087  0.0995 -0.0177
 1184ERGO    R415863  13.557   9.210   6.831  0.3452 -0.0004 -0.0080
 1184ERGO    R515864  13.457   9.403   6.811  0.1881 -0.0583  0.1469
 1184ERGO    C115865  13.596   9.436   7.165  0.5454 -0.0657  0.0128
 1184ERGO    C215866  13.587   9.645   7.534  0.0013 -0.0220 -0.0530
 1185ERGO   ROH15867  10.366   6.161   6.018  0.1421  0.2288 -0.0323
 1185ERGO    R115868  10.386   6.072   6.286  0.1313  0.1331 -0.0620
 1185ERGO    R215869  10.628   6.036   6.413  0.1312  0.0419 -0.0770
 1185ERGO    R315870  10.519   6.202   6.598  0.1650  0.0029 -0.0232
 1185ERGO    R415871  10.768   6.108   6.721  0.0740 -0.1826  0.0022
 1185ERGO    R515872  10.568   6.098   6.808  0.0486 -0.1246 -0.0621
 1185ERGO    C115873  10.746   6.305   7.074  0.0723 -0.3499  0.0989
 1185ERGO    C215874  11.003   6.539   7.296  0.4575  0.2904 -0.1474
 1186ERGO   ROH15875   1.480   7.851   7.149 -0.1536  0.2673  0.0378
 1186ERGO    R115876   1.212   7.777   7.199 -0.1536  0.1310 -0.1562
 1186ERGO    R215877   1.077   7.593   7.043  0.1081 -0.0693 -0.1505
 1186ERGO    R315878   1.033   7.471   7.282 -0.0328  0.0748 -0.1007
 1186ERGO    R415879   0.807   7.390   7.115  0.1572 -0.1707 -0.2462
 1186ERGO    R515880   0.796   7.482   7.312 -0.0682 -0.0359 -0.3175
 1186ERGO    C115881   0.608   7.158   7.382  0.0537 -0.0945 -0.2552
 1186ERGO    C215882   0.465   6.849   7.307  0.1245 -0.1099  0.1347
 1187ERGO   ROH15883  18.477  15.400   6.147  0.2087 -0.1926 -0.0179
 1187ERGO    R115884  18.561  15.302   6.399  0.1788  0.0013  0.0704
 1187ERGO    R215885  18.516  15.439   6.635 -0.0603  0.0743 -0.0092
 1187ERGO    R315886  18.402  15.204   6.711  0.1145  0.0044  0.0369
 1187ERGO    R415887  18.381  15.377   6.947 -0.3867  0.1684 -0.1276
 1187ERGO    R515888  18.469  15.177   6.940 -0.1451  0.2645  0.1443
 1187ERGO    C115889  18.196  15.120   7.200 -0.4126  0.1577 -0.1533
 1187ERGO    C215890  18.196  15.057   7.499  0.1282 -0.0383  0.2927
 1188ERGO   ROH15891  12.902  16.886   6.664 -0.0435  0.1477 -0.0275
 1188ERGO    R115892  12.821  16.759   6.904 -0.0962  0.2567  0.0132
 1188ERGO    R215893  12.939  16.526   6.996 -0.3198  0.1317 -0.0140
 1188ERGO    R315894  12.975  16.672   7.222 -0.0710  0.1111 -0.0373
 1188ERGO    R415895  12.991  16.393   7.310 -0.3167  0.0949 -0.0299
 1188ERGO    R515896  12.861  16.548   7.392 -0.1257  0.2353  0.0199
 1188ERGO    C115897  13.055  16.452   7.706 -0.0814  0.0542 -0.0609
 1188ERGO    C215898  13.231  16.252   7.961 -0.4154  0.1295 -0.0589
 1189ERGO   ROH15899   3.734  15.783   5.784  0.0095  0.2516  0.3401
 1189ERGO    R115900   3.600  15.644   5.992  0.0723  0.1471  0.3121
 1189ERGO    R215901   3.665  15.386   6.064  0.0179  0.0655  0.0851
 1189ERGO    R315902   3.690  15.496   6.312  0.1958 -0.1247  0.1542
 1189ERGO    R415903   3.672  15.207   6.360 -0.0327 -0.1430 -0.0381
 1189ERGO    R515904   3.548  15.362   6.451  0.1297 -0.0991  0.1097
 1189ERGO    C115905   3.700  15.206   6.764  0.1049 -0.4429 -0.0451
 1189ERGO    C215906   3.912  14.939   6.926  0.1077 -0.1602 -0.0753
 1190ERGO   ROH15907  17.194  13.834   6.233 -0.0325 -0.2346 -0.0180
 1190ERGO    R115908  17.238  13.980   6.472 -0.0049 -0.2078 -0.0403
 1190ERGO    R215909  17.132  13.903   6.715 -0.0408 -0.1358 -0.0371
 1190ERGO    R315910  17.391  13.917   6.796 -0.0421 -0.1957 -0.0192
 1190ERGO    R415911  17.237  13.882   7.044 -0.1054  0.2003  0.0088
 1190ERGO    R515912  17.383  14.039   7.002 -0.0005  0.0651 -0.1662
 1190ERGO    C115913  17.542  13.883   7.311 -0.1442  0.3399  0.0524
 1190ERGO    C215914  17.566  13.864   7.571  0.0847  0.0850  0.1130
 1191ERGO   ROH15915   8.500  17.105   5.845  0.1821 -0.1546 -0.1033
 1191ERGO    R115916   8.393  17.156   6.102  0.1122 -0.2341 -0.1167
 1191ERGO    R215917   8.393  16.968   6.304  0.2318 -0.2327 -0.1186
 1191ERGO    R315918   8.518  17.164   6.444  0.0654 -0.1362 -0.1008
 1191ERGO    R415919   8.347  17.030   6.641  0.0797 -0.2195 -0.1405
 1191ERGO    R515920   8.351  17.243   6.597 -0.0375 -0.2192 -0.1661
 1191ERGO    C115921   8.437  17.250   6.969 -0.1651 -0.1211 -0.1365
 1191ERGO    C215922   8.479  17.306   7.403  0.1145  0.2289  0.0492
 1192ERGO   ROH15923  14.919   9.928   5.915 -0.0715  0.0400  0.1020
 1192ERGO    R115924  14.915   9.802   6.169 -0.0351 -0.1101  0.0291
 1192ERGO    R215925  15.068   9.889   6.381  0.0202 -0.2566  0.0492
 1192ERGO    R315926  14.829   9.897   6.509  0.0485 -0.3013  0.1050
 1192ERGO    R415927  15.028   9.943   6.720  0.0888 -0.1991  0.0484
 1192ERGO    R515928  14.871   9.792   6.720  0.1324 -0.2465  0.1171
 1192ERGO    C115929  14.779   9.982   7.038  0.1553 -0.2074  0.1003
 1192ERGO    C215930  14.992  10.103   7.334  0.1591 -0.0307 -0.2388
 1193ERGO   ROH15931   7.991  11.308   6.065  0.1930 -0.0324 -0.2094
 1193ERGO    R115932   8.213  11.462   6.151  0.2411 -0.1205 -0.1750
 1193ERGO    R215933   8.228  11.573   6.404  0.1224  0.0975 -0.2625
 1193ERGO    R315934   8.464  11.439   6.413  0.0191 -0.0735  0.0469
 1193ERGO    R415935   8.464  11.607   6.654  0.0081  0.2614 -0.1750
 1193ERGO    R515936   8.619  11.599   6.502  0.0898 -0.0650 -0.0861
 1193ERGO    C115937   8.823  11.501   6.809 -0.1554  0.1963  0.1665
 1193ERGO    C215938   8.931  11.379   7.073 -0.0014 -0.1366  0.0690
 1194ERGO   ROH15939   7.183   7.703   5.976 -0.0066  0.0061  0.0278
 1194ERGO    R115940   7.015   7.670   6.201 -0.1209  0.0071 -0.0562
 1194ERGO    R215941   7.030   7.450   6.368 -0.1886  0.0190 -0.0326
 1194ERGO    R315942   7.058   7.639   6.561 -0.3039  0.0348 -0.0310
 1194ERGO    R415943   7.030   7.387   6.708 -0.4330  0.0512 -0.0249
 1194ERGO    R515944   6.912   7.567   6.736 -0.4349  0.0668 -0.1256
 1194ERGO    C115945   7.057   7.528   7.087 -0.6836  0.0848 -0.0189
 1194ERGO    C215946   7.132   7.581   7.443 -0.0630 -0.3207 -0.1404
 1195ERGO   ROH15947  18.768  11.350   6.248 -0.1429  0.0322 -0.2259
 1195ERGO    R115948  18.767  11.319   6.530 -0.2073  0.0095 -0.2294
 1195ERGO    R215949  18.719  11.076   6.653 -0.0962 -0.0274 -0.2658
 1195ERGO    R315950  18.956  11.128   6.775 -0.1636  0.1047 -0.1870
 1195ERGO    R415951  18.828  10.926   6.944 -0.0221 -0.1239 -0.3419
 1195ERGO    R515952  18.905  11.118   7.009 -0.2046 -0.0926 -0.2001
 1195ERGO    C115953  19.114  10.886   7.229 -0.0420 -0.0562 -0.3122
 1195ERGO    C215954  19.482  10.738   7.288  0.0144 -0.1585  0.0392
 1196ERGO   ROH15955  15.610   0.734   6.327 -0.0547  0.1399  0.0033
 1196ERGO    R115956  15.681   0.946   6.500  0.0181  0.0541  0.0784
 1196ERGO    R215957  15.516   1.032   6.706  0.0565  0.0262  0.1148
 1196ERGO    R315958  15.737   0.988   6.858  0.0502 -0.0920  0.0923
 1196ERGO    R415959  15.542   1.103   7.043  0.2378  0.3629  0.0346
 1196ERGO    R515960  15.745   1.174   7.007  0.3270  0.0715 -0.1085
 1196ERGO    C115961  15.765   1.104   7.382  0.3375  0.4480 -0.0333
 1196ERGO    C215962  15.836   1.159   7.748 -0.1910 -0.1975 -0.0396
 1197ERGO   ROH15963   9.141  14.286   5.993  0.1454  0.3506  0.0312
 1197ERGO    R115964   9.196  14.333   6.266  0.0811  0.0901  0.0905
 1197ERGO    R215965   9.058  14.519   6.416  0.2141  0.1232  0.1688
 1197ERGO    R315966   9.013  14.308   6.580 -0.0763  0.0451 -0.0023
 1197ERGO    R415967   8.974  14.544   6.750  0.3922 -0.0224  0.2260
 1197ERGO    R515968   9.107  14.376   6.790  0.1305 -0.2919  0.0250
 1197ERGO    C115969   8.884  14.360   7.100  0.2233 -0.1805  0.0989
 1197ERGO    C215970   8.675  14.202   7.354  0.1505  0.1391  0.0536
 1198ERGO   ROH15971   9.707   0.566   6.167  0.1883 -0.0449 -0.0357
 1198ERGO    R115972   9.598   0.469   6.410 -0.0955  0.0150 -0.1350
 1198ERGO    R215973   9.747   0.444   6.640 -0.1902 -0.5206 -0.1168
 1198ERGO    R315974   9.549   0.595   6.747  0.1352 -0.1256 -0.0468
 1198ERGO    R415975   9.670   0.460   6.977 -0.1541 -0.5005 -0.1095
 1198ERGO    R515976   9.459   0.460   6.924 -0.1625 -0.0128 -0.1077
 1198ERGO    C115977   9.439   0.611   7.273  0.1724 -0.1180 -0.0396
 1198ERGO    C215978   9.397   0.703   7.637 -0.2078 -0.1041  0.2926
 1199ERGO   ROH15979  11.513   6.972   5.911 -0.2841  0.1430 -0.0893
 1199ERGO    R115980  11.359   6.951   6.147 -0.1758 -0.0648 -0.0344
 1199ERGO    R215981  11.430   6.786   6.357  0.0538 -0.0669 -0.1087
 1199ERGO    R315982  11.410   7.014   6.502 -0.0933 -0.1254 -0.0357
 1199ERGO    R415983  11.302   6.805   6.677  0.0958 -0.2578 -0.0795
 1199ERGO    R515984  11.203   6.991   6.621 -0.0544 -0.3155 -0.0047
 1199ERGO    C115985  11.208   7.030   7.000 -0.0178 -0.4239  0.0061
 1199ERGO    C215986  11.177   7.033   7.372  0.1310  0.1019  0.2066
 1200ERGO   ROH15987  16.596  15.682   6.332  0.0168 -0.0913  0.0728
 1200ERGO    R115988  16.719  15.616   6.578  0.0324 -0.1618  0.0460
 1200ERGO    R215989  16.595  15.655   6.822  0.1185 -0.0635  0.0737
 1200ERGO    R315990  16.651  15.391   6.856 -0.0524 -0.1008  0.0755
 1200ERGO    R415991  16.548  15.478   7.115  0.0606 -0.0132  0.0949
 1200ERGO    R515992  16.737  15.376   7.079 -0.0140 -0.1441  0.0593
 1200ERGO    C115993  16.573  15.128   7.318 -0.1334 -0.0189  0.1090
 1200ERGO    C215994  16.481  14.894   7.670  0.1720 -0.2258 -0.2595
 1201ERGO   ROH15995   7.275   8.928   6.509  0.0805 -0.0428  0.0654
 1201ERGO    R115996   7.319   8.903   6.787  0.1621 -0.0043  0.0571
 1201ERGO    R215997   7.540   9.009   6.913  0.1531  0.0970 -0.0057
 1201ERGO    R315998   7.353   9.128   7.071  0.1425  0.0324  0.0299
 1201ERGO    R415999   7.589   9.098   7.244  0.1681  0.0726 -0.0019
 1201ERGO    R516000   7.386   9.029   7.287  0.1918  0.0178  0.0143
 1201ERGO    C116001   7.441   9.261   7.584  0.1669 -0.0023  0.0337
 1201ERGO    C216002   7.587   9.430   7.780  0.0101 -0.1844 -0.2465
 1202ERGO   ROH16003  13.109   6.589   5.977  0.1688  0.0304 -0.1172
 1202ERGO    R116004  13.159   6.601   6.255 -0.0816  0.0100 -0.0673
 1202ERGO    R216005  13.015   6.453   6.439 -0.1013 -0.1817 -0.2251
 1202ERGO    R316006  13.262   6.367   6.514 -0.0779  0.0401 -0.0438
 1202ERGO    R416007  13.108   6.378   6.763 -0.2439 -0.0371 -0.1507
 1202ERGO    R516008  13.300   6.473   6.725 -0.3012  0.1131 -0.0422
 1202ERGO    C116009  13.393   6.254   7.023 -0.3049  0.2552  0.0629
 1202ERGO    C216010  13.334   6.155   7.326 -0.0437  0.0906 -0.1809
 1203ERGO   ROH16011   2.844   9.326   6.154  0.0013  0.0425  0.0386
 1203ERGO    R116012   2.989   9.323   6.397 -0.0702 -0.0450  0.0790
 1203ERGO    R216013   3.051   9.553   6.536  0.0315 -0.0855  0.0908
 1203ERGO    R316014   2.929   9.423   6.741 -0.1034 -0.0060  0.0634
 1203ERGO    R416015   3.040   9.666   6.863  0.0515 -0.0803  0.0908
 1203ERGO    R516016   3.072   9.461   6.930 -0.1072 -0.1111  0.0929
 1203ERGO    C116017   2.918   9.610   7.245 -0.0635 -0.0023  0.0650
 1203ERGO    C216018   2.781   9.657   7.582 -0.0674  0.0873  0.0336
 1204ERGO   ROH16019  15.093  14.994   6.378 -0.1828 -0.0630 -0.1887
 1204ERGO    R116020  15.155  14.985   6.654 -0.0625  0.0565 -0.2119
 1204ERGO    R216021  14.979  14.888   6.843  0.0341  0.1112 -0.0994
 1204ERGO    R316022  15.189  14.728   6.909  0.0823  0.1649 -0.1182
 1204ERGO    R416023  15.029  14.745   7.154 -0.0741 -0.1219 -0.1858
 1204ERGO    R516024  15.241  14.789   7.135 -0.0794  0.0090 -0.0317
 1204ERGO    C116025  15.255  14.512   7.397 -0.0918 -0.2071 -0.2538
 1204ERGO    C216026  15.622  14.353   7.509  0.0585  0.0601  0.1526
 1205ERGO   ROH16027  16.674  16.716   6.097 -0.0069 -0.1407 -0.0361
 1205ERGO    R116028  16.672  16.641   6.370 -0.0641 -0.0759 -0.0184
 1205ERGO    R216029  16.903  16.616   6.520 -0.0851 -0.1691  0.0010
 1205ERGO    R316030  16.776  16.790   6.686  0.0007 -0.0589 -0.0479
 1205ERGO    R416031  16.952  16.635   6.861  0.0588  0.0315 -0.0295
 1205ERGO    R516032  16.738  16.664   6.886  0.0728  0.0648  0.0438
 1205ERGO    C116033  16.862  16.809   7.216  0.2232  0.2521 -0.0933
 1205ERGO    C216034  16.820  16.993   7.418  0.0830  0.2826  0.0371
 1206ERGO   ROH16035   3.047   7.223   6.056  0.0764 -0.2353 -0.0119
 1206ERGO    R116036   3.269   7.082   6.162  0.1577 -0.1744 -0.0976
 1206ERGO    R216037   3.521   7.096   6.051  0.1671  0.0871 -0.0539
 1206ERGO    R316038   3.593   7.166   6.303  0.0813 -0.0689  0.0148
 1206ERGO    R416039   3.841   7.069   6.180  0.1475  0.1228  0.0013
 1206ERGO    R516040   3.753   7.001   6.368  0.1329 -0.0501 -0.0691
 1206ERGO    C116041   4.094   7.119   6.493  0.0556 -0.0029  0.0981
 1206ERGO    C216042   4.386   7.002   6.502 -0.2472  0.0712 -0.1229
 1207ERGO   ROH16043  17.462  18.539   5.896 -0.0355 -0.2882  0.1076
 1207ERGO    R116044  17.483  18.611   6.169  0.0532 -0.0928  0.0512
 1207ERGO    R216045  17.678  18.782   6.264  0.0598  0.0075 -0.1404
 1207ERGO    R316046  17.465  18.918   6.364  0.0741  0.0424 -0.1563
 1207ERGO    R416047  17.697  19.031   6.503  0.0971  0.1209 -0.2595
 1207ERGO    R516048  17.518  18.948   6.596  0.1224  0.1537 -0.1818
 1207ERGO    C116049  17.507  19.303   6.737  0.1321  0.2197 -0.3439
 1207ERGO    C216050  17.408  19.557   7.030 -0.1613 -0.1118  0.1963
 1208ERGO   ROH16051   0.806  11.646   5.775 -0.0260 -0.0048 -0.1712
 1208ERGO    R116052   0.838  11.822   5.994 -0.0363 -0.0837 -0.1066
 1208ERGO    R216053   0.665  12.031   6.044  0.0050 -0.0597 -0.0832
 1208ERGO    R316054   0.647  11.916   6.289 -0.0843 -0.1304 -0.1216
 1208ERGO    R416055   0.532  12.184   6.324  0.0913 -0.0578 -0.0424
 1208ERGO    R516056   0.692  12.094   6.442  0.0294 -0.2062 -0.0613
 1208ERGO    C116057   0.438  12.164   6.718  0.0577 -0.1232 -0.0546
 1208ERGO    C216058   0.245  12.284   6.970  0.0560  0.1022  0.0173
 1209ERGO   ROH16059   7.790   2.764   6.541 -0.0736 -0.0161 -0.1000
 1209ERGO    R116060   8.062   2.758   6.616 -0.0452  0.0780 -0.1947
 1209ERGO    R216061   8.222   2.983   6.618 -0.2289  0.2090  0.1287
 1209ERGO    R316062   8.269   2.909   6.875 -0.0903 -0.1814 -0.0023
 1209ERGO    R416063   8.524   3.018   6.780 -0.2381  0.3085  0.1262
 1209ERGO    R516064   8.493   2.822   6.871  0.0231  0.1001 -0.2022
 1209ERGO    C116065   8.745   2.968   7.117 -0.1132  0.0001  0.0017
 1209ERGO    C216066   9.004   3.232   7.241 -0.4051 -0.1380  0.2242
 1210ERGO   ROH16067  17.009   0.148   6.230  0.1772  0.2743 -0.0633
 1210ERGO    R116068  17.042   0.306   6.463  0.0794  0.1676  0.0240
 1210ERGO    R216069  16.889   0.269   6.690  0.0463  0.0017 -0.0247
 1210ERGO    R316070  17.132   0.248   6.811  0.0294  0.0210  0.0136
 1210ERGO    R416071  16.940   0.245   7.032 -0.0130 -0.1084 -0.0230
 1210ERGO    R516072  17.111   0.378   7.011 -0.0424 -0.0558  0.0571
 1210ERGO    C116073  17.197   0.211   7.343 -0.0632 -0.1543  0.0138
 1210ERGO    C216074  17.153   0.161   7.704 -0.2750 -0.1370  0.1583
 1211ERGO   ROH16075  15.613  18.020   6.630 -0.2997 -0.0915  0.0568
 1211ERGO    R116076  15.693  18.070   6.897 -0.1460 -0.2401  0.0409
 1211ERGO    R216077  15.576  18.266   7.053  0.2251 -0.0411  0.0821
 1211ERGO    R316078  15.537  18.060   7.226 -0.0878  0.0108  0.0777
 1211ERGO    R416079  15.605  18.288   7.396  0.3052 -0.1033  0.0794
 1211ERGO    R516080  15.702  18.093   7.396 -0.0096 -0.2641  0.0585
 1211ERGO    C116081  15.585  18.108   7.759  0.0581 -0.0907  0.0737
 1211ERGO    C216082  15.654  18.171   8.016 -0.0218 -0.0758  0.1660
 1212ERGO   ROH16083  15.429  16.375   6.515 -0.1608  0.1411  0.0392
 1212ERGO    R116084  15.301  16.377   6.767 -0.0839  0.0108  0.0799
 1212ERGO    R216085  15.204  16.149   6.887  0.2080 -0.0931  0.1218
 1212ERGO    R316086  15.359  16.229   7.094  0.1854  0.0886  0.0709
 1212ERGO    R416087  15.102  16.159   7.217  0.3202 -0.2829  0.1647
 1212ERGO    R516088  15.209  16.348   7.239  0.0755 -0.1347  0.1484
 1212ERGO    C116089  15.189  16.241   7.604  0.3645 -0.2230  0.1418
 1212ERGO    C216090  14.994  16.104   7.891 -0.0511  0.1889  0.0936
 1213ERGO   ROH16091  14.794   4.780   6.388 -0.0671 -0.1482 -0.2779
 1213ERGO    R116092  14.765   4.656   6.641 -0.1005  0.0578 -0.1798
 1213ERGO    R216093  14.908   4.431   6.714 -0.4035 -0.1216 -0.1312
 1213ERGO    R316094  14.980   4.585   6.926 -0.0264 -0.0931 -0.2719
 1213ERGO    R416095  15.032   4.310   7.013 -0.4953 -0.1364 -0.0980
 1213ERGO    R516096  14.912   4.459   7.117 -0.1815  0.1675 -0.1490
 1213ERGO    C116097  15.172   4.384   7.386 -0.1947 -0.1183 -0.2108
 1213ERGO    C216098  15.222   4.445   7.683 -0.0087  0.1327  0.4853
 1214ERGO   ROH16099   8.188   1.765   6.397  0.0870 -0.3261  0.0657
 1214ERGO    R116100   8.115   1.809   6.667  0.0520 -0.2255  0.0406
 1214ERGO    R216101   8.169   1.627   6.868  0.0126 -0.1594  0.1150
 1214ERGO    R316102   8.287   1.841   6.986  0.0108 -0.1241  0.0521
 1214ERGO    R416103   8.235   1.655   7.206  0.0045 -0.0491  0.1073
 1214ERGO    R516104   8.174   1.864   7.196  0.0077 -0.0547  0.0404
 1214ERGO    C116105   8.384   1.873   7.514 -0.0021  0.0483  0.0439
 1214ERGO    C216106   8.649   1.834   7.685  0.1197  0.0585 -0.1034
 1215ERGO   ROH16107   1.927  11.946   5.880 -0.0499  0.0431 -0.0686
 1215ERGO    R116108   1.880  11.887   6.153  0.0347  0.0270 -0.0580
 1215ERGO    R216109   1.956  12.058   6.357 -0.1356  0.1361 -0.0902
 1215ERGO    R316110   1.695  12.038   6.427 -0.1105 -0.1401 -0.0604
 1215ERGO    R416111   1.837  12.054   6.682 -0.1031  0.3449 -0.0742
 1215ERGO    R516112   1.695  11.901   6.623  0.0943  0.0753  0.1016
 1215ERGO    C116113   1.522  12.034   6.936 -0.0607  0.2071 -0.0370
 1215ERGO    C216114   1.254  11.863   7.130  0.5684 -0.3080 -0.1677
 1216ERGO   ROH16115   5.274  18.132   5.535 -0.0493  0.1091 -0.1398
 1216ERGO    R116116   5.106  18.175   5.759 -0.0104 -0.0008 -0.0894
 1216ERGO    R216117   4.957  17.973   5.875  0.0548 -0.0681 -0.1290
 1216ERGO    R316118   5.085  18.053   6.101  0.0838 -0.1224 -0.1254
 1216ERGO    R416119   4.810  17.997   6.186  0.0058  0.1577 -0.1673
 1216ERGO    R516120   4.921  18.182   6.219  0.1745  0.0670 -0.1975
 1216ERGO    C116121   4.844  18.086   6.580  0.0046  0.2384 -0.1862
 1216ERGO    C216122   4.722  17.922   6.928 -0.2998 -0.4797  0.2221
 1217ERGO   ROH16123  14.559   9.413   6.140  0.2262  0.1744 -0.1788
 1217ERGO    R116124  14.695   9.440   6.387 -0.0560  0.2781 -0.0315
 1217ERGO    R216125  14.563   9.483   6.625 -0.3711 -0.1248 -0.1289
 1217ERGO    R316126  14.702   9.263   6.705 -0.0235  0.0840 -0.1364
 1217ERGO    R416127  14.680   9.428   6.946 -0.3571  0.0175 -0.1080
 1217ERGO    R516128  14.863   9.348   6.860 -0.1949  0.3316 -0.0820
 1217ERGO    C116129  14.879   9.191   7.207 -0.0225  0.2965 -0.1027
 1217ERGO    C216130  14.992   9.039   7.477  0.3176 -0.1340  0.3284
 1218ERGO   ROH16131  10.074  17.170   6.326 -0.2419  0.0888  0.1197
 1218ERGO    R116132  10.106  17.086   6.594 -0.3294  0.2707  0.1893
 1218ERGO    R216133   9.901  17.095   6.778 -0.4636  0.1662  0.0509
 1218ERGO    R316134   9.961  16.832   6.810 -0.2136  0.2412  0.2313
 1218ERGO    R416135   9.841  16.912   7.066 -0.6282  0.2084  0.0446
 1218ERGO    R516136  10.034  16.815   7.038 -0.4844  0.4083  0.3319
 1218ERGO    C116137   9.862  16.558   7.263 -0.4893  0.3032  0.2103
 1218ERGO    C216138   9.828  16.532   7.607  0.1493  0.0662  0.1789
 1219ERGO   ROH16139  16.710  18.000   6.270  0.1206  0.0406 -0.1261
 1219ERGO    R116140  16.838  18.000   6.523  0.0869  0.1904 -0.1076
 1219ERGO    R216141  16.757  18.163   6.730 -0.1232  0.1112 -0.1221
 1219ERGO    R316142  16.744  17.928   6.867  0.1153  0.0981 -0.1195
 1219ERGO    R416143  16.680  18.134   7.066 -0.2231  0.0251 -0.1524
 1219ERGO    R516144  16.834  17.980   7.083 -0.0367  0.2176 -0.0853
 1219ERGO    C116145  16.623  17.896   7.390 -0.0575 -0.0374 -0.1675
 1219ERGO    C216146  16.438  17.997   7.774  0.2156 -0.2987 -0.5722
 1220ERGO   ROH16147   2.959  18.067   5.908 -0.1081  0.0330  0.0180
 1220ERGO    R116148   3.001  18.261   6.110 -0.0588  0.1508 -0.1049
 1220ERGO    R216149   2.904  18.519   6.091 -0.4233  0.0204 -0.0493
 1220ERGO    R316150   2.793  18.461   6.332  0.0054 -0.0498  0.1402
 1220ERGO    R416151   2.780  18.753   6.313 -0.4651 -0.0693  0.0237
 1220ERGO    R516152   2.867  18.637   6.476 -0.0525  0.1287 -0.0426
 1220ERGO    C116153   2.604  18.834   6.669 -0.0870 -0.1874  0.2440
 1220ERGO    C216154   2.251  18.808   6.867 -0.0081  0.4507  0.1935
 1221ERGO   ROH16155   8.940   6.046   6.352 -0.3262 -0.1076  0.0715
 1221ERGO    R116156   8.807   5.999   6.597 -0.0799 -0.1512  0.2022
 1221ERGO    R216157   8.937   6.007   6.841  0.1160  0.0891  0.1046
 1221ERGO    R316158   8.742   6.187   6.903 -0.0278 -0.0897  0.1725
 1221ERGO    R416159   8.857   6.111   7.161  0.1629  0.0768  0.1192
 1221ERGO    R516160   8.647   6.104   7.106  0.1503 -0.1367  0.2293
 1221ERGO    C116161   8.628   6.340   7.405  0.0552 -0.0982  0.1914
 1221ERGO    C216162   8.716   6.578   7.767  0.2303 -0.1287 -0.2370
 1222ERGO   ROH16163  15.957  17.280   6.751  0.0722 -0.0570 -0.1981
 1222ERGO    R116164  15.921  17.134   6.991  0.3310  0.1058 -0.0551
 1222ERGO    R216165  15.971  17.241   7.240 -0.0848  0.5296 -0.1385
 1222ERGO    R316166  15.716  17.163   7.291  0.0788 -0.0952 -0.2044
 1222ERGO    R416167  15.842  17.186   7.555 -0.0834  0.3749 -0.1644
 1222ERGO    R516168  15.737  17.012   7.476  0.3866  0.0533 -0.1133
 1222ERGO    C116169  15.526  17.080   7.787  0.0708 -0.3020 -0.2413
 1222ERGO    C216170  15.368  17.278   8.088 -0.0930 -0.0762 -0.0989
 1223ERGO   ROH16171   7.937   6.750   6.041 -0.2364  0.3325 -0.2261
 1223ERGO    R116172   7.824   6.820   6.291 -0.1844  0.1246 -0.1417
 1223ERGO    R216173   7.703   6.635   6.457  0.0519 -0.0575 -0.1630
 1223ERGO    R316174   7.879   6.732   6.640  0.0546  0.0169 -0.2056
 1223ERGO    R416175   7.661   6.621   6.800  0.0903  0.0363 -0.1543
 1223ERGO    R516176   7.742   6.823   6.813  0.0634  0.0474 -0.2182
 1223ERGO    C116177   7.802   6.704   7.171  0.1153  0.1608 -0.1892
 1223ERGO    C216178   7.720   6.728   7.541  0.0509 -0.2244  0.1193
 1224ERGO   ROH16179   6.681  10.313   6.365 -0.0654  0.3621  0.1694
 1224ERGO    R116180   6.597  10.306   6.635 -0.2697  0.2529  0.1063
 1224ERGO    R216181   6.376  10.163   6.718 -0.1324 -0.0778 -0.0583
 1224ERGO    R316182   6.553  10.052   6.892 -0.0930  0.1958  0.0791
 1224ERGO    R416183   6.296   9.926   6.956  0.0663 -0.2623 -0.1726
 1224ERGO    R516184   6.429  10.029   7.096 -0.2342 -0.0552 -0.0361
 1224ERGO    C116185   6.415   9.684   7.259  0.2189 -0.1128 -0.1102
 1224ERGO    C216186   6.495   9.508   7.613 -0.0141  0.0454  0.1514
 1225ERGO   ROH16187   6.678   3.905   6.031 -0.3582  0.3166  0.2320
 1225ERGO    R116188   6.689   3.893   6.314 -0.1899  0.3090  0.2262
 1225ERGO    R216189   6.840   3.706   6.449 -0.1695  0.2559  0.1319
 1225ERGO    R316190   6.946   3.925   6.570 -0.0216  0.2194  0.0707
 1225ERGO    R416191   7.039   3.698   6.731 -0.0485  0.1924  0.0459
 1225ERGO    R516192   6.933   3.875   6.804  0.0596  0.2427  0.0798
 1225ERGO    C116193   7.254   3.898   7.010  0.1608  0.1211 -0.0617
 1225ERGO    C216194   7.483   4.060   7.155  0.0742 -0.2112 -0.0071
 1226ERGO   ROH16195  11.082   2.382   6.414  0.2566 -0.1824  0.1073
 1226ERGO    R116196  11.113   2.534   6.651  0.0784 -0.0237  0.0302
 1226ERGO    R216197  10.898   2.646   6.784 -0.0720 -0.3224  0.0425
 1226ERGO    R316198  11.000   2.511   6.996  0.2242 -0.0602  0.0769
 1226ERGO    R416199  10.888   2.756   7.111 -0.3728 -0.2879  0.0246
 1226ERGO    R516200  11.091   2.681   7.138 -0.1879  0.1865  0.0637
 1226ERGO    C116201  10.977   2.692   7.502 -0.2701 -0.0216  0.0465
 1226ERGO    C216202  10.780   2.729   7.679 -0.0316  0.1563 -0.0831
 1227ERGO   ROH16203   1.243  11.530   5.886 -0.0434  0.0018 -0.0749
 1227ERGO    R116204   1.300  11.653   6.134 -0.0594  0.0104 -0.0768
 1227ERGO    R216205   1.332  11.926   6.161 -0.1058  0.0111 -0.0781
 1227ERGO    R316206   1.139  11.897   6.351 -0.0947 -0.0171 -0.0695
 1227ERGO    R416207   1.295  12.130   6.438 -0.0973 -0.0089 -0.0612
 1227ERGO    R516208   1.249  11.953   6.556 -0.0806 -0.0257 -0.0704
 1227ERGO    C116209   1.093  12.222   6.777 -0.0819 -0.0469 -0.0432
 1227ERGO    C216210   0.959  12.406   6.920  0.0563  0.2711 -0.1505
 1228ERGO   ROH16211  14.361  16.829   6.654  0.1735 -0.0582  0.1235
 1228ERGO    R116212  14.406  16.712   6.908  0.0745 -0.0288  0.1565
 1228ERGO    R216213  14.339  16.838   7.144  0.0367  0.0272  0.1221
 1228ERGO    R316214  14.203  16.607   7.191 -0.0325  0.0672  0.1141
 1228ERGO    R416215  14.271  16.708   7.458  0.0976 -0.0324  0.1101
 1228ERGO    R516216  14.315  16.509   7.380 -0.0065 -0.0245  0.0468
 1228ERGO    C116217  14.104  16.417   7.684  0.0680 -0.0296  0.0956
 1228ERGO    C216218  14.099  16.522   7.976  0.0139 -0.2871  0.1623
 1229ERGO   ROH16219   5.519   7.520   6.250  0.4237 -0.1177  0.2064
 1229ERGO    R116220   5.349   7.557   6.474  0.3297  0.0737  0.1040
 1229ERGO    R216221   5.354   7.391   6.695  0.1126  0.1577  0.1681
 1229ERGO    R316222   5.391   7.624   6.829  0.1818  0.1866  0.1028
 1229ERGO    R416223   5.309   7.432   7.035  0.1847  0.2430  0.1689
 1229ERGO    R516224   5.217   7.625   6.994  0.2091  0.2545  0.1374
 1229ERGO    C116225   5.317   7.675   7.359  0.2916  0.3198  0.1080
 1229ERGO    C216226   5.316   7.787   7.665 -0.1179 -0.2297  0.2341
 1230ERGO   ROH16227   6.487  18.060   5.760  0.1097  0.3523  0.1891
 1230ERGO    R116228   6.236  18.016   5.883  0.0440  0.2167  0.0129
 1230ERGO    R216229   6.200  17.835   6.089 -0.0518  0.0353 -0.1501
 1230ERGO    R316230   6.095  18.051   6.216 -0.1437 -0.0775 -0.0342
 1230ERGO    R416231   6.055  17.829   6.403  0.2800 -0.1130  0.0037
 1230ERGO    R516232   5.902  17.966   6.330  0.0638 -0.2720  0.1693
 1230ERGO    C116233   5.873  18.029   6.705  0.3870 -0.3054  0.2019
 1230ERGO    C216234   5.937  18.104   6.988  0.1667 -0.1654  0.1434
 1231ERGO   ROH16235  10.133   3.897   6.421 -0.0684 -0.3717 -0.1669
 1231ERGO    R116236  10.024   3.711   6.604  0.0437 -0.2206  0.0581
 1231ERGO    R216237  10.051   3.738   6.878 -0.0035  0.1453  0.0309
 1231ERGO    R316238   9.780   3.717   6.874  0.0100 -0.0513  0.0243
 1231ERGO    R416239   9.859   3.594   7.127  0.0851  0.1418  0.0978
 1231ERGO    R516240   9.735   3.504   6.973  0.1572 -0.0323  0.1374
 1231ERGO    C116241   9.493   3.491   7.268  0.1493 -0.0449  0.1305
 1231ERGO    C216242   9.547   3.557   7.563  0.1932 -0.0335 -0.2134
 1232ERGO   ROH16243  14.749  18.519   6.607  0.1189  0.0883 -0.0722
 1232ERGO    R116244  14.612  18.593   6.843 -0.1190  0.2564 -0.2578
 1232ERGO    R216245  14.737  18.606   7.089 -0.4664 -0.0475 -0.0572
 1232ERGO    R316246  14.637  18.858   7.091 -0.0219  0.1401 -0.1398
 1232ERGO    R416247  14.749  18.822   7.359 -0.5654 -0.1905  0.0636
 1232ERGO    R516248  14.546  18.885   7.311 -0.3797  0.1967 -0.2844
 1232ERGO    C116249  14.662  19.184   7.517 -0.2056 -0.0976  0.0564
 1232ERGO    C216250  14.851  19.449   7.799  0.0187 -0.1114  0.2251
 1233ERGO   ROH16251  10.104  11.278   6.293  0.0968 -0.1810  0.1188
 1233ERGO    R116252   9.998  11.478   6.464  0.0562 -0.0700 -0.0336
 1233ERGO    R216253   9.833  11.418   6.678 -0.0581  0.0745 -0.0789
 1233ERGO    R316254  10.018  11.560   6.817 -0.0940  0.1083 -0.0653
 1233ERGO    R416255   9.784  11.552   6.993 -0.0137 -0.1606  0.0306
 1233ERGO    R516256   9.892  11.730   6.929 -0.1601 -0.0468  0.0993
 1233ERGO    C116257   9.929  11.764   7.307 -0.0214 -0.2659  0.1070
 1233ERGO    C216258   9.996  11.765   7.710 -0.0405  0.2441  0.2767
 1234ERGO   ROH16259   4.002  11.483   6.139 -0.0858  0.0250 -0.2831
 1234ERGO    R116260   3.927  11.696   6.309  0.0241 -0.1052 -0.0671
 1234ERGO    R216261   3.993  11.703   6.577  0.2577 -0.2809 -0.1178
 1234ERGO    R316262   4.097  11.945   6.512  0.1577 -0.2163 -0.0411
 1234ERGO    R416263   3.923  11.998   6.742  0.1032 -0.3553 -0.0478
 1234ERGO    R516264   3.917  12.099   6.548  0.0827 -0.3064 -0.0230
 1234ERGO    C116265   3.980  12.398   6.776 -0.0806 -0.3378  0.0650
 1234ERGO    C216266   3.898  12.569   7.087 -0.2098  0.1882  0.2138
 1235ERGO   ROH16267   6.343   4.731   6.216  0.0696 -0.0628 -0.0209
 1235ERGO    R116268   6.479   4.844   6.437  0.0342  0.0506 -0.0565
 1235ERGO    R216269   6.366   5.038   6.598 -0.0125  0.0939 -0.1415
 1235ERGO    R316270   6.428   4.864   6.797  0.0071  0.1844 -0.0672
 1235ERGO    R416271   6.327   5.102   6.935 -0.3601  0.0990 -0.1789
 1235ERGO    R516272   6.518   5.002   6.971 -0.2812  0.3033 -0.0081
 1235ERGO    C116273   6.363   4.976   7.318 -0.5441  0.1870 -0.1310
 1235ERGO    C216274   6.144   5.083   7.511  0.2205  0.1240 -0.1793
 1236ERGO   ROH16275   0.479   7.998   6.164  0.0361 -0.2023 -0.0136
 1236ERGO    R116276   0.613   8.191   6.322  0.2104 -0.3765  0.0555
 1236ERGO    R216277   0.479   8.368   6.486  0.3298 -0.0073 -0.2276
 1236ERGO    R316278   0.644   8.266   6.677 -0.1266 -0.2418  0.0588
 1236ERGO    R416279   0.487   8.473   6.816  0.2695  0.3481 -0.3353
 1236ERGO    R516280   0.705   8.456   6.810  0.2467 -0.2431 -0.1022
 1236ERGO    C116281   0.646   8.438   7.187 -0.1942  0.3349 -0.1291
 1236ERGO    C216282   0.585   8.588   7.474  0.1943 -0.1265 -0.1448
 1237ERGO   ROH16283   7.636   1.000   6.184 -0.0602 -0.0857  0.2124
 1237ERGO    R116284   7.528   0.998   6.445 -0.0077 -0.2374  0.2337
 1237ERGO    R216285   7.572   0.791   6.623  0.3654 -0.1533  0.2447
 1237ERGO    R316286   7.658   0.991   6.785  0.0730  0.0061  0.2104
 1237ERGO    R416287   7.595   0.770   6.967  0.4408 -0.0831  0.2445
 1237ERGO    R516288   7.519   0.974   6.980  0.1184 -0.1935  0.2298
 1237ERGO    C116289   7.689   0.946   7.320  0.2101  0.1073  0.2120
 1237ERGO    C216290   7.886   0.706   7.577  0.1050  0.3435  0.2158
 1238ERGO   ROH16291   2.854   0.531   5.398  0.0485 -0.1550  0.0428
 1238ERGO    R116292   3.043   0.626   5.587  0.0937 -0.2284  0.0354
 1238ERGO    R216293   3.002   0.856   5.735  0.3241 -0.0395 -0.1833
 1238ERGO    R316294   3.049   0.690   5.945  0.0234  0.0804 -0.0163
 1238ERGO    R416295   3.116   0.957   6.045  0.1185  0.1059 -0.1536
 1238ERGO    R516296   3.244   0.780   6.051 -0.0070  0.0201  0.0902
 1238ERGO    C116297   3.226   0.860   6.423 -0.2835  0.3031  0.0206
 1238ERGO    C216298   3.151   1.086   6.774 -0.0700  0.0954 -0.3126
 1239ERGO   ROH16299  12.375  18.316   6.481 -0.0847  0.2350 -0.1880
 1239ERGO    R116300  12.436  18.395   6.746 -0.0766  0.0279 -0.1268
 1239ERGO    R216301  12.380  18.649   6.843  0.2052  0.0510 -0.0232
 1239ERGO    R316302  12.250  18.511   7.037 -0.0354  0.1153 -0.1340
 1239ERGO    R416303  12.363  18.743   7.175  0.1841 -0.0702  0.0113
 1239ERGO    R516304  12.389  18.534   7.230 -0.0808 -0.1292 -0.0665
 1239ERGO    C116305  12.232  18.668   7.551 -0.0541 -0.0802 -0.0727
 1239ERGO    C216306  11.953  18.745   7.721 -0.3354  0.1868  0.2825
 1240ERGO   ROH16307   2.835   8.929   5.979 -0.1890 -0.2172 -0.0233
 1240ERGO    R116308   2.845   8.823   6.242  0.0564 -0.2349 -0.0374
 1240ERGO    R216309   3.037   8.898   6.425  0.0153  0.0282 -0.0954
 1240ERGO    R316310   2.821   8.953   6.581 -0.0190 -0.3039 -0.0160
 1240ERGO    R416311   3.052   8.985   6.759  0.0011  0.0805 -0.1083
 1240ERGO    R516312   2.877   8.860   6.794  0.2116 -0.1995 -0.0292
 1240ERGO    C116313   2.858   9.088   7.100 -0.0393 -0.2005 -0.0412
 1240ERGO    C216314   2.735   9.184   7.354 -0.2034  0.0608 -0.2988
 1241ERGO   ROH16315   6.411  12.991   5.627 -0.2561 -0.0683  0.0075
 1241ERGO    R116316   6.365  13.014   5.906 -0.1902 -0.1235  0.0231
 1241ERGO    R216317   6.425  12.811   6.083 -0.0378 -0.1150 -0.0161
 1241ERGO    R316318   6.567  13.006   6.208 -0.1007 -0.0568 -0.0345
 1241ERGO    R416319   6.439  12.856   6.426  0.0996 -0.1935 -0.0107
 1241ERGO    R516320   6.429  13.071   6.393 -0.0530 -0.1914  0.0496
 1241ERGO    C116321   6.582  13.066   6.742  0.1206 -0.1845 -0.0249
 1241ERGO    C216322   6.776  13.061   6.968  0.1403  0.1916  0.0254
 1242ERGO   ROH16323  14.757  12.189   5.914 -0.2783 -0.1075  0.1035
 1242ERGO    R116324  14.694  12.230   6.187 -0.1897 -0.0074  0.1104
 1242ERGO    R216325  14.879  12.197   6.389 -0.1502 -0.0410  0.0750
 1242ERGO    R316326  14.806  12.451   6.453 -0.0169  0.0105  0.0226
 1242ERGO    R416327  14.950  12.354   6.689 -0.0551 -0.0029  0.0321
 1242ERGO    R516328  14.750  12.440   6.686 -0.0078  0.0966  0.0258
 1242ERGO    C116329  14.922  12.684   6.923  0.1254  0.0676 -0.0419
 1242ERGO    C216330  15.021  12.908   7.065 -0.0439 -0.0700 -0.0338
 1243ERGO   ROH16331  15.811   2.381   6.121 -0.0406  0.0153 -0.0234
 1243ERGO    R116332  15.793   2.267   6.380  0.0675  0.1749  0.0558
 1243ERGO    R216333  15.898   2.020   6.442 -0.1323  0.0980  0.0943
 1243ERGO    R316334  16.025   2.159   6.639  0.1846  0.0776 -0.0883
 1243ERGO    R416335  16.017   1.883   6.737 -0.1184  0.1525  0.1142
 1243ERGO    R516336  15.946   2.060   6.842  0.1846  0.3273  0.0372
 1243ERGO    C116337  16.204   1.934   7.093  0.1873  0.1652 -0.0456
 1243ERGO    C216338  16.339   1.903   7.384  0.0702  0.1271  0.3354
 1244ERGO   ROH16339  13.725   7.924   6.571 -0.0829  0.0463 -0.2859
 1244ERGO    R116340  14.007   7.913   6.593 -0.0846  0.1788 -0.1858
 1244ERGO    R216341  14.158   8.126   6.684 -0.2294  0.1980  0.0170
 1244ERGO    R316342  14.253   7.941   6.860 -0.2026  0.1273 -0.0708
 1244ERGO    R416343  14.417   8.180   6.905 -0.0994  0.0603 -0.0992
 1244ERGO    R516344  14.489   7.979   6.862 -0.1883  0.0459 -0.1798
 1244ERGO    C116345  14.658   8.039   7.199  0.0016 -0.0862 -0.2492
 1244ERGO    C216346  14.977   8.030   7.425  0.2813  0.2568 -0.0929
 1245ERGO   ROH16347   8.053  15.648   5.676  0.4717  0.1788 -0.1988
 1245ERGO    R116348   8.114  15.836   5.878  0.1126  0.1643 -0.0699
 1245ERGO    R216349   7.919  15.962   6.029 -0.1371 -0.2440 -0.0405
 1245ERGO    R316350   8.063  15.864   6.237 -0.0250 -0.1329 -0.0633
 1245ERGO    R416351   7.932  16.103   6.344  0.0981 -0.0267 -0.1423
 1245ERGO    R516352   8.145  16.058   6.350  0.0939 -0.0708 -0.2494
 1245ERGO    C116353   8.074  16.092   6.724  0.3403  0.2042 -0.2231
 1245ERGO    C216354   8.089  16.130   7.046  0.0690 -0.1752  0.2789
 1246ERGO   ROH16355   7.002  11.352   6.031  0.1173 -0.0891 -0.1356
 1246ERGO    R116356   6.934  11.385   6.304  0.1314  0.1072 -0.1556
 1246ERGO    R216357   6.918  11.173   6.479  0.0872  0.2310 -0.0187
 1246ERGO    R316358   7.092  11.322   6.625  0.1216  0.2859 -0.1122
 1246ERGO    R416359   6.938  11.171   6.824  0.3428  0.1402 -0.0314
 1246ERGO    R516360   6.967  11.387   6.819  0.2239  0.1652  0.0031
 1246ERGO    C116361   7.114  11.309   7.162  0.5239  0.1389 -0.1266
 1246ERGO    C216362   7.171  11.176   7.379 -0.0719 -0.2823  0.0534
 1247ERGO   ROH16363   3.157  10.844   5.829 -0.0015 -0.1936  0.0170
 1247ERGO    R116364   3.008  10.977   6.030 -0.0042 -0.1207 -0.0325
 1247ERGO    R216365   2.907  10.848   6.252 -0.0498 -0.0510 -0.0088
 1247ERGO    R316366   3.043  11.041   6.386 -0.0334 -0.0382 -0.0448
 1247ERGO    R416367   2.839  10.949   6.575 -0.0909  0.0760 -0.0572
 1247ERGO    R516368   2.875  11.155   6.513 -0.0301  0.0443 -0.1177
 1247ERGO    C116369   2.926  11.189   6.889 -0.0994  0.1617 -0.1193
 1247ERGO    C216370   3.059  11.234   7.144 -0.0773  0.1085  0.0152
 1248ERGO   ROH16371  16.576  10.639   5.438  0.1234  0.0332  0.0176
 1248ERGO    R116372  16.426  10.639   5.678  0.1066  0.2194  0.0090
 1248ERGO    R216373  16.466  10.453   5.879 -0.2039  0.1004 -0.0305
 1248ERGO    R316374  16.496  10.674   6.034  0.1489  0.0228  0.0208
 1248ERGO    R416375  16.560  10.450   6.212 -0.1387 -0.1144 -0.0490
 1248ERGO    R516376  16.414  10.608   6.249  0.0961  0.0891  0.0193
 1248ERGO    C116377  16.643  10.657   6.550  0.2304 -0.3123 -0.0116
 1248ERGO    C216378  16.703  10.503   6.819 -0.0036  0.0690 -0.0182
 1249ERGO   ROH16379   1.375  10.572   5.730  0.0352  0.2905  0.0132
 1249ERGO    R116380   1.317  10.596   6.006 -0.0062  0.1997  0.0142
 1249ERGO    R216381   1.374  10.397   6.189 -0.1492  0.0829 -0.0572
 1249ERGO    R316382   1.506  10.597   6.317 -0.0638 -0.0420  0.0499
 1249ERGO    R416383   1.467  10.391   6.522 -0.3105 -0.0484 -0.0144
 1249ERGO    R516384   1.409  10.600   6.537 -0.1620 -0.0147  0.0019
 1249ERGO    C116385   1.644  10.575   6.836 -0.3243 -0.2421  0.1111
 1249ERGO    C216386   1.673  10.650   7.175 -0.0825 -0.0918 -0.0527
 1250ERGO   ROH16387   1.440  14.513   5.945  0.0639  0.0880 -0.0416
 1250ERGO    R116388   1.407  14.425   6.212  0.0541 -0.0680 -0.0933
 1250ERGO    R216389   1.620  14.361   6.375  0.0514 -0.0766 -0.0957
 1250ERGO    R316390   1.505  14.542   6.542 -0.0414 -0.2093 -0.0137
 1250ERGO    R416391   1.693  14.394   6.712  0.3017  0.0422 -0.1587
 1250ERGO    R516392   1.481  14.424   6.750  0.2882 -0.2285  0.0208
 1250ERGO    C116393   1.627  14.583   7.064  0.3603 -0.0132 -0.1184
 1250ERGO    C216394   1.801  14.847   7.329  0.1091  0.4162  0.1224
 1251ERGO   ROH16395   7.441  17.181   6.052 -0.1294  0.2178  0.0162
 1251ERGO    R116396   7.321  16.970   6.198  0.2502  0.0198  0.0562
 1251ERGO    R216397   7.423  16.880   6.439  0.2699  0.4372  0.2180
 1251ERGO    R316398   7.170  16.929   6.527  0.0555 -0.1047 -0.0485
 1251ERGO    R416399   7.283  16.745   6.725  0.2261  0.1145  0.0495
 1251ERGO    R516400   7.096  16.720   6.616  0.3934 -0.2733 -0.1556
 1251ERGO    C116401   6.964  16.714   6.974 -0.0008 -0.5819 -0.2988
 1251ERGO    C216402   6.789  16.429   7.230 -0.0244 -0.1097 -0.0577
 1252ERGO   ROH16403  14.828   7.627   6.055 -0.0297 -0.3115  0.0832
 1252ERGO    R116404  14.980   7.456   6.222  0.0635 -0.1558  0.1588
 1252ERGO    R216405  15.128   7.550   6.435 -0.1676 -0.0043  0.2536
 1252ERGO    R316406  14.984   7.367   6.575 -0.0461 -0.1793  0.1551
 1252ERGO    R416407  15.216   7.423   6.744 -0.2366  0.1269  0.3287
 1252ERGO    R516408  15.149   7.227   6.678  0.0581  0.0325  0.2866
 1252ERGO    C116409  15.132   7.178   7.056 -0.1629  0.0389  0.2798
 1252ERGO    C216410  15.250   7.244   7.371  0.0647  0.0980  0.0761
 1253ERGO   ROH16411  17.434  16.535   6.394  0.0064 -0.1352 -0.0592
 1253ERGO    R116412  17.371  16.363   6.610  0.1939 -0.1725 -0.0326
 1253ERGO    R216413  17.562  16.275   6.790  0.2927  0.0679 -0.0127
 1253ERGO    R316414  17.389  16.378   6.974  0.1714 -0.0919 -0.0353
 1253ERGO    R416415  17.533  16.166   7.117  0.2059 -0.0869 -0.0709
 1253ERGO    R516416  17.317  16.188   7.100  0.2050 -0.1784 -0.1477
 1253ERGO    C116417  17.354  16.199   7.480  0.0417 -0.3272 -0.1259
 1253ERGO    C216418  17.455  16.051   7.799 -0.0658 -0.0955  0.0323
 1254ERGO   ROH16419   2.508  16.757   5.837 -0.0147  0.3215 -0.1726
 1254ERGO    R116420   2.647  16.837   6.070 -0.1398  0.1256 -0.0275
 1254ERGO    R216421   2.867  17.005   6.061  0.0467 -0.1029  0.2066
 1254ERGO    R316422   2.721  17.151   6.238  0.0400  0.0147  0.1058
 1254ERGO    R416423   3.000  17.223   6.293  0.0609 -0.1185  0.2135
 1254ERGO    R516424   2.854  17.151   6.438 -0.0460 -0.0101  0.1667
 1254ERGO    C116425   2.941  17.488   6.595  0.0629 -0.0173  0.1228
 1254ERGO    C216426   3.055  17.533   6.865 -0.3879  0.3518 -0.1676
 1255ERGO   ROH16427   9.323   0.626   5.956  0.0447  0.3809 -0.0330
 1255ERGO    R116428   9.161   0.704   6.175  0.0322  0.0585  0.0787
 1255ERGO    R216429   9.165   0.573   6.418  0.3679 -0.0160  0.0372
 1255ERGO    R316430   9.215   0.822   6.515  0.0280  0.0377  0.0866
 1255ERGO    R416431   9.077   0.685   6.733  0.3910 -0.2688  0.1358
 1255ERGO    R516432   9.022   0.876   6.645  0.0197 -0.3214  0.2354
 1255ERGO    C116433   9.072   0.984   7.007  0.0853 -0.3657  0.2396
 1255ERGO    C216434   9.144   0.988   7.355  0.1056 -0.0529 -0.1788
 1256ERGO   ROH16435   5.584   1.490   5.797  0.0200  0.0587  0.0617
 1256ERGO    R116436   5.421   1.484   6.028 -0.1764 -0.0648 -0.0768
 1256ERGO    R216437   5.270   1.263   6.099  0.1115 -0.2678 -0.0864
 1256ERGO    R316438   5.403   1.288   6.334 -0.1297  0.0820  0.0212
 1256ERGO    R416439   5.218   1.065   6.377  0.2674 -0.2820 -0.0657
 1256ERGO    R516440   5.238   1.243   6.501 -0.1904 -0.1894 -0.1047
 1256ERGO    C116441   5.312   0.974   6.761  0.1317  0.0382  0.0475
 1256ERGO    C216442   5.270   0.705   6.991 -0.2659  0.1052  0.2221
 1257ERGO   ROH16443  10.150  14.201   5.939 -0.0413  0.1614 -0.0329
 1257ERGO    R116444  10.083  14.123   6.203 -0.0332 -0.1767 -0.1249
 1257ERGO    R216445  10.160  13.880   6.311  0.4476 -0.0957 -0.2534
 1257ERGO    R316446  10.264  14.037   6.507 -0.0161  0.0119 -0.0812
 1257ERGO    R416447  10.297  13.764   6.606  0.7054 -0.0132 -0.3388
 1257ERGO    R516448  10.200  13.929   6.710  0.2280 -0.3628 -0.1961
 1257ERGO    C116449  10.474  13.844   6.962  0.4201  0.1358 -0.2270
 1257ERGO    C216450  10.721  13.894   7.329 -0.1382  0.2095  0.3054
 1258ERGO   ROH16451  18.253  13.759   6.057 -0.0695  0.2246  0.0283
 1258ERGO    R116452  18.362  13.830   6.308 -0.1534  0.2415  0.0600
 1258ERGO    R216453  18.205  13.877   6.531 -0.2051 -0.1707  0.1133
 1258ERGO    R316454  18.367  13.690   6.644  0.1290  0.0209 -0.0310
 1258ERGO    R416455  18.347  13.903   6.845 -0.4004 -0.2206  0.2071
 1258ERGO    R516456  18.531  13.818   6.764 -0.1775  0.2364  0.1824
 1258ERGO    C116457  18.581  13.743   7.134 -0.2007 -0.0697  0.1264
 1258ERGO    C216458  18.523  13.690   7.474  0.1847  0.3422 -0.1287
 1259ERGO   ROH16459   4.131  17.510   5.861 -0.0520 -0.0493 -0.0906
 1259ERGO    R116460   4.268  17.614   6.086 -0.1426 -0.1603  0.0175
 1259ERGO    R216461   4.328  17.882   6.113  0.1761 -0.2258 -0.0039
 1259ERGO    R316462   4.199  17.854   6.350 -0.1024  0.0083 -0.1231
 1259ERGO    R416463   4.397  18.066   6.397  0.2121 -0.3073  0.0398
 1259ERGO    R516464   4.371  17.884   6.515 -0.2028 -0.2593  0.0380
 1259ERGO    C116465   4.316  18.147   6.786 -0.0285 -0.1349 -0.0466
 1259ERGO    C216466   4.353  18.394   7.104 -0.1707  0.2932  0.0840
 1260ERGO   ROH16467  17.625  17.106   6.307 -0.0370  0.1251  0.0435
 1260ERGO    R116468  17.737  17.254   6.521  0.0596  0.0810  0.0241
 1260ERGO    R216469  17.605  17.291   6.761  0.1018  0.1620  0.0354
 1260ERGO    R316470  17.834  17.187   6.865  0.0598  0.0510  0.0180
 1260ERGO    R416471  17.765  17.410   7.043  0.0487 -0.0713  0.1664
 1260ERGO    R516472  17.956  17.378   6.942  0.0690 -0.0241  0.1918
 1260ERGO    C116473  18.073  17.381   7.305 -0.0216 -0.3115  0.2264
 1260ERGO    C216474  18.187  17.294   7.656  0.0217  0.0044  0.2928
 1261ERGO   ROH16475  13.820   1.732   6.737 -0.0493  0.0548 -0.1286
 1261ERGO    R116476  13.682   1.713   6.983 -0.0837  0.2230 -0.1339
 1261ERGO    R216477  13.805   1.633   7.217 -0.2038  0.0070 -0.1457
 1261ERGO    R316478  13.706   1.867   7.312  0.1372  0.1442 -0.1101
 1261ERGO    R416479  13.816   1.732   7.548 -0.2336 -0.1613 -0.0932
 1261ERGO    R516480  13.614   1.810   7.526 -0.0963  0.2001 -0.1892
 1261ERGO    C116481  13.729   2.009   7.830  0.0694 -0.1306 -0.0293
 1261ERGO    C216482  13.965   2.307   8.015 -0.0237 -0.0435 -0.1190
 1262ERGO   ROH16483   0.885   5.249   5.864  0.2123 -0.3044  0.1147
 1262ERGO    R116484   0.660   5.236   6.036  0.1751 -0.1103  0.0847
 1262ERGO    R216485   0.499   5.012   6.053 -0.0934  0.0623 -0.0205
 1262ERGO    R316486   0.554   5.033   6.318 -0.0890 -0.1036 -0.0087
 1262ERGO    R416487   0.285   4.917   6.308 -0.1054 -0.0338 -0.0672
 1262ERGO    R516488   0.346   5.094   6.418 -0.0674 -0.1163  0.0325
 1262ERGO    C116489   0.213   4.880   6.705 -0.1083 -0.2455 -0.0833
 1262ERGO    C216490  -0.098   4.796   6.994  0.1686  0.3135 -0.0736
 1263ERGO   ROH16491  11.304  16.301   6.319 -0.1012 -0.0740  0.1331
 1263ERGO    R116492  11.370  16.221   6.582 -0.0263 -0.0693  0.1159
 1263ERGO    R216493  11.504  16.386   6.758 -0.0424 -0.0390  0.0998
 1263ERGO    R316494  11.292  16.332   6.920  0.0049 -0.1129  0.1376
 1263ERGO    R416495  11.490  16.459   7.096 -0.0794  0.1295  0.0628
 1263ERGO    R516496  11.391  16.266   7.128  0.0653  0.0709  0.1686
 1263ERGO    C116497  11.282  16.450   7.444 -0.0566  0.1582  0.0767
 1263ERGO    C216498  11.365  16.639   7.804  0.0788  0.0761 -0.2466
 1264ERGO   ROH16499  14.357   2.480   6.481 -0.0919  0.0167 -0.0274
 1264ERGO    R116500  14.308   2.713   6.635  0.2995  0.0882 -0.0054
 1264ERGO    R216501  14.142   2.713   6.857  0.1068  0.3917 -0.1551
 1264ERGO    R316502  14.361   2.817   6.980  0.2432 -0.1261  0.0724
 1264ERGO    R416503  14.145   2.855   7.172  0.0967  0.4019 -0.1576
 1264ERGO    R516504  14.280   3.008   7.097  0.5610  0.0905 -0.0308
 1264ERGO    C116505  14.352   3.035   7.471  0.2186 -0.0783  0.0545
 1264ERGO    C216506  14.294   3.229   7.708 -0.0520 -0.0575  0.1908
 1265ERGO   ROH16507   5.032   9.311   6.271 -0.3121  0.2325 -0.0906
 1265ERGO    R116508   4.915   9.249   6.521 -0.4148  0.1297 -0.1638
 1265ERGO    R216509   5.036   9.310   6.761 -0.3932 -0.1982 -0.0894
 1265ERGO    R316510   4.800   9.435   6.812 -0.2813 -0.0082 -0.0208
 1265ERGO    R416511   4.930   9.413   7.074 -0.1643  0.0060 -0.0750
 1265ERGO    R516512   4.729   9.345   7.022 -0.2410  0.1266  0.0525
 1265ERGO    C116513   4.646   9.590   7.303  0.0741  0.3032 -0.0023
 1265ERGO    C216514   4.656   9.717   7.628 -0.1002  0.2491 -0.0354
 1266ERGO   ROH16515   1.912   9.606   6.082  0.1569  0.1211  0.1290
 1266ERGO    R116516   1.853   9.506   6.340 -0.0989 -0.0429  0.0112
 1266ERGO    R216517   1.709   9.274   6.380  0.1222 -0.2390 -0.2859
 1266ERGO    R316518   1.926   9.204   6.529 -0.0007 -0.0238  0.0043
 1266ERGO    R416519   1.695   9.138   6.698 -0.1442  0.1649 -0.1169
 1266ERGO    R516520   1.866   9.263   6.753 -0.2110  0.2573 -0.1204
 1266ERGO    C116521   1.890   8.994   7.022 -0.4146  0.6021  0.2539
 1266ERGO    C216522   1.642   8.790   7.278 -0.2237  0.1126 -0.1726
 1267ERGO   ROH16523   4.753   9.642   6.324  0.0207  0.0311  0.0936
 1267ERGO    R116524   4.664   9.834   6.512  0.0185  0.0462  0.0762
 1267ERGO    R216525   4.434   9.800   6.661  0.0023  0.0725  0.0521
 1267ERGO    R316526   4.602   9.844   6.870 -0.0177  0.0681  0.0700
 1267ERGO    R416527   4.351   9.972   6.949 -0.0493  0.0102  0.0752
 1267ERGO    R516528   4.548  10.065   6.945 -0.0639  0.0476  0.1025
 1267ERGO    C116529   4.460  10.113   7.314 -0.0982 -0.0303  0.1056
 1267ERGO    C216530   4.594  10.361   7.601 -0.0056 -0.0573  0.2366
 1268ERGO   ROH16531   5.768   2.333   6.276 -0.0595 -0.0452 -0.0758
 1268ERGO    R116532   5.546   2.311   6.452 -0.0398  0.0439 -0.0391
 1268ERGO    R216533   5.573   2.231   6.715 -0.0331 -0.0102 -0.0557
 1268ERGO    R316534   5.441   2.464   6.764  0.0972  0.0523  0.0037
 1268ERGO    R416535   5.492   2.351   7.030  0.0193 -0.0529 -0.0259
 1268ERGO    R516536   5.299   2.414   6.951  0.0590  0.0801 -0.0180
 1268ERGO    C116537   5.322   2.638   7.259  0.1721 -0.0192  0.0471
 1268ERGO    C216538   5.265   2.897   7.513 -0.3411  0.0448  0.0725
 1269ERGO   ROH16539  15.603  17.590   6.729  0.0291  0.0556 -0.2174
 1269ERGO    R116540  15.614  17.493   6.995 -0.0259  0.0940 -0.2005
 1269ERGO    R216541  15.685  17.653   7.209 -0.0342  0.1163 -0.2129
 1269ERGO    R316542  15.448  17.567   7.311 -0.0628  0.1677 -0.2368
 1269ERGO    R416543  15.582  17.698   7.536  0.1417 -0.2514 -0.1024
 1269ERGO    R516544  15.501  17.495   7.533 -0.0243 -0.1864 -0.3529
 1269ERGO    C116545  15.300  17.643   7.821  0.2173 -0.4171 -0.0606
 1269ERGO    C216546  15.340  17.765   8.063 -0.2792 -0.0266 -0.2627
 1270ERGO   ROH16547   1.653  15.445   5.845 -0.0930  0.2532 -0.0575
 1270ERGO    R116548   1.678  15.384   6.121 -0.0393  0.1707 -0.0810
 1270ERGO    R216549   1.780  15.563   6.304  0.0592  0.0930 -0.0581
 1270ERGO    R316550   1.546  15.514   6.434  0.0769  0.1229 -0.0127
 1270ERGO    R416551   1.725  15.625   6.640  0.0019  0.4432 -0.1266
 1270ERGO    R516552   1.614  15.437   6.650  0.0980  0.4013  0.0809
 1270ERGO    C116553   1.473  15.614   6.957 -0.0149  0.6751 -0.1241
 1270ERGO    C216554   1.498  15.748   7.337  0.1229 -0.0320 -0.3018
 1271ERGO   ROH16555   0.411   4.118   5.952 -0.1203  0.0794  0.0736
 1271ERGO    R116556   0.588   4.042   6.160 -0.0192 -0.1684 -0.0985
 1271ERGO    R216557   0.572   4.147   6.415  0.4570 -0.0422 -0.1115
 1271ERGO    R316558   0.560   3.886   6.487  0.0592 -0.0021 -0.0109
 1271ERGO    R416559   0.623   4.028   6.735  0.5990 -0.0189 -0.1247
 1271ERGO    R516560   0.733   3.861   6.650  0.2038 -0.2569 -0.1959
 1271ERGO    C116561   0.641   3.713   6.989  0.3082  0.0323 -0.0381
 1271ERGO    C216562   0.560   3.620   7.307  0.1481 -0.0801  0.1880
 1272ERGO   ROH16563  13.158  14.669   6.413  0.3577  0.1143  0.1459
 1272ERGO    R116564  13.137  14.669   6.695  0.0216 -0.0769  0.1261
 1272ERGO    R216565  13.159  14.900   6.846  0.1619 -0.2185  0.3292
 1272ERGO    R316566  12.918  14.821   6.944 -0.0720  0.0315 -0.0214
 1272ERGO    R416567  13.002  15.039   7.121 -0.0757 -0.0985  0.1368
 1272ERGO    R516568  12.942  14.838   7.181 -0.3880 -0.0432  0.0184
 1272ERGO    C116569  12.685  15.045   7.373 -0.4337  0.2062 -0.3044
 1272ERGO    C216570  12.626  15.130   7.703 -0.1036  0.3849  0.0502
 1273ERGO   ROH16571   9.190  12.652   5.976  0.3484  0.0336  0.0113
 1273ERGO    R116572   9.257  12.806   6.205  0.1614  0.0181  0.0772
 1273ERGO    R216573   9.065  12.924   6.366  0.0290 -0.0198 -0.0550
 1273ERGO    R316574   9.193  12.788   6.563 -0.1035 -0.0227  0.0311
 1273ERGO    R416575   9.011  12.969   6.704 -0.0895  0.0924 -0.0874
 1273ERGO    R516576   9.226  12.950   6.736 -0.1062  0.0122  0.0020
 1273ERGO    C116577   9.100  12.866   7.086 -0.2829  0.1550 -0.0254
 1273ERGO    C216578   9.054  12.892   7.407 -0.1091  0.1833  0.2567
 1274ERGO   ROH16579  11.529  14.982   6.421 -0.1345  0.0959 -0.0054
 1274ERGO    R116580  11.359  14.887   6.626 -0.1151  0.2988  0.1068
 1274ERGO    R216581  11.348  14.620   6.698 -0.4802  0.2906  0.0168
 1274ERGO    R316582  11.399  14.718   6.946 -0.1098  0.1209  0.0159
 1274ERGO    R416583  11.276  14.457   6.993 -0.0765  0.0923  0.0134
 1274ERGO    R516584  11.212  14.647   7.078  0.0615  0.0516  0.2374
 1274ERGO    C116585  11.282  14.454   7.399  0.5063 -0.1826  0.0106
 1274ERGO    C216586  11.316  14.391   7.772 -0.0155 -0.2202  0.1980
 1275ERGO   ROH16587  14.005  10.957   5.964 -0.0636 -0.0504  0.0316
 1275ERGO    R116588  14.028  11.219   6.069 -0.1067 -0.0537  0.0470
 1275ERGO    R216589  13.852  11.319   6.257 -0.1328 -0.0890  0.0348
 1275ERGO    R316590  14.080  11.368   6.397 -0.1524 -0.0605  0.0591
 1275ERGO    R416591  13.899  11.586   6.472 -0.1373  0.0175 -0.0938
 1275ERGO    R516592  14.101  11.607   6.395 -0.1115 -0.0606 -0.0636
 1275ERGO    C116593  14.140  11.787   6.729 -0.1585  0.1064 -0.1459
 1275ERGO    C216594  14.225  11.844   7.096  0.1601  0.1119 -0.2369
 1276ERGO   ROH16595   0.806   6.176   5.824  0.0731 -0.0716  0.0340
 1276ERGO    R116596   0.923   6.064   6.056  0.0929 -0.0855  0.0175
 1276ERGO    R216597   1.080   6.211   6.230  0.0307 -0.0717  0.0640
 1276ERGO    R316598   0.904   6.120   6.415  0.0457 -0.1733  0.0285
 1276ERGO    R416599   1.130   6.219   6.572 -0.0270 -0.0840  0.0728
 1276ERGO    R516600   1.041   6.021   6.585  0.0645 -0.1262  0.0391
 1276ERGO    C116601   0.994   6.137   6.945 -0.0466 -0.1867  0.0446
 1276ERGO    C216602   1.054   6.068   7.286 -0.1760 -0.0502  0.0775
 1277ERGO   ROH16603  13.122   5.507   6.063 -0.0267  0.0732 -0.0363
 1277ERGO    R116604  12.955   5.380   6.253  0.0006  0.0662 -0.0169
 1277ERGO    R216605  13.055   5.239   6.469  0.0310  0.1068 -0.0044
 1277ERGO    R316606  12.893   5.406   6.610  0.0076  0.0956 -0.0177
 1277ERGO    R416607  13.032   5.246   6.813 -0.0716  0.0368 -0.0093
 1277ERGO    R516608  12.817   5.272   6.794 -0.0630  0.0657 -0.0685
 1277ERGO    C116609  12.867   5.406   7.147 -0.1532 -0.0145 -0.0246
 1277ERGO    C216610  12.928   5.489   7.556 -0.0718 -0.2910  0.0791
 1278ERGO   ROH16611  11.501  17.896   8.410 -0.0043 -0.0633  0.0532
 1278ERGO    R116612  11.678  18.052   8.566  0.0485 -0.0773  0.0075
 1278ERGO    R216613  11.760  18.304   8.490  0.0096 -0.0651  0.0103
 1278ERGO    R316614  11.668  18.374   8.736  0.1007 -0.1004  0.0554
 1278ERGO    R416615  11.841  18.597   8.656 -0.1303  0.0328 -0.0919
 1278ERGO    R516616  11.854  18.482   8.841  0.0782  0.0732 -0.0774
 1278ERGO    C116617  11.801  18.832   8.983 -0.1263  0.0569 -0.1091
 1278ERGO    C216618  11.773  19.028   9.313  0.1472  0.5151 -0.2299
 1279ERGO   ROH16619  17.434   5.495   6.353  0.0030 -0.2624  0.1046
 1279ERGO    R116620  17.271   5.550   6.578 -0.1008 -0.1467  0.0022
 1279ERGO    R216621  17.034   5.416   6.626 -0.0360 -0.2448  0.0536
 1279ERGO    R316622  17.149   5.367   6.867 -0.0798  0.0526  0.1391
 1279ERGO    R416623  16.872   5.273   6.896  0.0440 -0.3599  0.0417
 1279ERGO    R516624  16.976   5.414   7.026 -0.2372 -0.1316  0.0268
 1279ERGO    C116625  16.886   5.144   7.280  0.0495 -0.1477  0.1149
 1279ERGO    C216626  16.913   4.933   7.562 -0.0925  0.0314 -0.0816
 1280ERGO   ROH16627  16.881   4.976   6.483 -0.0620  0.1551  0.0087
 1280ERGO    R116628  16.944   4.865   6.735  0.0533 -0.0382 -0.1019
 1280ERGO    R216629  17.189   4.748   6.789  0.2241  0.2573 -0.1914
 1280ERGO    R316630  17.192   4.924   6.996 -0.0800  0.0389  0.0069
 1280ERGO    R416631  17.375   4.710   7.078  0.3290  0.2823 -0.2562
 1280ERGO    R516632  17.205   4.786   7.191  0.1977 -0.1568 -0.1465
 1280ERGO    C116633  17.487   4.854   7.440  0.1048  0.0918 -0.1078
 1280ERGO    C216634  17.744   4.731   7.763 -0.0105  0.0797  0.0279
 1281ERGO   ROH16635   5.607   4.165   6.033  0.1847 -0.1516  0.1408
 1281ERGO    R116636   5.597   4.131   6.314  0.0497  0.0305  0.1603
 1281ERGO    R216637   5.408   4.255   6.472 -0.1632 -0.0345 -0.0350
 1281ERGO    R316638   5.359   4.001   6.556  0.0236 -0.0258  0.1041
 1281ERGO    R416639   5.349   4.164   6.800 -0.1156  0.1011  0.0116
 1281ERGO    R516640   5.471   3.986   6.768  0.0206  0.1756  0.1201
 1281ERGO    C116641   5.268   3.873   7.070  0.0875  0.1883  0.1692
 1281ERGO    C216642   5.159   3.901   7.544  0.0417 -0.0652  0.1014
 1282ERGO   ROH16643   9.030  18.570   5.939 -0.2771 -0.0275 -0.0863
 1282ERGO    R116644   8.840  18.542   6.147 -0.0950 -0.1035  0.0721
 1282ERGO    R216645   8.902  18.425   6.390  0.2179  0.1298  0.1125
 1282ERGO    R316646   8.805  18.658   6.490  0.0261  0.0925  0.0191
 1282ERGO    R416647   8.778  18.465   6.710  0.2156  0.1719  0.1067
 1282ERGO    R516648   8.620  18.591   6.627  0.0986 -0.0023  0.0678
 1282ERGO    C116649   8.615  18.708   6.991  0.0343  0.1614  0.0157
 1282ERGO    C216650   8.562  18.694   7.399 -0.2200 -0.2900  0.1032
 1283ERGO   ROH16651   4.575   5.711   6.387  0.0625 -0.2678 -0.0448
 1283ERGO    R116652   4.603   5.692   6.668  0.0454 -0.0621 -0.0280
 1283ERGO    R216653   4.486   5.872   6.842 -0.1712 -0.0772 -0.1579
 1283ERGO    R316654   4.382   5.646   6.953  0.0538 -0.1211 -0.0300
 1283ERGO    R416655   4.326   5.857   7.148 -0.2550 -0.0350 -0.1990
 1283ERGO    R516656   4.428   5.669   7.187 -0.0451  0.1052 -0.0279
 1283ERGO    C116657   4.136   5.637   7.431 -0.0925 -0.0516 -0.1028
 1283ERGO    C216658   4.144   5.524   7.812  0.1287 -0.1024 -0.0082
 1284ERGO   ROH16659   7.132  16.536   5.557 -0.1865 -0.1457 -0.1819
 1284ERGO    R116660   6.914  16.595   5.727 -0.0940 -0.1400 -0.0640
 1284ERGO    R216661   6.660  16.495   5.683 -0.1232 -0.1266  0.0677
 1284ERGO    R316662   6.685  16.406   5.939  0.0084 -0.1351  0.0522
 1284ERGO    R416663   6.405  16.356   5.870 -0.0695  0.0171  0.2507
 1284ERGO    R516664   6.479  16.466   6.043  0.1137 -0.0192  0.1979
 1284ERGO    C116665   6.280  16.191   6.219  0.0852  0.0929  0.3428
 1284ERGO    C216666   6.007  15.890   6.321 -0.1509 -0.0889 -0.0660
 1285ERGO   ROH16667   7.252   8.183   6.132  0.2470  0.0431  0.1507
 1285ERGO    R116668   7.240   8.018   6.362 -0.0715  0.0525  0.1458
 1285ERGO    R216669   7.423   8.035   6.568 -0.0051 -0.3317  0.1329
 1285ERGO    R316670   7.200   8.066   6.720  0.0610  0.1258  0.1498
 1285ERGO    R416671   7.418   8.040   6.914  0.0173 -0.3707  0.1333
 1285ERGO    R516672   7.236   7.922   6.908 -0.2404  0.0198  0.1260
 1285ERGO    C116673   7.206   8.072   7.258  0.0923  0.0363  0.1492
 1285ERGO    C216674   7.028   8.165   7.571 -0.1200  0.0525 -0.1539
 1286ERGO   ROH16675   5.365  13.046   5.920 -0.0377 -0.0631 -0.0246
 1286ERGO    R116676   5.501  13.159   6.141 -0.0287 -0.1127 -0.0049
 1286ERGO    R216677   5.394  13.362   6.294  0.0581 -0.0154 -0.0739
 1286ERGO    R316678   5.445  13.191   6.499 -0.1136 -0.0119 -0.0264
 1286ERGO    R416679   5.351  13.437   6.629  0.2920  0.1843 -0.0855
 1286ERGO    R516680   5.537  13.330   6.671  0.1572 -0.0722 -0.1158
 1286ERGO    C116681   5.374  13.320   7.016  0.2671  0.3039 -0.0478
 1286ERGO    C216682   5.327  13.401   7.361 -0.0998 -0.0308 -0.2087
 1287ERGO   ROH16683   2.083  15.181   5.823 -0.1788  0.1390 -0.0911
 1287ERGO    R116684   2.170  15.157   6.091 -0.1203  0.0002 -0.1219
 1287ERGO    R216685   2.186  15.373   6.263  0.0912 -0.0564 -0.0667
 1287ERGO    R316686   2.030  15.217   6.422  0.0175  0.0171 -0.0658
 1287ERGO    R416687   2.128  15.429   6.599 -0.0625  0.0945 -0.1167
 1287ERGO    R516688   2.144  15.215   6.632 -0.0794  0.1101 -0.0121
 1287ERGO    C116689   1.948  15.315   6.944 -0.2213  0.2512 -0.1449
 1287ERGO    C216690   1.896  15.383   7.248 -0.1810 -0.0238  0.1091
 1288ERGO   ROH16691   3.121  17.283   5.768  0.2904 -0.2255  0.2938
 1288ERGO    R116692   3.255  17.422   5.974  0.3246  0.1689  0.0183
 1288ERGO    R216693   3.280  17.698   5.976 -0.2549  0.2426 -0.1700
 1288ERGO    R316694   3.168  17.673   6.223  0.1674  0.1150  0.0160
 1288ERGO    R416695   3.278  17.945   6.218 -0.1917  0.2529 -0.1816
 1288ERGO    R516696   3.317  17.792   6.368  0.2455  0.3154 -0.2290
 1288ERGO    C116697   3.172  18.066   6.590  0.2416  0.1390 -0.0138
 1288ERGO    C216698   3.001  18.166   6.729  0.2629  0.0192  0.1740
 1289ERGO   ROH16699   9.332   1.986   7.700  0.0529  0.0119  0.0170
 1289ERGO    R116700   9.196   1.897   7.932 -0.0007 -0.0711 -0.0450
 1289ERGO    R216701   9.322   1.755   8.133 -0.0191 -0.0451 -0.0111
 1289ERGO    R316702   9.221   1.952   8.291 -0.1594 -0.1022 -0.0293
 1289ERGO    R416703   9.199   1.709   8.453  0.0115 -0.0989 -0.0075
 1289ERGO    R516704   9.039   1.849   8.406 -0.0859 -0.2180 -0.0198
 1289ERGO    C116705   9.033   1.868   8.787 -0.1025 -0.1838 -0.0226
 1289ERGO    C216706   9.193   1.839   9.070 -0.0384  0.4072  0.2520
 1290ERGO   ROH16707   5.846  12.661   7.346  0.0958  0.0282 -0.2284
 1290ERGO    R116708   5.923  12.851   7.542  0.0370 -0.1387 -0.0384
 1290ERGO    R216709   6.174  12.851   7.659  0.0760 -0.1142 -0.1161
 1290ERGO    R316710   6.178  13.109   7.574 -0.1132 -0.0127  0.1667
 1290ERGO    R416711   6.325  13.112   7.827  0.2409 -0.2667 -0.0259
 1290ERGO    R516712   6.156  13.239   7.774  0.1291 -0.2450  0.3512
 1290ERGO    C116713   6.418  13.506   7.845  0.1594 -0.2602  0.2922
 1290ERGO    C216714   6.529  13.785   7.647 -0.2655  0.2809 -0.1022
 1291ERGO   ROH16715  17.874  11.610   5.944  0.1056  0.1072  0.0397
 1291ERGO    R116716  17.843  11.434   6.163 -0.0391 -0.0060 -0.0694
 1291ERGO    R216717  17.921  11.501   6.420  0.0381 -0.2374 -0.0301
 1291ERGO    R316718  17.664  11.435   6.480 -0.0194 -0.0451 -0.0581
 1291ERGO    R416719  17.816  11.367   6.721 -0.1081 -0.0923 -0.0148
 1291ERGO    R516720  17.682  11.235   6.610 -0.1807 -0.0275 -0.0055
 1291ERGO    C116721  17.514  11.227   6.952 -0.2472  0.1727 -0.0320
 1291ERGO    C216722  17.256  11.118   7.139 -0.1760 -0.1101 -0.0209
 1292ERGO   ROH16723   7.198  14.113   5.653  0.1286 -0.2830  0.0329
 1292ERGO    R116724   7.272  14.250   5.889  0.1289 -0.2205 -0.0038
 1292ERGO    R216725   7.117  14.450   6.000  0.2103 -0.0786 -0.1478
 1292ERGO    R316726   7.133  14.296   6.222  0.0416  0.0125 -0.0697
 1292ERGO    R416727   7.014  14.547   6.315  0.2688  0.1732 -0.2031
 1292ERGO    R516728   7.190  14.449   6.397  0.1698  0.0454 -0.1384
 1292ERGO    C116729   6.968  14.458   6.708  0.1446  0.4055 -0.1620
 1292ERGO    C216730   6.781  14.355   7.033  0.0244 -0.4263  0.3451
 1293ERGO   ROH16731   9.214  16.154   5.608  0.1569  0.0512  0.0802
 1293ERGO    R116732   9.003  16.164   5.797  0.1271 -0.1039  0.0555
 1293ERGO    R216733   9.009  16.022   6.034  0.2631  0.0008  0.1135
 1293ERGO    R316734   8.963  16.267   6.143 -0.0204 -0.0020  0.0098
 1293ERGO    R416735   8.900  16.076   6.357  0.1910  0.0083  0.0886
 1293ERGO    R516736   8.770  16.234   6.282  0.0088 -0.1680  0.0169
 1293ERGO    C116737   8.794  16.338   6.649 -0.1171  0.0098 -0.0233
 1293ERGO    C216738   8.958  16.422   6.944 -0.1111  0.0629 -0.1603
 1294ERGO   ROH16739   0.292  11.033   6.115  0.2916 -0.1495 -0.3045
 1294ERGO    R116740   0.358  11.059   6.389  0.2118  0.1782 -0.3126
 1294ERGO    R216741   0.516  10.876   6.522 -0.2437  0.0451  0.0780
 1294ERGO    R316742   0.662  11.097   6.586  0.2088 -0.1459 -0.2409
 1294ERGO    R416743   0.692  10.919   6.817 -0.1768  0.1248  0.0270
 1294ERGO    R516744   0.625  11.126   6.821  0.2465  0.2786 -0.2817
 1294ERGO    C116745   0.931  11.150   7.048  0.2869 -0.0080 -0.3020
 1294ERGO    C216746   1.267  11.278   7.173  0.0069  0.0954 -0.1549
 1295ERGO   ROH16747   4.235   7.517   6.308  0.1073  0.0756  0.2458
 1295ERGO    R116748   4.333   7.506   6.574 -0.0667  0.0135  0.3096
 1295ERGO    R216749   4.174   7.560   6.793 -0.2198 -0.0612  0.2242
 1295ERGO    R316750   4.260   7.316   6.875 -0.2503 -0.0761  0.2084
 1295ERGO    R416751   4.268   7.483   7.116 -0.0367 -0.0468  0.1747
 1295ERGO    R516752   4.432   7.364   7.035 -0.1323 -0.1136  0.0894
 1295ERGO    C116753   4.403   7.208   7.382  0.0414 -0.0524  0.1312
 1295ERGO    C216754   4.596   7.080   7.662 -0.2453  0.2152 -0.0724
 1296ERGO   ROH16755   2.165   4.585   6.114  0.1173  0.3539  0.3360
 1296ERGO    R116756   2.124   4.588   6.395  0.0111  0.1672  0.3252
 1296ERGO    R216757   1.874   4.618   6.509 -0.0296  0.1368  0.2527
 1296ERGO    R316758   1.942   4.388   6.638 -0.1222  0.0324  0.1159
 1296ERGO    R416759   1.692   4.474   6.765 -0.1000  0.0398  0.1481
 1296ERGO    R516760   1.880   4.428   6.865 -0.1267 -0.0894  0.1347
 1296ERGO    C116761   1.649   4.176   7.035 -0.2279 -0.1147 -0.0413
 1296ERGO    C216762   1.453   3.998   7.359  0.3214 -0.1110 -0.1481
 1297ERGO   ROH16763  10.911  18.651   6.251  0.0408 -0.0941 -0.0689
 1297ERGO    R116764  10.818  18.514   6.481 -0.1212 -0.0172 -0.0863
 1297ERGO    R216765  10.977  18.471   6.703 -0.1233 -0.3466 -0.1395
 1297ERGO    R316766  10.771  18.591   6.834  0.1031 -0.0441 -0.0497
 1297ERGO    R416767  10.883  18.404   7.029 -0.2162 -0.3635 -0.1703
 1297ERGO    R516768  10.675  18.417   6.966 -0.2029  0.0515 -0.1427
 1297ERGO    C116769  10.634  18.477   7.341 -0.0577 -0.0894 -0.1039
 1297ERGO    C216770  10.453  18.412   7.703 -0.0101 -0.2645 -0.1003
 1298ERGO   ROH16771  16.337  12.511   5.871 -0.0278 -0.0644 -0.0969
 1298ERGO    R116772  16.424  12.619   6.118  0.1189 -0.0232 -0.1661
 1298ERGO    R216773  16.249  12.689   6.320  0.2188  0.2789 -0.1839
 1298ERGO    R316774  16.405  12.524   6.469  0.0569  0.1895 -0.1097
 1298ERGO    R416775  16.272  12.697   6.665  0.0486  0.2624 -0.1709
 1298ERGO    R516776  16.486  12.663   6.646  0.0440  0.1462 -0.0661
 1298ERGO    C116777  16.432  12.546   7.005 -0.2025  0.1690 -0.0936
 1298ERGO    C216778  16.225  12.425   7.222 -0.0856 -0.1387 -0.1058
 1299ERGO   ROH16779  11.203  11.881   5.782 -0.0611 -0.2129  0.0514
 1299ERGO    R116780  11.083  12.069   5.955  0.0666 -0.1259  0.0465
 1299ERGO    R216781  10.855  12.014   6.101 -0.0144  0.0565 -0.0078
 1299ERGO    R316782  11.008  12.092   6.311  0.0111 -0.1006  0.0333
 1299ERGO    R416783  10.745  12.037   6.427 -0.0892  0.2099 -0.0430
 1299ERGO    R516784  10.860  12.221   6.448  0.1153  0.0813 -0.0236
 1299ERGO    C116785  10.825  12.125   6.815 -0.1088  0.1516 -0.0250
 1299ERGO    C216786  10.796  12.244   7.196  0.2576  0.0163 -0.1582
 1300ERGO   ROH16787  11.336  18.703   6.471  0.0757  0.4253  0.2830
 1300ERGO    R116788  11.436  18.566   6.698 -0.0939  0.0702  0.1508
 1300ERGO    R216789  11.445  18.682   6.948  0.0643 -0.1853  0.2639
 1300ERGO    R316790  11.305  18.460   7.021 -0.2233 -0.0799  0.0520
 1300ERGO    R416791  11.266  18.649   7.242  0.0009 -0.2190  0.2220
 1300ERGO    R516792  11.339  18.443   7.257 -0.2570 -0.3328  0.0444
 1300ERGO    C116793  11.031  18.421   7.481 -0.3061 -0.1399 -0.0013
 1300ERGO    C216794  10.951  18.425   7.852 -0.0296  0.1604  0.0707
 1301ERGO   ROH16795   7.159  18.283   6.207 -0.0453  0.1359  0.0091
 1301ERGO    R116796   7.148  18.152   6.458  0.0278 -0.0814 -0.0982
 1301ERGO    R216797   7.351  17.987   6.548  0.2451  0.1578 -0.1299
 1301ERGO    R316798   7.345  18.152   6.764 -0.1239 -0.0130 -0.0002
 1301ERGO    R416799   7.372  17.882   6.876  0.3052 -0.0578 -0.2006
 1301ERGO    R516800   7.220  18.030   6.928  0.0244 -0.3601 -0.1367
 1301ERGO    C116801   7.379  17.976   7.271 -0.0063 -0.3439 -0.1200
 1301ERGO    C216802   7.319  18.067   7.607 -0.1513  0.2568  0.0597
 1302ERGO   ROH16803   2.218  16.318   6.025  0.0983  0.2934  0.1077
 1302ERGO    R116804   2.467  16.327   6.160  0.1464 -0.0020  0.0417
 1302ERGO    R216805   2.487  16.358   6.433  0.2539  0.1810  0.0077
 1302ERGO    R316806   2.636  16.132   6.416 -0.1057 -0.0785  0.1549
 1302ERGO    R416807   2.683  16.232   6.688  0.3048  0.2194 -0.0098
 1302ERGO    R516808   2.835  16.182   6.540  0.0969 -0.2107 -0.1012
 1302ERGO    C116809   2.937  15.945   6.821 -0.0032 -0.0018  0.1182
 1302ERGO    C216810   2.964  15.695   7.026 -0.0859 -0.3816  0.0681
 1303ERGO   ROH16811  15.929   7.985   6.095  0.1424 -0.2473  0.0019
 1303ERGO    R116812  16.012   8.174   6.289  0.0394 -0.1633 -0.0348
 1303ERGO    R216813  15.855   8.244   6.506  0.0249 -0.2495 -0.0191
 1303ERGO    R316814  16.077   8.174   6.647  0.0988 -0.0724 -0.0444
 1303ERGO    R416815  15.901   8.300   6.844  0.0632 -0.1078 -0.0471
 1303ERGO    R516816  16.108   8.353   6.803  0.0260  0.0013 -0.1112
 1303ERGO    C116817  16.135   8.267   7.173  0.1549  0.1409 -0.0871
 1303ERGO    C216818  16.178   8.273   7.484  0.1134  0.0348 -0.1143
 1304ERGO   ROH16819  15.074  10.921   5.801  0.0495  0.0371  0.0955
 1304ERGO    R116820  14.973  10.815   6.043  0.0082  0.1088  0.1096
 1304ERGO    R216821  15.119  10.816   6.278  0.0404  0.0109  0.0870
 1304ERGO    R316822  14.898  10.941   6.376  0.1385  0.1631  0.1204
 1304ERGO    R416823  15.043  10.847   6.614 -0.0870 -0.3098  0.0915
 1304ERGO    R516824  14.834  10.807   6.565 -0.1187  0.0016 -0.0705
 1304ERGO    C116825  14.791  10.982   6.901 -0.0690 -0.3534  0.1253
 1304ERGO    C216826  14.737  11.040   7.198 -0.3102 -0.0519 -0.1375
 1305ERGO   ROH16827  10.334   9.545   6.275  0.2461 -0.1283  0.0948
 1305ERGO    R116828  10.242   9.493   6.538  0.1844 -0.3471  0.0341
 1305ERGO    R216829  10.326   9.274   6.685  0.5451 -0.2077  0.0601
 1305ERGO    R316830  10.391   9.463   6.869  0.0522 -0.0823  0.1184
 1305ERGO    R416831  10.362   9.217   7.024  0.5497 -0.1730  0.0642
 1305ERGO    R516832  10.262   9.406   7.062  0.1068 -0.4012  0.0597
 1305ERGO    C116833  10.445   9.361   7.393  0.0895 -0.0351  0.1214
 1305ERGO    C216834  10.550   9.458   7.728 -0.0661 -0.3044 -0.1021
 1306ERGO   ROH16835  11.961   4.418   5.923 -0.1051  0.2366  0.1119
 1306ERGO    R116836  11.833   4.426   6.175 -0.1678  0.1712  0.0831
 1306ERGO    R216837  11.890   4.247   6.378 -0.1776  0.1515  0.0720
 1306ERGO    R316838  11.934   4.474   6.521 -0.2592  0.1407  0.1133
 1306ERGO    R416839  11.790   4.296   6.704 -0.2516  0.0866  0.0590
 1306ERGO    R516840  11.735   4.501   6.652 -0.2881  0.0784  0.0783
 1306ERGO    C116841  11.772   4.538   7.030 -0.3715  0.0388  0.0901
 1306ERGO    C216842  11.858   4.581   7.362  0.2643 -0.0503 -0.2621
 1307ERGO   ROH16843   9.360  12.239   6.064  0.1334  0.1464 -0.0283
 1307ERGO    R116844   9.336  12.368   6.315  0.0040  0.0877 -0.0095
 1307ERGO    R216845   9.103  12.365   6.462 -0.0340 -0.0571 -0.0697
 1307ERGO    R316846   9.265  12.268   6.657 -0.0350 -0.0134 -0.0470
 1307ERGO    R416847   9.055  12.414   6.801 -0.0658 -0.0293 -0.0781
 1307ERGO    R516848   9.270  12.442   6.822 -0.0720  0.0037 -0.0645
 1307ERGO    C116849   9.179  12.351   7.181 -0.0852  0.0280 -0.0617
 1307ERGO    C216850   8.901  12.425   7.413  0.0624 -0.2392  0.1209
 1308ERGO   ROH16851   3.692   1.699   5.796 -0.1345  0.1584 -0.0859
 1308ERGO    R116852   3.787   1.593   6.041 -0.1949  0.1232 -0.0771
 1308ERGO    R216853   4.029   1.667   6.152 -0.1466 -0.0100 -0.0834
 1308ERGO    R316854   3.875   1.724   6.369 -0.1151  0.1010 -0.0911
 1308ERGO    R416855   4.149   1.770   6.459 -0.0910 -0.1389 -0.0612
 1308ERGO    R516856   4.001   1.643   6.555 -0.2038 -0.0199 -0.0873
 1308ERGO    C116857   4.074   1.884   6.842 -0.0290 -0.1097 -0.0555
 1308ERGO    C216858   4.341   1.892   7.011  0.3954 -0.0554  0.0794
 1309ERGO   ROH16859  10.380  18.068   6.661  0.2377 -0.1494  0.0245
 1309ERGO    R116860  10.402  17.943   6.914  0.0983 -0.1854  0.0191
 1309ERGO    R216861  10.431  18.086   7.149  0.0055 -0.2204  0.0515
 1309ERGO    R316862  10.214  17.942   7.225 -0.0520 -0.2001 -0.0705
 1309ERGO    R416863  10.362  17.990   7.473 -0.1777 -0.2268  0.0120
 1309ERGO    R516864  10.296  17.797   7.397 -0.1585 -0.2169 -0.0321
 1309ERGO    C116865  10.118  17.799   7.734 -0.3385 -0.2115 -0.1255
 1309ERGO    C216866  10.096  17.758   8.025 -0.0965  0.0069  0.1464
 1310ERGO   ROH16867  11.224  10.560   6.229 -0.1072  0.0013  0.2211
 1310ERGO    R116868  11.398  10.404   6.390 -0.0860  0.1042  0.2979
 1310ERGO    R216869  11.645  10.319   6.302 -0.1634 -0.0826  0.2609
 1310ERGO    R316870  11.733  10.440   6.529 -0.0011  0.1253  0.0919
 1310ERGO    R416871  11.961  10.280   6.437 -0.1737 -0.2230  0.2476
 1310ERGO    R516872  11.870  10.275   6.635 -0.1446  0.1209  0.2767
 1310ERGO    C116873  12.227  10.372   6.728 -0.0273 -0.1097  0.0812
 1310ERGO    C216874  12.550  10.589   6.750 -0.1296  0.0608 -0.0428
 1311ERGO   ROH16875   1.008  16.561   5.885 -0.0706 -0.0924  0.0946
 1311ERGO    R116876   0.836  16.514   6.104 -0.0252 -0.1134  0.1262
 1311ERGO    R216877   0.850  16.286   6.259  0.0241 -0.1165  0.1178
 1311ERGO    R316878   0.871  16.465   6.463  0.0471 -0.1197  0.1183
 1311ERGO    R416879   0.775  16.218   6.590 -0.1238 -0.0660  0.0948
 1311ERGO    R516880   0.684  16.416   6.604 -0.0268 -0.0180  0.0564
 1311ERGO    C116881   0.750  16.347   6.973 -0.1883 -0.0396  0.0820
 1311ERGO    C216882   0.724  16.216   7.215  0.0031  0.2394  0.0102
 1312ERGO   ROH16883  13.329  18.052   6.721  0.2891  0.2148  0.0382
 1312ERGO    R116884  13.263  17.865   6.922  0.1669  0.1413 -0.0704
 1312ERGO    R216885  13.353  17.887   7.182  0.0009  0.0511 -0.0081
 1312ERGO    R316886  13.088  17.870   7.241 -0.0363  0.0187 -0.1754
 1312ERGO    R416887  13.224  17.761   7.477 -0.1533  0.2231  0.0000
 1312ERGO    R516888  13.067  17.664   7.361 -0.0515  0.0928 -0.0412
 1312ERGO    C116889  12.900  17.672   7.704 -0.2781  0.2926 -0.1524
 1312ERGO    C216890  12.919  17.513   7.906  0.1266 -0.0673 -0.2557
 1313ERGO   ROH16891   4.784  10.998   5.919 -0.2560  0.4967 -0.1608
 1313ERGO    R116892   4.798  11.206   6.110 -0.0194  0.3473 -0.0107
 1313ERGO    R216893   4.724  11.172   6.374 -0.0961  0.2531 -0.0453
 1313ERGO    R316894   4.974  11.266   6.423  0.0181 -0.0910  0.0580
 1313ERGO    R416895   4.853  11.237   6.688 -0.2831  0.4404 -0.0053
 1313ERGO    R516896   4.946  11.416   6.607  0.0855  0.1934 -0.1559
 1313ERGO    C116897   5.163  11.364   6.917 -0.2847  0.2264  0.1151
 1313ERGO    C216898   5.301  11.443   7.214 -0.0379  0.0560 -0.0725
 1314ERGO   ROH16899  18.293   9.135   6.102 -0.3769 -0.3417  0.0231
 1314ERGO    R116900  18.265   9.287   6.340  0.0396 -0.2517  0.0230
 1314ERGO    R216901  18.036   9.281   6.494  0.0914  0.2232  0.1389
 1314ERGO    R316902  18.210   9.217   6.693  0.0709 -0.1046  0.0566
 1314ERGO    R416903  17.950   9.241   6.826  0.1842  0.4639  0.1937
 1314ERGO    R516904  18.134   9.344   6.881  0.4353  0.0933  0.0767
 1314ERGO    C116905  18.064   9.157   7.206  0.2191  0.2962  0.1484
 1314ERGO    C216906  17.808   8.955   7.422 -0.3347 -0.0592  0.1174
 1315ERGO   ROH16907  10.192  15.777   6.084  0.1917 -0.1371  0.0026
 1315ERGO    R116908   9.987  15.690   6.258  0.1911 -0.1732 -0.0160
 1315ERGO    R216909  10.037  15.590   6.511  0.1738  0.0159  0.0629
 1315ERGO    R316910   9.862  15.784   6.587  0.0127 -0.0578 -0.1141
 1315ERGO    R416911   9.900  15.621   6.827 -0.0853  0.0101 -0.0473
 1315ERGO    R516912   9.710  15.672   6.734 -0.0439 -0.1079 -0.2072
 1315ERGO    C116913   9.655  15.819   7.081 -0.3871 -0.0624 -0.2776
 1315ERGO    C216914   9.675  16.002   7.364 -0.0367  0.0248  0.2741
 1316ERGO   ROH16915   6.442   8.418   6.155 -0.0555  0.1355 -0.1071
 1316ERGO    R116916   6.492   8.496   6.423 -0.0306 -0.1531 -0.0255
 1316ERGO    R216917   6.363   8.708   6.543  0.3314  0.0221  0.0538
 1316ERGO    R316918   6.300   8.523   6.731 -0.1337  0.0091 -0.1003
 1316ERGO    R416919   6.293   8.779   6.874  0.6391 -0.0658  0.1412
 1316ERGO    R516920   6.407   8.602   6.930  0.1714 -0.4613 -0.0553
 1316ERGO    C116921   6.194   8.646   7.243  0.3817 -0.1293  0.0474
 1316ERGO    C216922   5.996   8.835   7.432  0.2018  0.2541  0.0975
 1317ERGO   ROH16923  15.162   0.942   6.322  0.0977  0.0893 -0.0922
 1317ERGO    R116924  15.045   0.841   6.559 -0.0311  0.1542 -0.1283
 1317ERGO    R216925  15.192   0.716   6.756 -0.1720  0.0132 -0.1159
 1317ERGO    R316926  15.077   0.904   6.916 -0.0555  0.0846 -0.1127
 1317ERGO    R416927  15.274   0.771   7.088 -0.0594  0.0232 -0.1441
 1317ERGO    R516928  15.062   0.798   7.130 -0.0422  0.1162 -0.0925
 1317ERGO    C116929  15.213   0.978   7.431  0.1155  0.0961 -0.1575
 1317ERGO    C216930  15.329   1.056   7.689 -0.0466  0.1072  0.0444
 1318ERGO   ROH16931  13.249   0.335   6.547  0.0946 -0.3641 -0.0128
 1318ERGO    R116932  13.176   0.350   6.820  0.1118 -0.2038 -0.0161
 1318ERGO    R216933  13.201   0.136   6.993  0.1151 -0.1050  0.1065
 1318ERGO    R316934  13.343   0.315   7.141  0.1302 -0.0239 -0.0048
 1318ERGO    R416935  13.236   0.124   7.336  0.0625  0.1383  0.1218
 1318ERGO    R516936  13.214   0.341   7.341  0.1054  0.1486 -0.0408
 1318ERGO    C116937  13.389   0.285   7.676  0.0460  0.3561  0.0263
 1318ERGO    C216938  13.516   0.076   7.945 -0.0728 -0.0123 -0.1474
 1319ERGO   ROH16939  16.939   7.129   5.940 -0.1362  0.0940  0.0182
 1319ERGO    R116940  16.754   7.238   6.124 -0.1571  0.0551  0.0202
 1319ERGO    R216941  16.492   7.151   6.142 -0.1434  0.0105  0.0121
 1319ERGO    R316942  16.556   7.117   6.404 -0.1410  0.0093  0.0115
 1319ERGO    R416943  16.266   7.156   6.402 -0.1375  0.0172  0.0173
 1319ERGO    R516944  16.411   7.267   6.520 -0.1336  0.0127  0.0143
 1319ERGO    C116945  16.193   7.127   6.800 -0.1319  0.0200  0.0197
 1319ERGO    C216946  16.153   6.877   7.102 -0.1183  0.0396 -0.1494
 1320ERGO   ROH16947   1.692  18.216   5.946 -0.0841 -0.2429  0.0028
 1320ERGO    R116948   1.860  18.166   6.169  0.0051 -0.1128 -0.0340
 1320ERGO    R216949   1.902  18.353   6.369 -0.0056 -0.0372 -0.0991
 1320ERGO    R316950   1.822  18.149   6.530  0.1226 -0.0234 -0.0175
 1320ERGO    R416951   1.869  18.374   6.712  0.1040  0.0371 -0.0928
 1320ERGO    R516952   1.955  18.175   6.728  0.1799  0.0737 -0.0695
 1320ERGO    C116953   1.775  18.196   7.063  0.2882  0.0935 -0.0126
 1320ERGO    C216954   1.754  18.099   7.301 -0.1868 -0.0120 -0.0464
 1321ERGO   ROH16955  11.218   3.793   6.024  0.1714  0.1862  0.0513
 1321ERGO    R116956  11.089   3.823   6.275  0.0862  0.0056  0.0306
 1321ERGO    R216957  11.089   3.625   6.467  0.2576 -0.0292 -0.0065
 1321ERGO    R316958  11.188   3.823   6.625  0.0145  0.0503  0.0519
 1321ERGO    R416959  11.092   3.619   6.813 -0.0493  0.0268  0.0003
 1321ERGO    R516960  11.039   3.831   6.812 -0.1606  0.0018 -0.0810
 1321ERGO    C116961  11.187   3.802   7.162 -0.4562  0.1340  0.0591
 1321ERGO    C216962  11.018   3.694   7.418  0.2928 -0.1205  0.2744
 1322ERGO   ROH16963  17.311   2.680   6.452 -0.3905 -0.1518 -0.0897
 1322ERGO    R116964  17.318   2.500   6.671 -0.3955 -0.0379  0.0039
 1322ERGO    R216965  17.461   2.553   6.902 -0.2401 -0.0065 -0.1026
 1322ERGO    R316966  17.221   2.507   7.022 -0.2070  0.2148  0.0558
 1322ERGO    R416967  17.420   2.469   7.234 -0.0618 -0.2464 -0.1387
 1322ERGO    R516968  17.265   2.327   7.174 -0.3130  0.0120 -0.1405
 1322ERGO    C116969  17.172   2.376   7.541  0.0729 -0.1782 -0.0110
 1322ERGO    C216970  16.948   2.396   7.894  0.3520 -0.3009 -0.4397
 1323ERGO   ROH16971  10.263   5.024   6.244  0.1260 -0.0548  0.0126
 1323ERGO    R116972  10.166   5.195   6.447  0.0803 -0.1194  0.0443
 1323ERGO    R216973   9.973   5.117   6.629  0.1429 -0.2226  0.0602
 1323ERGO    R316974  10.159   5.197   6.811  0.1304 -0.1591  0.0467
 1323ERGO    R416975   9.902   5.234   6.946  0.1107 -0.0768  0.0005
 1323ERGO    R516976  10.058   5.384   6.920  0.1300 -0.0990 -0.0484
 1323ERGO    C116977  10.034   5.378   7.301  0.0802  0.0676 -0.0470
 1323ERGO    C216978  10.085   5.548   7.451 -0.2487  0.1648  0.1368
 1324ERGO   ROH16979   4.324  15.125   5.715 -0.1558 -0.1022  0.1810
 1324ERGO    R116980   4.342  15.184   5.992 -0.1147 -0.0733  0.1712
 1324ERGO    R216981   4.150  15.102   6.174 -0.0128 -0.1735  0.2252
 1324ERGO    R316982   4.365  14.994   6.301  0.0845 -0.0366  0.1825
 1324ERGO    R416983   4.162  15.027   6.511  0.2073  0.1385  0.2926
 1324ERGO    R516984   4.367  15.102   6.515  0.2114  0.1669  0.0883
 1324ERGO    C116985   4.371  14.881   6.827  0.4267  0.4487  0.2918
 1324ERGO    C216986   4.329  14.726   7.177  0.3440  0.0067  0.1808
 1325ERGO   ROH16987   2.060  10.976   6.104 -0.0982  0.1408  0.1307
 1325ERGO    R116988   1.947  11.075   6.344 -0.0482  0.0814  0.1790
 1325ERGO    R216989   1.742  10.945   6.475 -0.1926  0.1798  0.0536
 1325ERGO    R316990   1.912  10.958   6.687 -0.2150 -0.1240  0.0947
 1325ERGO    R416991   1.652  11.041   6.795 -0.0778  0.4800 -0.0011
 1325ERGO    R516992   1.840  11.152   6.809  0.1670  0.0809  0.0129
 1325ERGO    C116993   1.759  11.110   7.180 -0.0320  0.3697  0.0055
 1325ERGO    C216994   1.715  11.027   7.457 -0.1250 -0.0675 -0.3303
 1326ERGO   ROH16995   2.612  12.040   5.811 -0.2159 -0.2835  0.1057
 1326ERGO    R116996   2.559  12.167   6.058 -0.0821 -0.1483  0.0655
 1326ERGO    R216997   2.380  12.065   6.243  0.0532 -0.0724  0.2367
 1326ERGO    R316998   2.593  12.083   6.411  0.1544  0.0652  0.0970
 1326ERGO    R416999   2.359  12.090   6.587  0.2575 -0.1404  0.2557
 1326ERGO    R517000   2.522  12.235   6.581  0.1471 -0.0120  0.1669
 1326ERGO    C117001   2.547  12.122   6.945  0.4714 -0.0509  0.1357
 1326ERGO    C217002   2.483  11.945   7.311 -0.2570 -0.0066 -0.0297
 1327ERGO   ROH17003  12.662   3.809   6.343 -0.1727 -0.5701 -0.1631
 1327ERGO    R117004  12.581   3.771   6.611  0.0234 -0.3398 -0.0684
 1327ERGO    R217005  12.757   3.696   6.810  0.1779 -0.1101 -0.1224
 1327ERGO    R317006  12.660   3.918   6.935  0.2131 -0.0188 -0.2529
 1327ERGO    R417007  12.713   3.728   7.152  0.1132  0.0611 -0.1444
 1327ERGO    R517008  12.525   3.831   7.113  0.1462  0.0999 -0.2388
 1327ERGO    C117009  12.596   3.954   7.467  0.1086  0.2466 -0.2798
 1327ERGO    C217010  12.759   3.902   7.748  0.1144 -0.0400  0.0333
 1328ERGO   ROH17011  10.423   1.541   6.364 -0.3362 -0.1047 -0.0913
 1328ERGO    R117012  10.333   1.458   6.619 -0.2563 -0.0862 -0.0552
 1328ERGO    R217013  10.208   1.214   6.660 -0.1966 -0.1119  0.0145
 1328ERGO    R317014  10.403   1.184   6.847 -0.1398 -0.0373 -0.0346
 1328ERGO    R417015  10.154   1.132   6.992 -0.0937  0.1591  0.1000
 1328ERGO    R517016  10.309   1.275   7.047 -0.0271  0.1444 -0.0672
 1328ERGO    C117017  10.305   1.056   7.360  0.0195  0.3869  0.1035
 1328ERGO    C217018  10.386   1.109   7.669 -0.3333  0.1425 -0.0821
 1329ERGO   ROH17019   2.347   2.549   5.725 -0.0202  0.0720 -0.1086
 1329ERGO    R117020   2.436   2.683   5.959 -0.0641  0.0559 -0.0824
 1329ERGO    R217021   2.292   2.888   6.077 -0.0541  0.0927 -0.1336
 1329ERGO    R317022   2.314   2.731   6.298 -0.1631  0.0922 -0.1227
 1329ERGO    R417023   2.394   2.998   6.388  0.0417  0.0410 -0.1464
 1329ERGO    R517024   2.508   2.814   6.411 -0.0951 -0.0444 -0.1369
 1329ERGO    C117025   2.474   2.916   6.777 -0.0048  0.0105 -0.1437
 1329ERGO    C217026   2.556   2.931   7.093 -0.0002 -0.0514 -0.1566
 1330ERGO   ROH17027  15.595  11.667   5.842 -0.2458 -0.0665  0.1923
 1330ERGO    R117028  15.581  11.760   6.110 -0.0656  0.0174  0.1737
 1330ERGO    R217029  15.514  11.595   6.321 -0.1272  0.1310  0.2416
 1330ERGO    R317030  15.748  11.686   6.424 -0.0092 -0.0415  0.1305
 1330ERGO    R417031  15.594  11.602   6.657  0.0475  0.0485  0.2031
 1330ERGO    R517032  15.686  11.796   6.627  0.1698 -0.0126  0.1721
 1330ERGO    C117033  15.861  11.690   6.950  0.2601 -0.1615  0.0764
 1330ERGO    C217034  15.859  11.563   7.299  0.3269 -0.1931  0.1356
 1331ERGO   ROH17035  13.849  12.794   6.268 -0.0194  0.0649 -0.1505
 1331ERGO    R117036  13.715  12.677   6.488  0.1991 -0.0702 -0.0882
 1331ERGO    R217037  13.831  12.655   6.738  0.1732  0.4751 -0.0240
 1331ERGO    R317038  13.605  12.783   6.818 -0.2031 -0.0229 -0.2305
 1331ERGO    R417039  13.696  12.637   7.056  0.2723  0.6204  0.0286
 1331ERGO    R517040  13.497  12.628   6.965  0.2617 -0.1073  0.0489
 1331ERGO    C117041  13.405  12.746   7.316 -0.0232  0.2373 -0.1346
 1331ERGO    C217042  13.347  12.943   7.520  0.0733  0.1159  0.0139
 1332ERGO   ROH17043   4.723  10.564   6.166  0.1285 -0.0401  0.1279
 1332ERGO    R117044   4.880  10.741   6.322  0.2866 -0.1298  0.0739
 1332ERGO    R217045   4.825  10.794   6.588  0.2711  0.0775  0.0327
 1332ERGO    R317046   5.084  10.719   6.622  0.1791 -0.1986  0.1425
 1332ERGO    R417047   5.025  10.889   6.853  0.3840  0.2279 -0.1049
 1332ERGO    R517048   5.191  10.913   6.714  0.4202 -0.1873 -0.1451
 1332ERGO    C117049   5.384  10.874   7.040  0.3634  0.0564 -0.0820
 1332ERGO    C217050   5.443  10.951   7.227  0.1861 -0.1833 -0.3010
 1333ERGO   ROH17051   5.051   6.472   8.030 -0.0092  0.0058 -0.1196
 1333ERGO    R117052   5.223   6.436   7.808  0.0843  0.0073 -0.0479
 1333ERGO    R217053   5.346   6.647   7.678  0.1505  0.0068  0.0143
 1333ERGO    R317054   5.572   6.505   7.730  0.1222 -0.0070  0.1041
 1333ERGO    R417055   5.668   6.766   7.637  0.1741 -0.0658 -0.0138
 1333ERGO    R517056   5.724   6.571   7.557  0.1494 -0.1150  0.0850
 1333ERGO    C117057   6.067   6.702   7.661  0.1612 -0.1210  0.0541
 1333ERGO    C217058   6.453   6.673   7.642 -0.3239 -0.0360 -0.3218
 1334ERGO   ROH17059  18.662   0.860   6.013 -0.0725 -0.0535 -0.0911
 1334ERGO    R117060  18.760   0.726   6.243 -0.0360 -0.0141 -0.0838
 1334ERGO    R217061  18.599   0.567   6.402  0.0035 -0.0345 -0.0652
 1334ERGO    R317062  18.791   0.381   6.354  0.0409  0.0015 -0.0562
 1334ERGO    R417063  18.612   0.255   6.549  0.1123  0.0059  0.0119
 1334ERGO    R517064  18.828   0.278   6.567  0.1103  0.0649 -0.0374
 1334ERGO    C117065  18.800  -0.101   6.591  0.2111  0.0630  0.0652
 1334ERGO    C217066  19.060  -0.350   6.647 -0.0352  0.0636  0.0701
 1335ERGO   ROH17067  10.841   7.984   6.190 -0.0982 -0.1661 -0.0558
 1335ERGO    R117068  10.777   7.961   6.465 -0.0799  0.0665 -0.0300
 1335ERGO    R217069  10.931   7.814   6.642 -0.2273 -0.0259  0.0229
 1335ERGO    R317070  10.935   8.048   6.781  0.0846  0.0519 -0.1065
 1335ERGO    R417071  10.999   7.842   6.979 -0.1708  0.0708  0.0040
 1335ERGO    R517072  10.841   7.991   6.994  0.0208  0.2887 -0.0675
 1335ERGO    C117073  11.042   8.077   7.307  0.1549  0.1999 -0.1285
 1335ERGO    C217074  11.088   7.962   7.648  0.1386  0.1133 -0.1392
 1336ERGO   ROH17075  11.935   9.000   5.980  0.0534  0.0324 -0.1488
 1336ERGO    R117076  11.992   9.134   6.223  0.0576 -0.1349 -0.0570
 1336ERGO    R217077  11.811   9.301   6.347  0.1887  0.0615 -0.1293
 1336ERGO    R317078  11.856   9.139   6.560 -0.1821 -0.0820 -0.1521
 1336ERGO    R417079  11.715   9.370   6.672  0.1585  0.1348 -0.1530
 1336ERGO    R517080  11.906   9.288   6.740 -0.0038 -0.2122 -0.0884
 1336ERGO    C117081  11.702   9.257   7.062 -0.2073  0.0427 -0.1882
 1336ERGO    C217082  11.790   9.248   7.414 -0.0776  0.0963 -0.1266
 1337ERGO   ROH17083   9.210  10.601   6.426  0.0721  0.2117  0.0226
 1337ERGO    R117084   9.341  10.393   6.565  0.0896  0.0710 -0.2042
 1337ERGO    R217085   9.615  10.361   6.559  0.1113  0.2866 -0.0068
 1337ERGO    R317086   9.590  10.368   6.830 -0.1387 -0.1976 -0.0043
 1337ERGO    R417087   9.866  10.279   6.782  0.1753  0.6025  0.0448
 1337ERGO    R517088   9.717  10.178   6.905  0.3177 -0.0057 -0.2170
 1337ERGO    C117089   9.989  10.237   7.166 -0.0220  0.3319  0.0771
 1337ERGO    C217090  10.067  10.153   7.507  0.0330 -0.1287 -0.0744
 1338ERGO   ROH17091   9.992  16.184   6.087  0.0187  0.1107 -0.0459
 1338ERGO    R117092   9.953  16.149   6.365  0.1038  0.0792 -0.0362
 1338ERGO    R217093   9.946  16.362   6.542 -0.0171  0.0781 -0.0290
 1338ERGO    R317094   9.707  16.253   6.612  0.0772 -0.1033  0.0129
 1338ERGO    R417095   9.782  16.419   6.841 -0.1283  0.1400 -0.1022
 1338ERGO    R517096   9.728  16.209   6.846  0.0782  0.0933  0.0473
 1338ERGO    C117097   9.463  16.351   7.081 -0.1042  0.0057 -0.1055
 1338ERGO    C217098   9.372  16.342   7.384  0.3706 -0.1179 -0.2429
 1339ERGO   ROH17099   9.041   1.588   6.184 -0.1433  0.0572 -0.0541
 1339ERGO    R117100   8.830   1.563   6.370 -0.1212 -0.0589 -0.0434
 1339ERGO    R217101   8.817   1.357   6.554  0.0437 -0.0222  0.0118
 1339ERGO    R317102   8.796   1.561   6.733 -0.1112  0.0101 -0.0420
 1339ERGO    R417103   8.710   1.322   6.880 -0.0450  0.0028 -0.0146
 1339ERGO    R517104   8.599   1.509   6.858 -0.1274 -0.0547 -0.0937
 1339ERGO    C117105   8.627   1.493   7.238 -0.2419  0.0478 -0.0805
 1339ERGO    C217106   8.539   1.359   7.615  0.0849 -0.3864 -0.1791
 1340ERGO   ROH17107  18.416  14.204   5.842  0.0931  0.1176  0.1410
 1340ERGO    R117108  18.577  14.150   6.069  0.0049 -0.0815  0.1583
 1340ERGO    R217109  18.678  14.350   6.230  0.2749 -0.2004  0.1410
 1340ERGO    R317110  18.556  14.209   6.427  0.0609 -0.0097  0.1500
 1340ERGO    R417111  18.795  14.322   6.554  0.1644 -0.2535  0.1772
 1340ERGO    R517112  18.737  14.112   6.552 -0.0793 -0.1891  0.2189
 1340ERGO    C117113  18.749  14.173   6.928 -0.1009 -0.1054  0.2066
 1340ERGO    C217114  18.856  14.341   7.229  0.0184  0.0892 -0.0868
 1341ERGO   ROH17115   5.620  10.128   6.002  0.0298  0.3483  0.0412
 1341ERGO    R117116   5.687  10.188   6.270  0.0409  0.2440  0.0619
 1341ERGO    R217117   5.521  10.126   6.482  0.0641  0.1330  0.0475
 1341ERGO    R317118   5.743  10.001   6.577  0.0874  0.1219 -0.0205
 1341ERGO    R417119   5.588  10.068   6.816  0.1242  0.0531  0.0222
 1341ERGO    R517120   5.796  10.118   6.778  0.1147  0.0743 -0.0001
 1341ERGO    C117121   5.835   9.916   7.100  0.1809 -0.0040 -0.0564
 1341ERGO    C217122   6.019   9.979   7.408  0.4215  0.0031  0.1403
 1342ERGO   ROH17123  11.525  17.353   6.755  0.0360 -0.1508 -0.0248
 1342ERGO    R117124  11.514  17.476   7.010 -0.0825 -0.0088 -0.0966
 1342ERGO    R217125  11.278  17.509   7.149 -0.1190 -0.1312 -0.1306
 1342ERGO    R317126  11.413  17.379   7.346 -0.0155  0.1009 -0.0436
 1342ERGO    R417127  11.187  17.508   7.482 -0.1305  0.0040 -0.1324
 1342ERGO    R517128  11.398  17.526   7.535 -0.1431  0.2111 -0.1350
 1342ERGO    C117129  11.261  17.384   7.861 -0.0400  0.3008 -0.0518
 1342ERGO    C217130  10.924  17.388   8.048  0.2292  0.3202 -0.2493
 1343ERGO   ROH17131  16.066   4.159   6.330  0.2255  0.2909  0.1017
 1343ERGO    R117132  16.115   4.157   6.609  0.1547  0.0944  0.1176
 1343ERGO    R217133  15.919   4.214   6.796  0.1823  0.3203  0.1028
 1343ERGO    R317134  15.993   3.973   6.898 -0.2110  0.1533 -0.0005
 1343ERGO    R417135  15.828   4.093   7.107  0.1616  0.4067  0.1274
 1343ERGO    R517136  16.029   4.014   7.130  0.0197  0.0193 -0.0210
 1343ERGO    C117137  15.844   3.797   7.383 -0.2196  0.3002  0.0446
 1343ERGO    C217138  15.622   3.544   7.569  0.1156 -0.2088 -0.0822
 1344ERGO   ROH17139   9.952  18.770   6.261  0.1019 -0.1518  0.1170
 1344ERGO    R117140   9.761  18.773   6.471  0.0363 -0.2521  0.0593
 1344ERGO    R217141   9.772  18.597   6.684  0.1281 -0.1754  0.1164
 1344ERGO    R317142   9.765  18.826   6.831 -0.1173 -0.1336  0.0453
 1344ERGO    R417143   9.708  18.612   7.023 -0.1915 -0.1091  0.0566
 1344ERGO    R517144   9.588  18.791   6.988 -0.2480 -0.1746 -0.1063
 1344ERGO    C117145   9.665  18.836   7.359 -0.6081 -0.0310 -0.0450
 1344ERGO    C217146   9.479  18.855   7.657 -0.0065  0.0174  0.1406
 1345ERGO   ROH17147   7.127  15.691   5.330  0.1335  0.0586 -0.0085
 1345ERGO    R117148   7.024  15.583   5.570  0.1185  0.0590 -0.0149
 1345ERGO    R217149   7.182  15.448   5.753  0.0875 -0.0302 -0.0534
 1345ERGO    R317150   7.081  15.630   5.927  0.1750 -0.0188 -0.0134
 1345ERGO    R417151   7.146  15.398   6.093  0.0641 -0.0850 -0.0635
 1345ERGO    R517152   6.954  15.500   6.083  0.1130  0.0089 -0.0412
 1345ERGO    C117153   7.030  15.541   6.454  0.1326 -0.1062 -0.0319
 1345ERGO    C217154   6.835  15.697   6.829  0.2102  0.0950 -0.2059
 1346W        W17155  11.310   0.120   3.264  0.3878 -0.1450  0.1158
 1347W        W17156   5.853   8.970   3.208  0.3001 -0.6024 -0.1437
 1348W        W17157  11.655   0.406  15.255  0.2319  0.0444 -0.0318
 1349W        W17158  10.692  13.654   0.983 -0.2508  0.0927 -0.2414
 1350W        W17159   6.852   5.543  14.871  0.0558  0.0558 -0.2602
 1351W        W17160   0.225  12.106  14.172 -0.1605 -0.1198  0.2840
 1352W        W17161   3.602   5.055  13.162  0.1174  0.1647  0.2726
 1353W        W17162  15.991   1.505   0.409  0.2098 -0.1810  0.2447
 1354W        W17163   6.226   3.983   3.995  0.0791  0.0288 -0.0034
 1355W        W17164   4.767   8.312  11.943  0.3840  0.4677  0.1753
 1356W        W17165   5.674   6.945  14.811 -0.0510  0.1026 -0.2887
 1357W        W17166   5.909  11.615   3.491  0.1219  0.0481 -0.1249
 1358W        W17167   9.920   9.613  13.764 -0.1227  0.0106 -0.1253
 1359W        W17168  15.065   5.396  10.159  0.0807 -0.0329 -0.1515
 1360W        W17169   0.299  18.596   2.144  0.1549  0.2496  0.0362
 1361W        W17170  16.730  10.541   3.605 -0.1330 -0.2253 -0.0779
 1362W        W17171  16.381   6.987   2.117  0.0159  0.1324  0.0591
 1363W        W17172  18.657   3.659  12.277 -0.0452 -0.0103  0.1064
 1364W        W17173  11.301  11.951  11.374 -0.0719 -0.2171  0.0694
 1365W        W17174   2.794  16.841   0.783 -0.4222  0.0106 -0.2327
 1366W        W17175  17.059   1.987  13.062 -0.0372  0.1689  0.0227
 1367W        W17176   6.052  17.891   2.919 -0.1544  0.0211  0.0444
 1368W        W17177  17.595   1.328   0.888 -0.1512  0.2306  0.0214
 1369W        W17178  12.353  11.865   4.440  0.0039  0.2102 -0.3216
 1370W        W17179  15.141  10.991   2.368  0.0150  0.0355 -0.2261
 1371W        W17180   5.530   6.830  13.277  0.1651  0.2281 -0.0329
 1372W        W17181   8.060  12.441  14.340 -0.0660  0.0158 -0.2100
 1373W        W17182  12.799   1.579   3.635 -0.0089 -0.0517  0.1286
 1374W        W17183   0.108   8.307  10.253  0.2343  0.1139 -0.4371
 1375W        W17184   3.124   6.491  12.152 -0.1105  0.0588 -0.1363
 1376W        W17185  15.244   9.536  13.265 -0.1070 -0.0863  0.0098
 1377W        W17186  17.591   2.720  14.726  0.1031  0.1906 -0.0949
 1378W        W17187   2.089  11.043  13.686 -0.1255  0.2241  0.1738
 1379W        W17188   2.251  15.186  12.510  0.1960 -0.0770  0.1150
 1380W        W17189  16.956  15.025  10.749  0.2297  0.1588  0.1064
 1381W        W17190   0.419   2.852  13.188 -0.2497 -0.2916  0.0673
 1382W        W17191   1.422   2.926  10.490 -0.1149 -0.0710 -0.1898
 1383W        W17192   4.067   2.751  11.698 -0.0682 -0.0162  0.0241
 1384W        W17193   4.293   5.375  14.015  0.0366 -0.4821 -0.0228
 1385W        W17194   9.603  13.037   1.329 -0.1346  0.0175 -0.0729
 1386W        W17195  15.499  14.575  13.309 -0.0110  0.0421 -0.3189
 1387W        W17196  16.480   1.570   1.591 -0.0482 -0.1058 -0.0630
 1388W        W17197  12.534   6.893   3.195  0.1176  0.2433  0.2250
 1389W        W17198  13.444   2.677  13.478  0.3110 -0.0790  0.0464
 1390W        W17199   1.438   5.711   3.674 -0.2538 -0.1969 -0.1457
 1391W        W17200   2.081   3.090   0.980 -0.2457  0.1918 -0.1968
 1392W        W17201   7.475  17.995   0.587 -0.2069 -0.2485  0.1098
 1393W        W17202  18.441   5.436   1.601 -0.2052 -0.0224 -0.4821
 1394W        W17203   0.027  14.763   1.868 -0.2053  0.2799  0.1565
 1395W        W17204  16.341   3.506  14.668  0.0793 -0.1461 -0.0835
 1396W        W17205  16.543   5.309  13.239  0.1030  0.1872 -0.1520
 1397W        W17206   9.230  15.849  12.654  0.2400 -0.0030  0.0942
 1398W        W17207  17.796  17.830  14.670  0.0699  0.0418 -0.0667
 1399W        W17208   6.812  13.862   0.551  0.1374  0.4386  0.0714
 1400W        W17209  13.176  15.714   1.908  0.3081  0.0534  0.0059
 1401W        W17210  11.709   7.367   2.330  0.0456  0.0673 -0.2554
 1402W        W17211   8.033  11.621   4.324  0.0752  0.0404 -0.1182
 1403W        W17212   6.260   8.949  14.797  0.1910 -0.1734 -0.3665
 1404W        W17213  15.673   8.715  12.098 -0.1213 -0.2035 -0.0731
 1405W        W17214   7.860   6.372  12.319  0.3533 -0.2772 -0.3015
 1406W        W17215  17.963  15.462  11.254 -0.0475 -0.1330 -0.0402
 1407W        W17216   9.208   2.661  11.877  0.0129 -0.1692 -0.2217
 1408W        W17217  16.244   2.747  12.380 -0.3246  0.1273  0.1648
 1409W        W17218  11.035  14.774  14.802  0.0133  0.1012 -0.0098
 1410W        W17219   2.181   5.802  10.601  0.0899  0.1714  0.2075
 1411W        W17220   1.846  14.418  14.571  0.0229  0.0311  0.2812
 1412W        W17221   4.161  16.102  12.300  0.1407 -0.2063 -0.1813
 1413W        W17222  16.149  15.365   1.807  0.1186 -0.2117  0.0081
 1414W        W17223  17.768   3.006   4.215 -0.1148 -0.1991  0.0524
 1415W        W17224  16.438  14.664   0.070 -0.2442  0.0744  0.0353
 1416W        W17225  14.562   2.571   5.974  0.1621  0.1757 -0.0731
 1417W        W17226   7.060  11.571   4.781  0.3593  0.0365  0.1847
 1418W        W17227  13.500  12.980  12.861  0.2628 -0.0316 -0.1719
 1419W        W17228   0.824   5.137  13.544 -0.1300  0.1493  0.2895
 1420W        W17229   0.365   3.582  11.094 -0.0128  0.2684  0.0557
 1421W        W17230  17.197  12.907   4.211  0.0886 -0.0457 -0.0037
 1422W        W17231   4.251   2.118   4.771  0.0347  0.0705  0.2740
 1423W        W17232   6.972   1.449   1.116 -0.1158  0.0587  0.0931
 1424W        W17233   8.275  11.035   2.097 -0.1566  0.0730 -0.1654
 1425W        W17234   5.536   2.121   1.766  0.1899  0.0830  0.1202
 1426W        W17235   2.370  12.955  14.995 -0.1663  0.2640  0.0058
 1427W        W17236   9.300   2.297  14.264  0.1482 -0.3054 -0.0187
 1428W        W17237  14.109  14.851   1.602 -0.3240 -0.2406 -0.1396
 1429W        W17238   4.331   0.466   1.790 -0.0194  0.1720 -0.2389
 1430W        W17239   9.060  14.094  10.447 -0.0132  0.1026 -0.1276
 1431W        W17240   5.065   1.916  11.870  0.2556 -0.5603  0.0660
 1432W        W17241   0.689   4.462  10.925  0.1124 -0.0343  0.3358
 1433W        W17242  15.279  18.601   0.262 -0.3529 -0.0151  0.0322
 1434W        W17243   1.095   7.001   4.190 -0.0085 -0.3551  0.3025
 1435W        W17244  18.513  13.696   5.007 -0.0554 -0.0964  0.0710
 1436W        W17245  15.779   6.560  15.468 -0.1990  0.0360 -0.0053
 1437W        W17246   0.407  18.077   2.618 -0.1843 -0.1888  0.1754
 1438W        W17247  15.281  15.116   0.515  0.0752  0.3195  0.1477
 1439W        W17248   5.157   1.335  13.591  0.1253  0.0689  0.1971
 1440W        W17249   5.000  17.572  10.687  0.6016 -0.2531 -0.2155
 1441W        W17250   4.752  18.510   4.905 -0.0308 -0.0582  0.0929
 1442W        W17251  13.266  10.484   5.133  0.0732 -0.0826  0.2005
 1443W        W17252   2.877  12.617   1.773 -0.0065 -0.1609 -0.2233
 1444W        W17253   3.687  18.349   4.828 -0.2880 -0.0133 -0.0283
 1445W        W17254  12.161  16.076  11.782 -0.1878  0.1041 -0.1476
 1446W        W17255  16.553   0.005   2.000  0.0146 -0.2748 -0.1070
 1447W        W17256   4.782  10.422   2.268 -0.1119 -0.4105 -0.0601
 1448W        W17257   6.877  11.637  13.099 -0.2723  0.0566  0.2952
 1449W        W17258  14.721  11.389   4.319 -0.0319  0.1720 -0.0695
 1450W        W17259  17.329   8.253  15.057 -0.2076  0.0862 -0.0559
 1451W        W17260   0.984  17.186   1.049 -0.2791 -0.1931  0.2376
 1452W        W17261  15.163   5.991   0.367  0.3801 -0.1945  0.0124
 1453W        W17262  11.156  11.335   0.515  0.4771  0.3073 -0.0283
 1454W        W17263   4.473   0.922  15.275  0.0011 -0.1473  0.1179
 1455W        W17264   3.796   4.729  14.513  0.0798 -0.5201 -0.2295
 1456W        W17265   7.405   9.870   4.787 -0.0853 -0.4728  0.5603
 1457W        W17266  17.618   2.053  13.894 -0.3932  0.2006  0.1441
 1458W        W17267  18.508   1.445   2.866 -0.1971  0.0483 -0.0102
 1459W        W17268  15.753   7.043   0.082  0.2729 -0.0123 -0.0713
 1460W        W17269  16.792  14.785   2.147 -0.0263 -0.0565 -0.0900
 1461W        W17270  14.769   9.311  15.335  0.1345 -0.0813  0.0297
 1462W        W17271   7.843   4.524  14.627 -0.1677  0.0103 -0.0982
 1463W        W17272   9.068   2.143  14.763  0.3012  0.0811  0.0053
 1464W        W17273  10.236   4.789  12.419  0.2188 -0.1387 -0.0040
 1465W        W17274   1.025   4.954   4.618  0.0724 -0.2145  0.2887
 1466W        W17275  17.220  10.328   1.372 -0.0834 -0.0544 -0.0954
 1467W        W17276  12.877   6.684   0.301  0.0935 -0.0214  0.0341
 1468W        W17277   2.131   8.800   1.046  0.0283  0.0940  0.1714
 1469W        W17278  11.223  11.873  14.972  0.2850 -0.1752  0.2552
 1470W        W17279   6.786  10.541  11.279 -0.0034 -0.1378 -0.0832
 1471W        W17280  12.669   6.463  12.547 -0.0806 -0.0768  0.0474
 1472W        W17281  10.617   3.754  11.499  0.1351  0.0032  0.2374
 1473W        W17282  11.427  10.585  12.685  0.0094 -0.2636  0.3405
 1474W        W17283   1.528  14.857  13.538  0.0700 -0.4094  0.0836
 1475W        W17284  14.376  11.235  13.093 -0.0314  0.1726 -0.0870
 1476W        W17285  15.541   0.979  12.059 -0.0288  0.2581  0.0590
 1477W        W17286  11.261   6.924  12.021 -0.1856  0.2467  0.1619
 1478W        W17287   5.813  10.567  14.443 -0.1123 -0.0656  0.2034
 1479W        W17288  15.024   5.390  11.758 -0.3305  0.1910 -0.1195
 1480W        W17289  14.513   9.663   2.608 -0.1599 -0.2553  0.1000
 1481W        W17290  15.529   3.039   4.481 -0.0951  0.0330 -0.0578
 1482W        W17291   8.676  14.644   0.628  0.0934 -0.0566 -0.0069
 1483W        W17292  14.976   4.029  14.653  0.2343 -0.2425  0.1784
 1484W        W17293   8.469  14.337   5.353  0.0767  0.1728 -0.0553
 1485W        W17294  11.429   2.035   3.189  0.0024  0.3684  0.1806
 1486W        W17295   1.502  16.511  10.784 -0.1100 -0.2917 -0.0717
 1487W        W17296   9.384  18.549  15.142  0.0574 -0.0736  0.0083
 1488W        W17297   5.544   6.976   5.249 -0.2260 -0.1110  0.0090
 1489W        W17298  18.139  18.591  12.238 -0.2575 -0.2396 -0.0043
 1490W        W17299  13.177  13.018   5.030 -0.3123  0.3705 -0.1608
 1491W        W17300  10.738  11.208   6.009  0.2749 -0.0503 -0.1073
 1492W        W17301  14.585   9.925  13.912 -0.0728 -0.0744  0.1138
 1493W        W17302   9.127  13.959   1.505  0.4075  0.0620  0.1933
 1494W        W17303  12.248  13.843   4.611  0.0430 -0.1797  0.3498
 1495W        W17304  10.707   2.585  12.454  0.0045  0.0222  0.0633
 1496W        W17305   3.285   7.898   0.467 -0.0442  0.1295  0.2808
 1497W        W17306  17.368  12.693   3.283  0.0238 -0.2778  0.2747
 1498W        W17307  11.336   3.511   1.619  0.1873 -0.0078 -0.0091
 1499W        W17308   7.110   2.844  12.934 -0.1856 -0.1400  0.3461
 1500W        W17309  16.059  12.031   0.298 -0.0011  0.3979 -0.1368
 1501W        W17310   5.368  16.891   0.745  0.0465 -0.0019  0.1103
 1502W        W17311   9.356   2.838  14.057 -0.0993 -0.0783  0.0372
 1503W        W17312   3.985  11.041   4.509  0.0144  0.2909  0.1664
 1504W        W17313  12.157  12.435   3.393 -0.1156 -0.0943 -0.1444
 1505W        W17314  16.352  10.182   3.628  0.1134  0.0119  0.0509
 1506W        W17315   3.308  16.017   1.008 -0.1920 -0.0708 -0.1947
 1507W        W17316  18.742   6.353   4.789 -0.0986 -0.1761 -0.3269
 1508W        W17317  14.348   3.197  14.361  0.0744 -0.1907  0.0721
 1509W        W17318  14.482   0.301  13.305  0.1854 -0.1522  0.0344
 1510W        W17319   4.680  14.626  11.040  0.0613 -0.2211  0.0567
 1511W        W17320   6.002   8.000   4.110 -0.0489 -0.3599  0.1332
 1512W        W17321  11.512  15.425   1.455  0.0120 -0.2653 -0.0514
 1513W        W17322  17.343  13.071  11.951  0.2891  0.2804  0.0921
 1514W        W17323  17.452   6.311   4.923  0.1513  0.0551 -0.0877
 1515W        W17324  12.406   1.495   1.589 -0.2309  0.0394  0.2676
 1516W        W17325   4.603   5.162   0.515  0.1541  0.0942 -0.3355
 1517W        W17326  17.518   0.047  14.421 -0.2978 -0.1844 -0.1539
 1518W        W17327   9.137   1.530   5.207 -0.0950  0.0948  0.2883
 1519W        W17328   5.314   8.381   4.316  0.1532  0.1922 -0.1421
 1520W        W17329   0.358   8.608   2.535  0.1567  0.1275 -0.1610
 1521W        W17330  15.891   8.356   0.357  0.0821  0.0190  0.1128
 1522W        W17331   7.190   7.301   4.601  0.0821  0.0647  0.2307
 1523W        W17332  15.082  11.741  13.218  0.0889 -0.5211 -0.0558
 1524W        W17333  12.675   5.211   3.595 -0.2219  0.0945 -0.0195
 1525W        W17334  17.495   5.654  11.063 -0.0240  0.1651 -0.2481
 1526W        W17335   9.826  14.922   2.173  0.1568  0.0501 -0.0092
 1527W        W17336   7.109   7.171   1.352  0.0796  0.4357 -0.1382
 1528W        W17337  18.355   5.725  11.133  0.2122  0.0603  0.0004
 1529W        W17338   8.151  10.311  12.706 -0.0410 -0.3610 -0.1753
 1530W        W17339   7.219  13.543  13.190 -0.0732 -0.2901 -0.2015
 1531W        W17340   8.480   1.361  13.951 -0.0514 -0.1543 -0.0575
 1532W        W17341   6.031   0.740  11.774  0.1089  0.2967  0.2948
 1533W        W17342   5.524   7.126  11.350 -0.0766  0.0582  0.3274
 1534W        W17343   0.872  11.083  13.221  0.0741  0.1353 -0.3335
 1535W        W17344  13.115   4.336  13.613 -0.2844 -0.0723  0.2865
 1536W        W17345  10.761  13.332   2.550 -0.1326  0.1900 -0.2496
 1537W        W17346  18.055  12.164  10.624 -0.3956  0.0425 -0.0400
 1538W        W17347   4.504   9.649   0.158 -0.1726  0.4420 -0.1828
 1539W        W17348   1.455   1.082   1.815  0.0630  0.0864 -0.1710
 1540W        W17349   5.548  13.039   0.955 -0.0318 -0.0762 -0.0485
 1541W        W17350   2.383   8.694  13.899  0.2537 -0.2055 -0.0055
 1542W        W17351  14.008   0.015   5.117 -0.1598  0.1579 -0.2676
 1543W        W17352  13.120  11.731  10.022 -0.0453  0.1716 -0.1920
 1544W        W17353  10.296   5.404   1.618  0.1646  0.2859  0.2966
 1545W        W17354  12.093  16.862  11.191 -0.2202 -0.1080 -0.1981
 1546W        W17355  15.301  16.863  15.448  0.0781 -0.0331 -0.1889
 1547W        W17356   9.882  13.938   4.105  0.1062 -0.0454  0.0703
 1548W        W17357  13.128  15.823  12.380 -0.0579  0.0725  0.0261
 1549W        W17358  10.123   5.879   4.582  0.0304  0.2884 -0.3220
 1550W        W17359   8.242   7.992   3.679 -0.3983  0.0210  0.0476
 1551W        W17360   8.808   8.058   1.528  0.1332  0.0686 -0.0053
 1552W        W17361  18.009  13.432  13.647 -0.0227  0.0968  0.3143
 1553W        W17362   4.980   2.803   3.045  0.0883 -0.1381  0.0730
 1554W        W17363   9.409  10.457  14.029 -0.4287 -0.0020 -0.2768
 1555W        W17364   1.187  17.252   1.511 -0.1539 -0.3351 -0.1882
 1556W        W17365  11.254   1.847   0.583  0.1681  0.2640  0.0824
 1557W        W17366  12.485  18.451   5.571 -0.0157  0.1534  0.0848
 1558W        W17367   8.011   6.440  12.765 -0.1082  0.0573  0.0435
 1559W        W17368   6.290   8.262  11.120  0.0454 -0.0032 -0.1391
 1560W        W17369  12.218  18.480   1.296  0.1942  0.2834 -0.0761
 1561W        W17370  14.761  17.633  13.448  0.0202  0.1906 -0.2306
 1562W        W17371  18.342  13.597   4.126 -0.0140  0.2251  0.1751
 1563W        W17372   9.255   6.641   2.466 -0.1410 -0.1227 -0.0776
 1564W        W17373  14.173  15.428   0.077  0.1562  0.2778 -0.2694
 1565W        W17374   5.022   6.170   1.592 -0.4645 -0.2076 -0.2675
 1566W        W17375   1.221  16.145   0.375 -0.0610  0.3703 -0.0594
 1567W        W17376   0.035   6.818   1.169  0.0289  0.1614 -0.1853
 1568W        W17377   9.481  18.354  11.998 -0.1843  0.1834 -0.2719
 1569W        W17378  13.704   5.053  14.939  0.4357  0.0141  0.1790
 1570W        W17379  13.917  17.269  11.307  0.0390 -0.0813  0.2432
 1571W        W17380  12.324   0.347   5.465  0.1695 -0.2528  0.1852
 1572W        W17381   0.811   2.462   1.147 -0.0499 -0.1162 -0.2366
 1573W        W17382   0.904  17.038   0.506 -0.0680  0.0635  0.2645
 1574W        W17383   8.599   1.668   2.570 -0.0602 -0.0466 -0.3075
 1575W        W17384   2.512  11.174   4.671 -0.1306  0.3438  0.0739
 1576W        W17385   8.658   4.135   2.093  0.4391  0.1777 -0.2368
 1577W        W17386   8.893  12.266  14.795 -0.0244 -0.2330 -0.0746
 1578W        W17387  14.997  12.162  12.252  0.0532 -0.0538 -0.1644
 1579W        W17388  14.285   9.577  10.933  0.1332  0.0910  0.2233
 1580W        W17389  10.122  18.269   1.337 -0.2754 -0.0466 -0.2525
 1581W        W17390  14.031   0.042  12.539 -0.2395  0.2860 -0.2769
 1582W        W17391  11.749  16.188  15.073  0.0382  0.1506 -0.1323
 1583W        W17392  15.728  10.395   2.314  0.0728  0.1894  0.2695
 1584W        W17393   0.540  13.758   0.585 -0.0560 -0.1187 -0.0341
 1585W        W17394   3.968   8.317   3.800  0.2439 -0.2918 -0.3264
 1586W        W17395   9.807   6.630   0.032 -0.0901 -0.0852  0.1691
 1587W        W17396   0.256  10.682  15.564 -0.1258  0.0835  0.0671
 1588W        W17397   6.308  15.564   3.176 -0.1358 -0.0233  0.1065
 1589W        W17398  11.421   4.958   5.418 -0.1949 -0.1937 -0.0910
 1590W        W17399   1.507  15.069  12.601  0.0243 -0.0059  0.2379
 1591W        W17400   3.216   5.134   2.367 -0.0425 -0.0371  0.4166
 1592W        W17401  13.778  17.018   1.501  0.0762 -0.3554 -0.0335
 1593W        W17402   1.208   5.657   2.821  0.0383  0.0377 -0.1290
 1594W        W17403   9.936   3.838   0.448 -0.1050 -0.1415  0.3002
 1595W        W17404   5.247   8.921  15.170 -0.1484  0.0092  0.2338
 1596W        W17405  12.365   1.738   4.542 -0.2327  0.0846 -0.0785
 1597W        W17406   7.059  14.022  13.070  0.1027  0.2999  0.1026
 1598W        W17407  12.862   4.584   1.555  0.2472 -0.1670  0.2064
 1599W        W17408  14.928   7.880  11.027 -0.1981 -0.0697  0.1550
 1600W        W17409  18.244  18.591   2.503 -0.2893  0.0081  0.0595
 1601W        W17410  10.522  10.823   1.755 -0.0304  0.2080  0.1490
 1602W        W17411   6.490  15.352  10.497  0.0383  0.0325 -0.3011
 1603W        W17412  18.101  18.061  12.421 -0.3080  0.0371  0.0207
 1604W        W17413   3.949   4.803   1.646  0.2108 -0.0909 -0.0000
 1605W        W17414  17.772   8.043  15.203  0.1369  0.1370 -0.1424
 1606W        W17415   7.302   7.809  15.232  0.1341  0.1095 -0.3955
 1607W        W17416   8.053   3.000   3.989  0.1169  0.1514  0.2013
 1608W        W17417  14.052  14.504  12.879  0.0515  0.0031 -0.1114
 1609W        W17418   6.265   6.186  14.966  0.0518 -0.2421  0.0892
 1610W        W17419   5.412   7.771   1.918 -0.2653 -0.2026 -0.0824
 1611W        W17420  13.856   0.693  15.214  0.0690  0.0598  0.4112
 1612W        W17421   7.716  12.884   1.664  0.2002 -0.2072  0.1772
 1613W        W17422  15.476   8.539  10.755  0.3795 -0.0137  0.0422
 1614W        W17423   4.767   2.157   3.942 -0.2302  0.0809 -0.6649
 1615W        W17424   1.835   7.529  10.605  0.0746 -0.0769  0.1580
 1616W        W17425   2.516  14.545  14.668 -0.2196  0.0033  0.4075
 1617W        W17426   5.186   3.695   0.103  0.0996  0.1445  0.0742
 1618W        W17427   6.749  17.763  11.804  0.0697  0.0270  0.2145
 1619W        W17428   6.396   7.237  10.381 -0.0065 -0.2200 -0.1970
 1620W        W17429  12.131  12.239  11.148  0.0754 -0.4987 -0.0954
 1621W        W17430  13.684  16.921  11.749 -0.0157 -0.1629 -0.1839
 1622W        W17431  17.829   5.673  11.532 -0.0488 -0.0363 -0.0100
 1623W        W17432  13.268   1.034   4.702  0.2144 -0.2064 -0.1829
 1624W        W17433  15.405   5.100   9.913  0.3411 -0.1250 -0.1688
 1625W        W17434   7.487   6.715   4.995 -0.3251 -0.0495  0.6326
 1626W        W17435   6.205  11.367  12.544 -0.0724 -0.1763  0.3227
 1627W        W17436  11.930  16.395  15.475  0.0453 -0.1543 -0.0510
 1628W        W17437   3.793   2.687  10.453  0.0520 -0.3788  0.0696
 1629W        W17438   4.183  15.182   0.311 -0.0820 -0.1220 -0.5614
 1630W        W17439   9.023   6.859  11.257  0.0981 -0.0107 -0.0033
 1631W        W17440   6.211   9.754  11.407  0.3230 -0.3589  0.0606
 1632W        W17441  16.894   8.494  11.872  0.3009 -0.0382  0.2490
 1633W        W17442   9.978   5.320  15.126  0.0244  0.1672 -0.0299
 1634W        W17443   3.882   2.794   5.220 -0.1338 -0.2405 -0.3268
 1635W        W17444  17.405   0.252   3.414  0.1796 -0.2281 -0.0429
 1636W        W17445  16.610  15.869   5.439 -0.1083 -0.1922  0.1701
 1637W        W17446   5.674   1.319   4.492  0.3030  0.3555  0.1447
 1638W        W17447  17.034   4.631   4.259 -0.3233 -0.0517  0.3347
 1639W        W17448  16.107   3.563   1.356  0.0306  0.2060  0.2671
 1640W        W17449  13.519   4.629  10.076  0.1448 -0.1049 -0.2670
 1641W        W17450  16.631   9.329   3.543 -0.1400 -0.1009  0.1186
 1642W        W17451   4.802  17.275  14.265  0.0887 -0.0210  0.3385
 1643W        W17452  15.445  16.053  13.550  0.0114  0.0725 -0.1709
 1644W        W17453   1.366   8.020   1.925  0.1777  0.1996  0.3401
 1645W        W17454   3.197   5.295  14.138  0.0268  0.1409  0.1100
 1646W        W17455  13.264   1.442   0.199  0.2869 -0.1556  0.0204
 1647W        W17456  17.812  12.145   2.121  0.0201 -0.1088  0.2248
 1648W        W17457  12.639   5.114   5.188  0.0436 -0.0740  0.0533
 1649W        W17458  10.052   0.880  10.627 -0.0105 -0.1450 -0.1419
 1650W        W17459   7.497   9.422  14.673  0.1729 -0.1810 -0.0176
 1651W        W17460  15.758   6.155  11.865 -0.2687 -0.1553 -0.2984
 1652W        W17461   6.679  13.700   2.865  0.3776 -0.3224  0.1129
 1653W        W17462   2.210   7.733  14.674  0.2864 -0.1222  0.3778
 1654W        W17463   6.441   0.786   2.932  0.0954  0.1949 -0.1334
 1655W        W17464  11.939   9.189   2.600 -0.1487  0.0097 -0.0778
 1656W        W17465  17.559   3.642  13.279  0.0748  0.2634  0.0113
 1657W        W17466   2.937   4.334  15.208 -0.2203 -0.1676 -0.1757
 1658W        W17467   5.864  17.539  13.967  0.1804  0.1873  0.3749
 1659W        W17468  10.257  10.403   5.315  0.3789  0.1701 -0.0401
 1660W        W17469  15.918   9.633   0.542 -0.2573  0.3208 -0.0202
 1661W        W17470   9.615  12.226  14.284 -0.2733 -0.0256  0.0477
 1662W        W17471  18.330   5.597  13.701  0.0005  0.2179 -0.1978
 1663W        W17472  12.584  17.787  13.669  0.2643 -0.0148 -0.0953
 1664W        W17473   6.021   4.657  10.112  0.0507 -0.1632  0.0403
 1665W        W17474  14.049   1.548  13.192 -0.2244  0.2832 -0.0489
 1666W        W17475  16.396   4.103   4.348 -0.0009  0.0969 -0.0490
 1667W        W17476  15.673   5.470  13.148  0.2542 -0.0102  0.1468
 1668W        W17477  10.865  10.056   2.602  0.1320 -0.0435  0.0881
 1669W        W17478  17.596   1.339  14.889  0.0059 -0.2035  0.0801
 1670W        W17479   0.477  11.318  11.346  0.1248 -0.2185 -0.2009
 1671W        W17480  11.788  18.655   4.344  0.0984 -0.4386 -0.2118
 1672W        W17481  12.267   6.045  10.969 -0.2330  0.0462 -0.0457
 1673W        W17482  12.976  14.913   1.548  0.1892 -0.0632  0.0952
 1674W        W17483  11.960   8.554   0.188  0.2674  0.2919  0.1020
 1675W        W17484  11.693   7.946   1.121  0.2247 -0.1933  0.1519
 1676W        W17485  16.604   4.962   4.374  0.1520 -0.3337  0.2662
 1677W        W17486   1.553  15.904  12.812 -0.0048 -0.0423 -0.2880
 1678W        W17487   8.891  10.351   4.420  0.1492 -0.2301  0.3381
 1679W        W17488   1.948   0.079  11.858 -0.1091  0.1159  0.1454
 1680W        W17489   1.047   1.762  15.000  0.0891 -0.0757  0.1600
 1681W        W17490  14.452   2.091   3.266 -0.0609 -0.1130  0.3343
 1682W        W17491   0.930  15.615  13.497 -0.1193 -0.0518 -0.1303
 1683W        W17492  14.318   4.991   0.287 -0.1908  0.0684 -0.1210
 1684W        W17493  16.315   4.437   0.461 -0.1127 -0.2154 -0.2174
 1685W        W17494   3.206  17.776  13.320 -0.2293 -0.3564 -0.2054
 1686W        W17495  14.756   1.885  11.000 -0.0171 -0.2161 -0.1262
 1687W        W17496   6.554   1.313   0.863 -0.0833 -0.1630 -0.3606
 1688W        W17497   0.746  17.610  13.136  0.0906 -0.1182  0.3016
 1689W        W17498  17.017  16.056   0.128 -0.1486 -0.0101  0.2204
 1690W        W17499   4.389  18.262  15.113 -0.1033  0.1728 -0.1687
 1691W        W17500   1.251  15.282  14.221 -0.2171  0.1212  0.1817
 1692W        W17501   3.593   2.118   9.626  0.2226  0.1021 -0.0976
 1693W        W17502   4.876  12.782   2.972  0.2184 -0.1823 -0.1405
 1694W        W17503   7.381   2.138   4.889 -0.0761  0.0565  0.1632
 1695W        W17504   8.769  14.766   4.446  0.0378 -0.3927 -0.1261
 1696W        W17505  13.024   1.616  12.574  0.2186  0.2943 -0.1614
 1697W        W17506   3.807   2.555   2.521 -0.0416 -0.0410 -0.1772
 1698W        W17507   7.215  13.454  10.329 -0.1836  0.3863  0.1673
 1699W        W17508   9.467   7.830  11.668 -0.0561  0.0287  0.1296
 1700W        W17509   0.247  14.975   3.582  0.3359 -0.1183 -0.0702
 1701W        W17510   2.745   4.739   3.039 -0.1131 -0.2045 -0.0366
 1702W        W17511  15.083   4.140  13.026 -0.0719 -0.2469  0.0121
 1703W        W17512   9.838  18.093   3.744 -0.0360  0.1305  0.0324
 1704W        W17513   2.928   5.402   2.684 -0.0983 -0.0284 -0.1024
 1705W        W17514  18.433   0.642  13.196  0.1064  0.0100  0.1306
 1706W        W17515   1.333  18.617  13.540 -0.0919  0.0310 -0.1070
 1707W        W17516   3.717   7.473  10.780 -0.0530  0.0096 -0.1771
 1708W        W17517   3.623   3.276   1.211  0.1082 -0.1715 -0.1544
 1709W        W17518  18.605   6.536  14.254 -0.0246 -0.2130  0.2095
 1710W        W17519  10.592  16.644   1.838  0.0843 -0.2681 -0.1056
 1711W        W17520   4.956   8.945   5.664 -0.3779  0.1750  0.3313
 1712W        W17521   0.361  14.925   5.869 -0.2667  0.1774  0.0575
 1713W        W17522   6.571   0.965   3.456 -0.2244  0.2256  0.1465
 1714W        W17523   7.825  14.271   2.213  0.1906 -0.1386  0.0366
 1715W        W17524  14.431  17.750   1.147  0.1391 -0.0868  0.0374
 1716W        W17525   6.306  14.368  10.582  0.2120 -0.1155 -0.1023
 1717W        W17526  15.301  17.807  15.342 -0.3246  0.2401 -0.0176
 1718W        W17527  11.617   6.046   3.817 -0.0040  0.4479 -0.0592
 1719W        W17528  13.369   7.384  14.388  0.1238  0.0006 -0.0994
 1720W        W17529  18.457   0.234  12.532  0.0056  0.3071 -0.1367
 1721W        W17530  15.455  17.199  11.048  0.3830 -0.1113 -0.1875
 1722W        W17531  17.019   8.851  12.800 -0.1032 -0.0973 -0.1055
 1723W        W17532   8.799  16.412  14.154 -0.0595  0.1503 -0.1157
 1724W        W17533  11.384   1.934   4.589 -0.0691 -0.3949 -0.1900
 1725W        W17534  12.741  14.295   4.421  0.0977  0.2334 -0.0219
 1726W        W17535   4.441  16.734  13.552  0.2509  0.0255 -0.0469
 1727W        W17536  11.479   1.802   0.987  0.1559 -0.0572 -0.1188
 1728W        W17537  12.979   6.227  13.436 -0.3340 -0.1946 -0.4242
 1729W        W17538   1.152   0.087  11.103  0.0458 -0.2796  0.3263
 1730W        W17539   4.259   3.578  14.399 -0.0419  0.0449  0.0954
 1731W        W17540  10.660   5.008   2.340 -0.3731  0.2230 -0.2363
 1732W        W17541  12.670  17.987   3.103 -0.2530  0.1075  0.0384
 1733W        W17542  18.358   2.070  11.367 -0.2503 -0.3346 -0.0267
 1734W        W17543   4.553   3.254  10.463  0.1770  0.1250 -0.4034
 1735W        W17544  14.616  17.058  13.364 -0.4137 -0.5765 -0.3674
 1736W        W17545   2.065  12.461   3.251  0.2487 -0.0460 -0.3786
 1737W        W17546  10.163  10.413   3.452 -0.2388  0.0282 -0.2865
 1738W        W17547  12.725   9.898   0.458 -0.1595 -0.1278  0.0387
 1739W        W17548   7.611   7.179  11.615 -0.2039 -0.1416  0.1146
 1740W        W17549   5.536   4.303   4.739 -0.0267  0.1555  0.1295
 1741W        W17550  10.555   4.145  13.349  0.0655 -0.0460  0.0294
 1742W        W17551   2.900  16.875   3.978 -0.3617 -0.0536  0.0352
 1743W        W17552  16.540   7.656  15.333  0.0897 -0.2323 -0.1182
 1744W        W17553   7.587  12.836   3.819  0.2082 -0.0755  0.3746
 1745W        W17554  11.566   8.736   2.502  0.2454  0.0758 -0.1104
 1746W        W17555  12.704  14.783  15.264  0.0747 -0.0551  0.0871
 1747W        W17556  13.066  16.538   0.560 -0.0603  0.2068 -0.2653
 1748W        W17557  13.743   9.863  11.968  0.2580 -0.1577  0.1764
 1749W        W17558  15.596  16.119  14.057  0.1314  0.1339  0.2772
 1750W        W17559  12.963   9.255  13.086  0.0337  0.3947  0.5130
 1751W        W17560   7.901   8.965  12.852 -0.4221  0.1387  0.2142
 1752W        W17561   2.638   5.182  12.752  0.3002  0.1096 -0.1361
 1753W        W17562   5.479   4.992  12.336  0.0023  0.1863 -0.3020
 1754W        W17563  17.619  14.926   4.859 -0.1575  0.0224  0.1536
 1755W        W17564  12.210   8.036  10.779 -0.2408  0.2029  0.2250
 1756W        W17565  11.886   7.493   0.676 -0.1891  0.0376 -0.0392
 1757W        W17566   6.370   6.235   4.013  0.2632 -0.0526 -0.1397
 1758W        W17567  12.080  18.705   5.588 -0.0930 -0.0701  0.0199
 1759W        W17568  14.301  11.047   2.644 -0.0231  0.1319 -0.1956
 1760W        W17569  16.408  15.958  14.766 -0.1186  0.1198  0.4528
 1761W        W17570   6.911   4.268   3.948  0.0491  0.1443  0.0207
 1762W        W17571   5.075  14.331   4.973 -0.0668  0.2487  0.5110
 1763W        W17572   9.013   0.713   9.949 -0.1705  0.2020 -0.0126
 1764W        W17573   1.843   0.454  10.347  0.1270  0.2984  0.1672
 1765W        W17574   6.246  18.515  15.307  0.5633 -0.3027  0.1025
 1766W        W17575  13.550  13.640  13.479  0.1411  0.0347 -0.1442
 1767W        W17576   9.558  13.385   1.865 -0.1438 -0.0667  0.0451
 1768W        W17577  13.237  15.327  11.589  0.1320 -0.0856 -0.0586
 1769W        W17578  18.406   8.365   5.223 -0.2059  0.0615  0.0410
 1770W        W17579  13.139  10.035  12.646  0.1682  0.1383  0.2309
 1771W        W17580  16.340  14.048   3.017 -0.0700  0.0649  0.1063
 1772W        W17581  11.593  17.008  12.240 -0.1988  0.4827  0.0064
 1773W        W17582  16.561  12.953  13.506  0.0282 -0.1848 -0.0052
 1774W        W17583  11.114   4.360   1.275 -0.4164  0.1587  0.2529
 1775W        W17584   8.676   7.443  12.013 -0.1644 -0.3113 -0.1810
 1776W        W17585  15.647   4.206   0.499 -0.1960  0.0992 -0.1647
 1777W        W17586  14.923   5.532   1.478 -0.0408 -0.1621 -0.1127
 1778W        W17587  13.292  15.666   4.788  0.4136 -0.2794 -0.1649
 1779W        W17588  18.286  13.761   0.376 -0.1100  0.2285 -0.1373
 1780W        W17589  17.005  10.622   0.097  0.0127  0.0465 -0.1561
 1781W        W17590   8.358   2.301   0.715 -0.0146 -0.1392 -0.1414
 1782W        W17591   1.041  18.212  13.888 -0.1082 -0.0890 -0.3948
 1783W        W17592   3.861  16.175  11.908 -0.1509  0.0922 -0.0418
 1784W        W17593   2.017   5.357   0.083 -0.5025  0.0049  0.1703
 1785W        W17594  12.093   5.527  15.319 -0.4498  0.1710  0.0808
 1786W        W17595   2.298  15.021  14.000  0.1204 -0.0417 -0.0612
 1787W        W17596  18.306   4.332   0.373  0.0133 -0.3199  0.0332
 1788W        W17597  10.773  10.384  13.240 -0.1550 -0.2456  0.3774
 1789W        W17598   2.758   2.197  14.904 -0.1286 -0.1867  0.1587
 1790W        W17599   7.347   6.160   0.317 -0.0400 -0.2289  0.0754
 1791W        W17600   2.169  17.958   0.272  0.0720  0.0635  0.1341
 1792W        W17601  11.891   8.619   0.754  0.0337  0.1132 -0.0604
 1793W        W17602   9.685  10.466   4.676  0.0665  0.2077 -0.0443
 1794W        W17603  11.097   3.208  14.067  0.0790  0.0206  0.1413
 1795W        W17604  17.286   1.306  13.037 -0.1680  0.0688  0.0786
 1796W        W17605   7.578  17.782  14.676 -0.0783  0.0292  0.0934
 1797W        W17606   1.676  17.265  15.499 -0.0197  0.0369  0.3026
 1798W        W17607  18.108  18.311   0.674  0.3139  0.1823  0.0997
 1799W        W17608   7.376  17.883  15.093 -0.0252  0.3115 -0.1658
 1800W        W17609  14.653  17.226  11.753  0.0324  0.1720 -0.2130
 1801W        W17610   3.329   6.537  15.374 -0.2544  0.1207  0.3738
 1802W        W17611   1.255   5.460   0.425  0.1241 -0.0083 -0.2683
 1803W        W17612  16.778   9.979   2.875 -0.2982 -0.2284 -0.1568
 1804W        W17613   1.770   2.821  11.561 -0.4697 -0.2885  0.0144
 1805W        W17614  18.697   3.685   4.680  0.1543  0.2076 -0.2292
 1806W        W17615   4.704  10.938   4.568 -0.1400  0.0849 -0.1235
 1807W        W17616   8.428  16.101   4.399 -0.1643  0.3141  0.0276
 1808W        W17617   7.879  15.049   0.687 -0.0863  0.1640  0.1890
 1809W        W17618   6.194  15.317  12.481 -0.0387 -0.0130 -0.2150
 1810W        W17619   3.257   1.620   4.554 -0.1254 -0.0577 -0.0229
 1811W        W17620  17.412   6.680  12.003  0.2877 -0.0592  0.2500
 1812W        W17621   3.516  17.521   2.936 -0.0014  0.0501 -0.2531
 1813W        W17622   0.334   6.573   1.880 -0.0550  0.1715  0.1834
 1814W        W17623  13.743   6.778   4.867  0.2632  0.0501  0.1697
 1815W        W17624   6.837   9.867   4.561 -0.3226 -0.2636 -0.2046
 1816W        W17625  10.057  10.285  14.419  0.1524 -0.0828  0.2355
 1817W        W17626   7.670   5.843   3.863  0.0107 -0.0574 -0.2307
 1818W        W17627   4.308   4.517  12.103  0.1666  0.0749 -0.0141
 1819W        W17628   5.477  10.593   0.145 -0.1902 -0.2196  0.1014
 1820W        W17629   1.012  18.543  14.694 -0.0108  0.0837 -0.2396
 1821W        W17630   4.201   9.850   3.189 -0.1565 -0.2440  0.2074
 1822W        W17631  12.133   7.141  14.176  0.0327  0.1134 -0.1587
 1823W        W17632   7.496   2.397   1.118  0.2940 -0.0588 -0.0565
 1824W        W17633   6.078   5.193  13.062 -0.2868 -0.3158  0.3573
 1825W        W17634  11.958   5.384   2.781 -0.0238  0.2840 -0.2889
 1826W        W17635   2.930   1.818   4.161  0.1431  0.0344  0.2800
 1827W        W17636   3.614   8.707   0.686  0.3670  0.2991 -0.0860
 1828W        W17637  17.798  13.169  11.604  0.4508  0.1143  0.0343
 1829W        W17638   9.206   3.083  14.935  0.0445 -0.1644 -0.1856
 1830W        W17639   9.512  13.982   4.657 -0.0610  0.0910  0.0519
 1831W        W17640   4.285   6.590   3.199  0.0591 -0.2181 -0.2028
 1832W        W17641   1.322  18.609  12.522 -0.2004  0.0070  0.2897
 1833W        W17642   4.265   0.425  11.943 -0.0660  0.2587 -0.2166
 1834W        W17643   3.236   3.829  11.103 -0.0079  0.1537  0.4484
 1835W        W17644  12.971  13.592   3.837 -0.3033  0.2290  0.2204
 1836W        W17645   4.477   4.299  11.530  0.0101 -0.3722  0.2050
 1837W        W17646  11.070   5.903   5.592  0.0129 -0.0729  0.2864
 1838W        W17647  13.371  18.413  14.298 -0.0767 -0.0683 -0.4736
 1839W        W17648  17.853   3.479  13.768  0.0312 -0.1319 -0.1177
 1840W        W17649  13.383  14.935  13.717  0.0620  0.0414  0.2395
 1841W        W17650   8.029   8.933  14.900 -0.0220  0.1105 -0.0853
 1842W        W17651   0.327  13.648  12.647  0.0294 -0.1564 -0.0057
 1843W        W17652   3.865  17.418  13.003  0.0745 -0.2512  0.0689
 1844W        W17653  14.308   0.155   2.873 -0.0430 -0.0480  0.2692
 1845W        W17654  14.154   2.428   5.356  0.1641 -0.0699 -0.0276
 1846W        W17655  16.419   3.884  12.647 -0.1980 -0.0766  0.0170
 1847W        W17656  13.075  10.629  11.331  0.0247  0.0012  0.0045
 1848W        W17657  10.901   3.879   0.128 -0.0789  0.1243 -0.0245
 1849W        W17658   1.528   4.401  14.832 -0.1162  0.1362  0.0864
 1850W        W17659   5.516  11.164   0.412  0.1908  0.2472  0.1398
 1851W        W17660   3.703   5.346  11.685 -0.0894  0.0241  0.0973
 1852W        W17661   0.950   7.576   3.522 -0.0831  0.4057 -0.1070
 1853W        W17662  13.807   9.881   4.079  0.1242 -0.0545  0.1517
 1854W        W17663   7.619  15.789   9.879 -0.1993  0.1696 -0.1032
 1855W        W17664  11.030   8.806   1.835 -0.1373  0.3385 -0.1210
 1856W        W17665   1.759   2.592   3.847  0.0412  0.0422 -0.0737
 1857W        W17666  11.418   1.569   2.823 -0.1537  0.1646  0.1664
 1858W        W17667   1.981  15.877  12.078  0.0989  0.4007 -0.1691
 1859W        W17668  10.154  16.122   4.411 -0.1150  0.0849 -0.0601
 1860W        W17669  10.670  13.964   2.673  0.0901  0.1801 -0.0635
 1861W        W17670   6.332   1.445  15.364  0.0465 -0.0110  0.0897
 1862W        W17671  17.247   4.042   4.789 -0.0097  0.1971  0.2174
 1863W        W17672  17.467  14.686  14.419 -0.0419  0.0171  0.1411
 1864W        W17673   8.322  11.410   5.692  0.2360  0.0654  0.1769
 1865W        W17674  14.305  17.545  11.510  0.2177 -0.1534  0.0242
 1866W        W17675   1.036   3.541   3.866 -0.1761  0.2179 -0.0160
 1867W        W17676  12.329  11.884  14.445  0.0750 -0.0790 -0.1551
 1868W        W17677   7.745   0.966   2.649 -0.1733  0.2746  0.2072
 1869W        W17678  13.813   4.548   1.696  0.1401 -0.1454  0.1857
 1870W        W17679  15.776   0.556   5.365 -0.1038  0.0536  0.1198
 1871W        W17680  16.509  13.859  14.036  0.0458  0.1527 -0.2068
 1872W        W17681   7.602   1.398   2.198  0.2147 -0.2260  0.2293
 1873W        W17682  14.086  10.474  15.273 -0.0210  0.6001 -0.2717
 1874W        W17683   0.791   8.506   2.226  0.1156  0.0871  0.0171
 1875W        W17684   9.750   4.177   4.017  0.0214  0.1041 -0.0209
 1876W        W17685   2.633   9.597   3.715 -0.1296  0.0241 -0.0852
 1877W        W17686   8.819   3.866  11.704 -0.1018 -0.1046  0.0587
 1878W        W17687   0.698   9.333  14.558  0.1757 -0.1330 -0.0158
 1879W        W17688   4.985  11.653   2.404  0.0868 -0.2434 -0.3715
 1880W        W17689   9.101   3.993  12.447 -0.1084  0.1737 -0.0082
 1881W        W17690   4.812   1.160   3.059 -0.2727 -0.2382 -0.0149
 1882W        W17691   2.586   1.335   4.082  0.1888  0.2423 -0.2465
 1883W        W17692  10.930   2.471   3.902 -0.0225  0.3701 -0.2944
 1884W        W17693   8.619   2.004   3.023 -0.0002 -0.1676 -0.1387
 1885W        W17694  11.591  11.411  12.928  0.0373 -0.2496 -0.3462
 1886W        W17695  14.027  13.738  13.698 -0.3021  0.0646 -0.0042
 1887W        W17696   3.120  13.250   1.105 -0.1777  0.0058  0.0271
 1888W        W17697   4.153  14.220   1.071  0.0562  0.0014 -0.1241
 1889W        W17698   1.746   3.530   4.907 -0.3718 -0.0232  0.2026
 1890W        W17699   3.434   7.504  15.054 -0.2018  0.0494  0.1501
 1891W        W17700  17.231  18.514   3.400  0.0354  0.1801  0.1754
 1892W        W17701   1.432   7.350   3.410 -0.0792 -0.0691  0.3743
 1893W        W17702  14.590  14.651   3.714  0.2189 -0.0545  0.0316
 1894W        W17703   4.655   8.568   1.389 -0.1106  0.1891 -0.0733
 1895W        W17704   5.519   8.751  10.409  0.1217  0.0375  0.1291
 1896W        W17705  18.495  16.100  11.934  0.2341 -0.1696 -0.0441
 1897W        W17706  11.393  15.463  14.449 -0.0634 -0.0986  0.0203
 1898W        W17707   5.013  13.505  10.422  0.0392  0.1797 -0.2026
 1899W        W17708   3.723   0.843  12.002  0.0434  0.0827 -0.1797
 1900W        W17709   0.202   6.886  10.047 -0.0511  0.2716  0.3130
 1901W        W17710   2.751   5.736   1.309  0.0830  0.2363  0.0239
 1902W        W17711   9.998   4.239   1.207  0.0710 -0.3428  0.0494
 1903W        W17712  16.180  13.722   2.071 -0.1459 -0.1725  0.2769
 1904W        W17713   6.451   9.904  10.578  0.3862 -0.0512 -0.1151
 1905W        W17714   0.770   9.342   4.304  0.0539 -0.1214  0.2553
 1906W        W17715  16.442  10.691   1.764 -0.1994 -0.2442 -0.2830
 1907W        W17716  13.414   3.488   5.101 -0.1045 -0.2857 -0.1343
 1908W        W17717   2.988  17.019  11.567 -0.1771 -0.0982 -0.1753
 1909W        W17718  14.946  17.896   5.178  0.0672 -0.3767 -0.0181
 1910W        W17719  18.436  10.478   3.041  0.1552 -0.2638  0.0757
 1911W        W17720   7.374   4.339   3.755  0.0873  0.1652  0.2404
 1912W        W17721   9.613   9.941   4.753  0.1660  0.2940 -0.4163
 1913W        W17722  14.527  18.409  13.755  0.1355  0.1800 -0.0526
 1914W        W17723   4.379   1.826  10.236 -0.0858  0.0057  0.1290
 1915W        W17724   9.122  12.540   1.956  0.0213 -0.0440  0.0500
 1916W        W17725  16.617   1.351   2.927 -0.2670 -0.0025 -0.1765
 1917W        W17726  15.052  16.044   1.404 -0.3592 -0.0582 -0.1395
 1918W        W17727   2.908   2.044   2.541 -0.0176 -0.0658 -0.0895
 1919W        W17728   9.774   8.591   1.713 -0.2326  0.1375  0.2997
 1920W        W17729   1.415  14.172   1.659  0.0445 -0.0561 -0.2374
 1921W        W17730   4.717  14.602   2.344 -0.0661 -0.0378  0.0507
 1922W        W17731  12.373   7.144  10.803  0.2406  0.0843 -0.2981
 1923W        W17732   5.528   0.386   1.279 -0.0266  0.0600 -0.3527
 1924W        W17733   1.818   6.018   3.650 -0.5896  0.1196  0.2435
 1925W        W17734   8.916   7.285   4.245  0.1168 -0.0716  0.1905
 1926W        W17735   0.199  11.026   0.954 -0.3527 -0.1960  0.0866
 1927W        W17736   6.876   2.171   4.503  0.0421 -0.0512  0.3164
 1928W        W17737  10.936   1.239   4.692  0.3342  0.6032 -0.0378
 1929W        W17738   5.105  15.843   1.572 -0.2932  0.1784  0.3075
 1930W        W17739  15.310  15.653   2.820  0.1610 -0.0782  0.1271
 1931W        W17740  13.651   8.996  13.525 -0.2370  0.0909  0.2846
 1932W        W17741   6.984  13.690   0.095 -0.3008 -0.0572  0.1426
 1933W        W17742  13.770   7.031   3.512 -0.0377 -0.1087  0.3086
 1934W        W17743   5.999   8.441   3.564  0.3402 -0.0609  0.2431
 1935W        W17744   8.038   9.001  12.344  0.1553  0.1561 -0.0507
 1936W        W17745  12.892  15.148  11.165 -0.1218  0.1459  0.1111
 1937W        W17746   4.798  17.167  12.456  0.1102  0.0952  0.2625
 1938W        W17747  12.079  11.319  14.746 -0.0010 -0.2807  0.0727
 1939W        W17748   0.582   4.229  12.129 -0.2926  0.0679  0.2913
 1940W        W17749  10.851   2.851  11.688 -0.0164  0.2531 -0.0265
 1941W        W17750   3.365   8.620  11.323  0.1122  0.0546 -0.0774
 1942W        W17751   4.220  11.792  12.310  0.3466 -0.0735  0.0909
 1943W        W17752   9.457   7.266   0.270  0.0603  0.0463  0.0333
 1944W        W17753   9.845   1.317  13.823  0.0406  0.1645  0.0169
 1945W        W17754   8.786  13.086   2.280 -0.1383  0.0817 -0.2411
 1946W        W17755  15.017   0.614  13.835  0.2744 -0.1880  0.0251
 1947W        W17756   3.862  18.165  14.301  0.1770  0.0797 -0.3053
 1948W        W17757   2.454   4.804  11.888 -0.0273  0.0403  0.1490
 1949W        W17758   5.353  10.505   4.715 -0.0468 -0.0123  0.3430
 1950W        W17759  17.849   5.222  11.273  0.2710  0.2701 -0.0555
 1951W        W17760   1.869   3.250  11.305  0.1597 -0.0383  0.1036
 1952W        W17761  16.760  10.601  13.307  0.4008 -0.0142  0.1022
 1953W        W17762  18.628  10.881  14.818 -0.0260 -0.0306 -0.2194
 1954W        W17763  10.103   8.664   4.091  0.2587 -0.2529  0.0312
 1955W        W17764   6.132   3.055  15.108 -0.0216 -0.1016  0.1327
 1956W        W17765  16.136   1.103   5.057 -0.0533  0.0280  0.0024
 1957W        W17766  16.611  10.514  15.166  0.0563  0.1401  0.0762
 1958W        W17767  15.161  13.790  13.683 -0.2707  0.0452 -0.1417
 1959W        W17768   6.133  18.044   1.519  0.0499  0.4106 -0.2654
 1960W        W17769  16.455   9.803   3.348 -0.0083  0.2788 -0.2145
 1961W        W17770  10.581   8.226  11.998  0.1903 -0.2311 -0.1368
 1962W        W17771  14.869   7.484  13.282  0.2812 -0.0075  0.2099
 1963W        W17772   3.298   2.908   3.946  0.3485  0.0533  0.0147
 1964W        W17773   2.365  13.420   4.480 -0.2145  0.0749 -0.1811
 1965W        W17774  11.479  17.601   3.094 -0.0679 -0.0115  0.0074
 1966W        W17775   6.202  14.048   2.715  0.0613 -0.0366  0.1956
 1967W        W17776   4.646   2.361   4.433  0.1203  0.0518  0.2121
 1968W        W17777   7.364   0.825  11.154  0.0424 -0.1655  0.0994
 1969W        W17778  10.551  13.368   0.026 -0.2010  0.0027  0.3400
 1970W        W17779  11.867   3.899  15.099 -0.1009 -0.0204  0.2819
 1971W        W17780   8.806  16.038  12.814  0.2184 -0.2258  0.0600
 1972W        W17781  10.101  15.597  13.725 -0.2862 -0.0040  0.0998
 1973W        W17782   0.312  14.528  12.850 -0.3531  0.1514 -0.3111
 1974W        W17783  16.164   8.187  13.968 -0.0218  0.0024  0.2210
 1975W        W17784   0.922   3.424  15.082 -0.0596 -0.2862  0.1690
 1976W        W17785   5.340  11.430   4.568  0.0394  0.2057 -0.2998
 1977W        W17786  18.705  17.677  10.889  0.3580  0.4282  0.2652
 1978W        W17787  17.196   7.798  14.452 -0.3131  0.1655 -0.1496
 1979W        W17788  16.576  15.989   2.367 -0.0347  0.0304 -0.1502
 1980W        W17789   8.330   2.650  11.483 -0.3360  0.1869 -0.2346
 1981W        W17790  14.134  18.597  14.255 -0.1662  0.2036 -0.3297
 1982W        W17791  11.153   3.501  12.236  0.0415 -0.2600  0.0658
 1983W        W17792  14.198   3.375   1.545  0.2614 -0.1900  0.4049
 1984W        W17793   9.813  15.134  14.928 -0.1996  0.0349 -0.2222
 1985W        W17794  11.785  13.050  13.675 -0.1527  0.0186  0.3696
 1986W        W17795  18.599  18.435  13.620  0.0472  0.0021  0.0835
 1987W        W17796  12.972   0.913  14.282  0.0127 -0.3988 -0.0204
 1988W        W17797  17.206  15.675  15.382  0.1093 -0.4064 -0.1415
 1989W        W17798  10.936   3.641   4.787  0.5269  0.0216  0.4207
 1990W        W17799  14.710  10.609  14.569 -0.1271 -0.1603 -0.0864
 1991W        W17800   7.771   9.628   3.447 -0.1291 -0.2037 -0.2139
 1992W        W17801   4.072  18.772   4.144  0.2302  0.1531  0.1988
 1993W        W17802   6.743  14.168  10.848 -0.1820 -0.1959  0.1878
 1994W        W17803   1.283   3.980   2.689 -0.1060 -0.0064  0.0071
 1995W        W17804   7.128   8.014  14.261  0.1429 -0.2605 -0.1164
 1996W        W17805  11.296   9.845   0.660  0.0716 -0.2722  0.1743
 1997W        W17806  13.797   9.483   4.393  0.0314  0.1682  0.0288
 1998W        W17807   4.866   4.706   4.812  0.2728  0.4383  0.1175
 1999W        W17808  12.140  16.913   0.948 -0.1799 -0.3154  0.1412
 2000W        W17809   4.886   8.163  13.717 -0.0140  0.0545 -0.0179
 2001W        W17810  11.411   8.760  13.951  0.0040 -0.1194  0.4759
 2002W        W17811   3.974   7.130   4.774  0.0844 -0.1163  0.0982
 2003W        W17812   7.905   3.363  11.701  0.1440 -0.1242 -0.0558
 2004W        W17813   4.782   0.527  15.259 -0.2275  0.0802 -0.1297
 2005W        W17814   8.412  16.613   1.984  0.1927 -0.0091  0.0718
 2006W        W17815  14.678   6.799  13.940 -0.0352 -0.1610 -0.1722
 2007W        W17816   4.689  12.736   4.160  0.1918  0.0840  0.0028
 2008W        W17817   9.561  13.146   2.593  0.0110  0.0484  0.1386
 2009W        W17818   2.400  11.286  14.537 -0.2777 -0.1740 -0.1772
 2010W        W17819   9.170  16.968   0.830  0.0417  0.1880 -0.0371
 2011W        W17820  12.022  13.409   3.141 -0.1648  0.1079 -0.2376
 2012W        W17821   4.751   4.756  11.341  0.0622 -0.4237  0.0908
 2013W        W17822  12.478   5.978  11.728  0.0629  0.1951  0.0880
 2014W        W17823   0.823  12.164  13.455  0.1098  0.0782  0.3106
 2015W        W17824   5.280   0.836   1.407 -0.1691 -0.1276 -0.2372
 2016W        W17825   8.384  18.241  14.222  0.2682  0.0229 -0.1107
 2017W        W17826   8.022   9.905  12.967  0.0277  0.0182 -0.1234
 2018W        W17827   2.947  15.998   2.358 -0.0416 -0.2011 -0.3737
 2019W        W17828   3.334  12.270  10.326 -0.0710 -0.0285 -0.1748
 2020W        W17829  10.201  16.962  13.214 -0.2599 -0.3410 -0.2619
 2021W        W17830  11.850   5.208   5.792  0.1343  0.1771  0.0913
 2022W        W17831  16.910  14.364  13.294  0.0034  0.0695 -0.0838
 2023W        W17832   4.985   3.039  15.105  0.1950  0.1261  0.0943
 2024W        W17833  11.392   6.982   0.932 -0.3405 -0.2221 -0.2213
 2025W        W17834   1.235   7.413  10.524 -0.1333  0.0351 -0.2058
 2026W        W17835   2.242   4.705   3.097  0.1615 -0.1597 -0.1535
 2027W        W17836  16.313  11.058   9.785 -0.0516  0.0608 -0.1805
 2028W        W17837  13.231   9.603   5.358 -0.1640 -0.1079  0.1043
 2029W        W17838   6.327   0.972  13.694 -0.1115  0.2853  0.0508
 2030W        W17839  17.747  15.501  14.221  0.0591 -0.0689 -0.1997
 2031W        W17840  10.026  11.461  13.702 -0.1181  0.0863  0.2512
 2032W        W17841   5.966  14.180   5.277  0.0837 -0.0145  0.0413
 2033W        W17842  14.574  12.155  12.692 -0.0768 -0.2947  0.0482
 2034W        W17843  15.903  15.556  13.078 -0.0623  0.1428 -0.0685
 2035W        W17844   4.673  10.442   3.719 -0.1406  0.0981  0.0460
 2036W        W17845  13.492  17.107   3.604 -0.0463  0.1912  0.1606
 2037W        W17846  10.055  18.626  11.039  0.2492 -0.0580 -0.1236
 2038W        W17847   3.379   6.966   0.246  0.5280 -0.2204 -0.1678
 2039W        W17848   5.078   7.293  11.146 -0.2301 -0.1787  0.0657
 2040W        W17849  10.792   7.622  13.133  0.1752  0.1083  0.2779
 2041W        W17850  14.976   7.813   2.034 -0.0965 -0.3359  0.0183
 2042W        W17851   2.855   4.368  14.283 -0.1909  0.0289 -0.0074
 2043W        W17852  16.369  16.967  12.957  0.0890 -0.0089 -0.1005
 2044W        W17853   1.161   5.413   4.341  0.0061  0.0999 -0.4028
 2045W        W17854  12.833   1.198  15.480 -0.0523  0.0767  0.1000
 2046W        W17855   6.709  10.886  13.841  0.2704 -0.1090  0.0196
 2047W        W17856   9.053   7.054  12.359  0.1368 -0.1493 -0.0199
 2048W        W17857  18.549   7.888  12.587  0.5672 -0.2945  0.0983
 2049W        W17858   1.468  13.828   2.971  0.0312 -0.1658  0.2678
 2050W        W17859   5.538  12.453   4.584 -0.2839  0.0865 -0.3710
 2051W        W17860   8.357   6.738   3.160  0.1019 -0.0756 -0.1204
 2052W        W17861  15.824  14.701  13.820 -0.1755  0.1663  0.1493
 2053W        W17862  13.724   5.694   2.688 -0.0223 -0.0021  0.0675
 2054W        W17863   0.328   5.383  10.015  0.1118  0.0469 -0.1944
 2055W        W17864   1.334   6.829   3.333 -0.1353 -0.0182 -0.1853
 2056W        W17865  12.763  13.555   2.133  0.1950 -0.0028 -0.1340
 2057W        W17866   6.980   3.203   2.112 -0.1436 -0.0336 -0.0516
 2058W        W17867   0.846   2.876  15.282 -0.0009 -0.0490 -0.3261
 2059W        W17868  13.068   2.607   2.408  0.0894 -0.0636 -0.2271
 2060W        W17869   3.576   6.736   2.641  0.0834  0.1457 -0.0522
 2061W        W17870  13.196   1.321  12.980 -0.3319 -0.1658  0.0897
 2062W        W17871  12.611   2.284   0.157 -0.0588 -0.2525  0.0970
 2063W        W17872  10.964   7.238   9.955 -0.0890  0.0113 -0.1212
 2064W        W17873   7.012   3.495   0.430 -0.0821 -0.2379 -0.1259
 2065W        W17874  16.653  17.668   3.996 -0.1532  0.0063  0.0449
 2066W        W17875  11.536  17.206   2.777  0.3082 -0.1546 -0.0465
 2067W        W17876  11.289   4.370  11.640 -0.2716  0.0777  0.1596
 2068W        W17877  11.297   5.029   3.237  0.0299 -0.0503 -0.0370
 2069W        W17878   0.046  14.232   1.915 -0.6139  0.0916 -0.0054
 2070W        W17879   1.211  15.404  10.611 -0.0439  0.0408 -0.0729
 2071W        W17880  15.035  13.999  12.823 -0.0933 -0.2296  0.1040
 2072W        W17881  13.723   3.392   0.756  0.3226 -0.0816 -0.2729
 2073W        W17882   2.649   5.991   4.943  0.0301  0.0300 -0.2517
 2074W        W17883  10.955   4.942   5.221  0.2533  0.1099  0.0197
 2075W        W17884   9.055   1.919   2.486 -0.0006 -0.0869  0.2263
 2076W        W17885   5.830   3.950   2.484  0.2766  0.2710 -0.4543
 2077W        W17886  11.248   0.472   1.492  0.0671 -0.0528  0.3092
 2078W        W17887   2.252   4.172   3.043 -0.0065 -0.1130 -0.1535
 2079W        W17888  11.530   6.115   1.411  0.1313 -0.0005  0.1068
 2080W        W17889   1.282  14.708   0.561 -0.1465  0.0169  0.0278
 2081W        W17890  17.017   3.354  12.111  0.1585  0.2565 -0.1905
 2082W        W17891  10.938   7.786  12.657  0.1024 -0.0457 -0.1601
 2083W        W17892  10.423   3.125  14.924 -0.0578 -0.1255  0.0965
 2084W        W17893  12.570   2.642  15.375 -0.1277  0.2268 -0.0222
 2085W        W17894   7.791   0.744  13.542 -0.0456 -0.3078 -0.1062
 2086W        W17895   1.496   9.975   2.408 -0.0103 -0.2847  0.2150
 2087W        W17896   4.162   2.425   2.891  0.0260  0.2543  0.0610
 2088W        W17897   8.030  15.329   2.015  0.2093  0.2474  0.2967
 2089W        W17898   7.159  15.821   3.186  0.1043  0.1610 -0.1653
 2090W        W17899  14.786  12.078   1.608 -0.4158 -0.0638  0.0204
 2091W        W17900   4.632   8.973   9.445 -0.1651 -0.4623 -0.2695
 2092W        W17901   5.982   5.639   0.133 -0.0789 -0.0061  0.0420
 2093W        W17902  14.956  16.684  14.033  0.0162 -0.0966 -0.2010
 2094W        W17903   8.604   8.699   3.923 -0.2162  0.0420 -0.3219
 2095W        W17904  13.397  15.822  14.581 -0.0170  0.1642  0.3043
 2096W        W17905   8.384   0.683  11.383 -0.0871 -0.0108  0.1353
 2097W        W17906  11.029   5.850   4.330  0.0068 -0.0302 -0.0015
 2098W        W17907   4.215   9.617   2.652  0.1042  0.0062 -0.0548
 2099W        W17908   0.812  13.750   2.236  0.0008 -0.5049 -0.2214
 2100W        W17909  16.367  16.908   4.021 -0.1281  0.0460 -0.0538
 2101W        W17910  14.725  18.469  12.733  0.0412 -0.3234  0.0085
 2102W        W17911   5.556  12.942   4.633 -0.1533  0.1783 -0.1163
 2103W        W17912   2.607  12.417  13.547 -0.2092 -0.0060  0.2360
 2104W        W17913  17.469   8.477  14.052  0.2462  0.1129  0.4118
 2105W        W17914   0.050  18.144   3.843 -0.0916 -0.0316  0.0498
 2106W        W17915  11.435   3.735  12.574 -0.1089 -0.3370  0.0499
 2107W        W17916  18.492  10.485  11.234  0.2066 -0.0953 -0.2174
 2108W        W17917   2.760   3.210  11.699  0.0355 -0.0211  0.1610
 2109W        W17918  12.421  13.742  12.120  0.0179  0.0706  0.3888
 2110W        W17919   9.176   9.959   3.870 -0.1569  0.3046  0.3307
 2111W        W17920   8.576  11.356   3.392 -0.1164  0.1893 -0.2130
 2112W        W17921  14.925  13.058   0.545  0.0082 -0.2666  0.1161
 2113W        W17922   1.361  14.681  14.893 -0.1431 -0.0430  0.0995
 2114W        W17923  10.041   4.827  12.889 -0.2213 -0.0519  0.3069
 2115W        W17924   8.271   2.104   1.614 -0.1439  0.0215  0.3651
 2116W        W17925   2.085   2.240  11.032  0.1409  0.2996  0.0673
 2117W        W17926   8.951  17.287   1.737 -0.0390  0.0152  0.1661
 2118W        W17927  16.633   2.367   5.398 -0.0470 -0.3030  0.1012
 2119W        W17928  17.170   6.039   4.143 -0.0415 -0.1014  0.0958
 2120W        W17929   9.668   2.498   0.706 -0.0632  0.0707  0.1089
 2121W        W17930  12.490  14.687  12.339  0.0688  0.1693  0.0783
 2122W        W17931  15.449   4.423  14.426 -0.1022  0.2283 -0.2559
 2123W        W17932   7.162  17.155   0.779 -0.1635 -0.0552  0.0598
 2124W        W17933  13.381  17.755  11.601 -0.0358  0.1811 -0.1772
 2125W        W17934  17.302   8.519   3.278  0.2501  0.0992  0.3394
 2126W        W17935   8.788  16.901   4.369  0.0910  0.0080  0.1692
 2127W        W17936   5.469  12.055  12.038  0.0940 -0.1112  0.1181
 2128W        W17937  14.221  17.427  14.709 -0.1416 -0.1078 -0.1867
 2129W        W17938   0.423  12.723   4.884  0.0976  0.0422  0.0384
 2130W        W17939   1.107   5.360  15.032  0.0111 -0.1476  0.1033
 2131W        W17940   7.417  12.016   0.563 -0.0953  0.2420  0.0362
 2132W        W17941  14.638   6.928  12.452 -0.0714 -0.0091  0.1727
 2133W        W17942  17.842  17.069  11.386 -0.0260  0.2761  0.2199
 2134W        W17943   8.658   3.132   2.414  0.0368 -0.0298 -0.1278
 2135W        W17944  11.643   7.891  13.491  0.1642  0.2890 -0.3272
 2136W        W17945  13.572  18.463  11.246 -0.0668 -0.1157 -0.0510
 2137W        W17946   6.818   6.495  13.246  0.1591 -0.0421  0.0933
 2138W        W17947   3.488   7.564   0.955 -0.2082  0.0306 -0.3636
 2139W        W17948  17.659   0.607  10.847  0.1559 -0.4847 -0.3948
 2140W        W17949  16.768   0.529  11.254 -0.2273  0.0641 -0.0709
 2141W        W17950  11.138  10.389   1.784 -0.0914  0.0463  0.2005
 2142W        W17951  18.708  11.199   5.282 -0.0201 -0.0594  0.0974
 2143W        W17952   2.326   2.175   2.041  0.2610 -0.0867  0.1615
 2144W        W17953   2.980   7.245  11.456 -0.0797  0.1166  0.2825
 2145W        W17954  14.014  13.238  14.772  0.1589  0.0633  0.1560
 2146W        W17955  14.295  13.619   3.820  0.5764  0.0775  0.0336
 2147W        W17956   1.706  11.260   1.977  0.2420  0.0157  0.1313
 2148W        W17957  14.480   7.659   5.120  0.2906  0.0582 -0.1376
 2149W        W17958   9.578   3.783   0.067  0.0730  0.1514 -0.1003
 2150W        W17959   6.085  17.421  13.258  0.0380  0.2366 -0.1258
 2151W        W17960  12.515   6.324   0.136  0.2968  0.2253 -0.1888
 2152W        W17961   4.301  13.670   3.788 -0.1796  0.0633 -0.1513
 2153W        W17962   1.421   6.164   3.395 -0.1414  0.0142  0.1700
 2154W        W17963   8.834   8.581   1.595 -0.2051 -0.1990 -0.0975
 2155W        W17964  13.045   2.870  15.538  0.0523 -0.0512  0.2299
 2156W        W17965  16.446   3.107   4.772 -0.0174  0.2379  0.0384
 2157W        W17966  17.341  17.027  11.019 -0.2363  0.1220  0.2128
 2158W        W17967   7.735   3.239   2.715  0.0572  0.2131 -0.0245
 2159W        W17968   0.312  17.006  13.316 -0.0092  0.0735 -0.3750
 2160W        W17969   3.081   5.587  12.521 -0.0532 -0.0494  0.0866
 2161W        W17970  12.505  13.145  11.154  0.2429  0.1362  0.4148
 2162W        W17971   6.655   4.505   3.268  0.1926  0.0309 -0.1406
 2163W        W17972   1.204  10.810  14.931  0.2457 -0.0797  0.3007
 2164W        W17973  14.996   2.637  10.507  0.1070 -0.1092 -0.0660
 2165W        W17974   7.069  16.079  14.437 -0.3943  0.2292  0.0693
 2166W        W17975   6.472  13.783   4.617 -0.0015  0.0834 -0.1108
 2167W        W17976  17.381  10.246  13.978 -0.0452  0.0772 -0.1182
 2168W        W17977  12.705  15.081   2.891  0.1497 -0.0310 -0.1401
 2169W        W17978  17.130   2.594  14.698 -0.0353 -0.1230  0.2692
 2170W        W17979  11.386  18.512   0.772  0.0782 -0.3307 -0.2591
 2171W        W17980   4.497   1.387  14.037 -0.0229 -0.0251 -0.3780
 2172W        W17981   3.563  10.500   3.906  0.2453  0.1715  0.2158
 2173W        W17982   3.583   6.107  14.987 -0.0428  0.2043  0.0861
 2174W        W17983   9.914   1.783   5.624  0.1306  0.0756  0.0606
 2175W        W17984  13.923  18.130   2.064  0.1907  0.0265 -0.2212
 2176W        W17985   2.159  11.592  13.670  0.3323 -0.1595  0.1074
 2177W        W17986   5.332   3.705   2.344 -0.0823  0.0232  0.0817
 2178W        W17987   0.690   5.684  15.041 -0.1656 -0.0606 -0.0334
 2179W        W17988  13.709  13.043   2.700  0.2839 -0.2194 -0.0108
 2180W        W17989  14.861   2.219   2.832 -0.0304 -0.3985 -0.2160
 2181W        W17990   2.817  18.018   1.335 -0.2002 -0.3189 -0.1682
 2182W        W17991   2.180  10.990   4.982 -0.1080  0.2015  0.0702
 2183W        W17992   4.490   6.968   0.521 -0.2419  0.1646 -0.3436
 2184W        W17993   7.137  17.202   2.654 -0.2655 -0.1269  0.3126
 2185W        W17994  17.054   7.859   4.869  0.1293  0.0651  0.0898
 2186W        W17995   1.800   3.169  13.749 -0.1004 -0.0661  0.1699
 2187W        W17996   4.524  12.676  14.452  0.1609  0.3071  0.2092
 2188W        W17997   7.759   3.638   4.461  0.1564  0.0497  0.1155
 2189W        W17998  14.471   7.364  12.282  0.1412  0.0143  0.0776
 2190W        W17999   7.734  16.997  13.852  0.1823 -0.1010 -0.0535
 2191W        W18000   4.517   2.595   3.342  0.1545  0.0450  0.1571
 2192W        W18001  18.525   7.889   2.201 -0.1669  0.1152  0.1244
 2193W        W18002  16.745   7.536   5.697  0.0747  0.0479 -0.2081
 2194W        W18003  11.078   7.854   4.809  0.1288  0.0820 -0.0743
 2195W        W18004  18.050  12.327  14.226  0.2538 -0.5186  0.0695
 2196W        W18005   3.697  12.208   3.462  0.2722 -0.0025  0.0672
 2197W        W18006   4.578   3.213  12.286 -0.0377  0.0951 -0.2473
 2198W        W18007   7.484   4.915  11.495  0.2836  0.0238  0.1658
 2199W        W18008   3.946   0.663  12.654 -0.0889 -0.0413  0.0934
 2200W        W18009  15.055  15.692  15.419  0.0103  0.1018 -0.0166
 2201W        W18010   2.021   6.448  11.351  0.4165  0.4065  0.1361
 2202W        W18011   8.386  11.502   2.226 -0.0225 -0.2861 -0.3332
 2203W        W18012  12.157   6.638   2.795 -0.0919 -0.0445 -0.2678
 2204W        W18013  14.084   7.266   1.294  0.0309 -0.0540 -0.1299
 2205W        W18014  15.106  18.039   2.891  0.2411 -0.2524 -0.2036
 2206W        W18015  11.642  12.996   5.061  0.1557  0.3808 -0.0714
 2207W        W18016   6.314   3.373  14.729 -0.1219  0.0962  0.1364
 2208W        W18017  11.212  16.714   0.705  0.1710  0.1224 -0.2885
 2209W        W18018   6.043  12.113   0.223 -0.0007 -0.3565 -0.1761
 2210W        W18019   6.098  13.493  11.860  0.1794 -0.2326 -0.2810
 2211W        W18020  17.168   3.802   2.512 -0.1829  0.3919 -0.0229
 2212W        W18021   7.641   0.073  12.803  0.0351  0.0307  0.0689
 2213W        W18022  13.430  15.844   2.945 -0.3293 -0.1098  0.2070
 2214W        W18023  18.171   6.949   4.803  0.0606  0.2624 -0.0050
 2215W        W18024  15.798  15.107  11.470 -0.3053 -0.0492 -0.0054
 2216W        W18025  16.626  18.484   3.438  0.2499 -0.2012 -0.0863
 2217W        W18026  14.132   7.625   0.206  0.0592  0.1428  0.0416
 2218W        W18027  14.989   6.406   0.109 -0.2939  0.3605 -0.0621
 2219W        W18028   6.378  18.552   4.262  0.1909 -0.2424 -0.1889
 2220W        W18029  16.985   8.335   1.744  0.1140  0.0990  0.1155
 2221W        W18030  17.390   8.201   0.812  0.0484  0.0930  0.0274
 2222W        W18031   0.716   4.175   2.720  0.0354 -0.4147 -0.2105
 2223W        W18032  10.278   2.955   3.368 -0.2015 -0.2038 -0.0253
 2224W        W18033  17.207  14.951   2.852  0.0689  0.1997  0.1078
 2225W        W18034  10.356  12.380   3.036  0.1077 -0.0415 -0.1506
 2226W        W18035  12.017   0.625   2.816  0.0783 -0.2018 -0.0319
 2227W        W18036  11.334   4.239   4.051  0.0630 -0.4687  0.0107
 2228W        W18037  13.646  15.128  12.841  0.0518 -0.1785 -0.0821
 2229W        W18038  14.041  15.497   4.139 -0.3293  0.0923 -0.3622
 2230W        W18039  15.069   9.013   2.452  0.1057  0.1197  0.2128
 2231W        W18040   1.686   4.217   1.767 -0.3904 -0.0244 -0.0073
 2232W        W18041   7.776   4.287   1.836  0.2177 -0.2450  0.0320
 2233W        W18042  11.002  16.521  11.831 -0.0778  0.1507 -0.0124
 2234W        W18043   5.571   1.754   4.108 -0.0794 -0.1733 -0.0660
 2235W        W18044   3.450   0.794   1.958  0.0311 -0.1604  0.3604
 2236W        W18045   1.736  18.337   2.129  0.2327  0.2511  0.0914
 2237W        W18046  10.446  11.297  14.923  0.3999 -0.1094  0.2903
 2238W        W18047  11.709   4.645   4.079 -0.2097 -0.5387 -0.0947
 2239W        W18048  10.356   3.596   0.709 -0.1956  0.0860 -0.0850
 2240W        W18049  10.813  10.574   2.616  0.2179 -0.2680  0.4889
 2241W        W18050   6.020   0.369  12.108  0.0404 -0.0692 -0.1082
 2242W        W18051   4.768   3.219   4.207  0.0056 -0.0350  0.1372
 2243W        W18052   8.461  14.219   0.680  0.4196  0.0372  0.0612
 2244W        W18053  18.744  16.229   3.320 -0.1182 -0.0513 -0.2696
 2245W        W18054  13.109  11.437   2.066  0.3667 -0.1624 -0.5182
 2246W        W18055  12.814  16.765  13.802 -0.3581 -0.0678 -0.0799
 2247W        W18056   9.076   5.143  13.215 -0.0900  0.1242  0.2682
 2248W        W18057   8.965  12.379   3.066 -0.0682 -0.3631 -0.2219
 2249W        W18058   7.309  13.447   2.346 -0.1190  0.0383  0.1341
 2250W        W18059   8.083   0.434   4.106  0.0645 -0.1396 -0.1390
 2251W        W18060   7.487   7.703  14.046  0.1488 -0.2024 -0.0103
 2252W        W18061   9.262   4.807   5.372 -0.0852 -0.0999  0.1416
 2253W        W18062  18.153  14.392   3.713 -0.0908  0.0191 -0.1801
 2254W        W18063   1.505   8.990   4.549  0.1434  0.2163 -0.2480
 2255W        W18064   8.826   6.141   1.752 -0.1834 -0.0127 -0.1057
 2256W        W18065   9.960  16.178   0.753  0.1889  0.1183  0.0337
 2257W        W18066  10.237   5.330   0.921  0.1734  0.1843 -0.1285
 2258W        W18067   6.214  12.040   3.338  0.0479  0.0346  0.0950
 2259W        W18068  14.168   1.721   0.946 -0.1844  0.0381 -0.0161
 2260W        W18069   6.635  11.644  10.929  0.0749 -0.2031  0.0930
 2261W        W18070   5.155  13.135   3.706  0.0088 -0.1021  0.2090
 2262W        W18071   2.465   0.250   2.459  0.1139 -0.2831  0.3492
 2263W        W18072  15.964   5.164   2.158  0.0142 -0.0514 -0.0510
 2264W        W18073   4.893  12.541  14.966 -0.1686 -0.1463  0.1323
 2265W        W18074  17.056  15.241   2.134  0.2210  0.1131 -0.0553
 2266W        W18075  10.105   4.400   3.069 -0.3136  0.0305 -0.0659
 2267W        W18076  17.968  12.088  12.029  0.3970 -0.1825 -0.2150
 2268W        W18077   6.923   3.054  13.466  0.0102  0.1320 -0.1110
 2269W        W18078   8.068   5.916   3.369  0.1840 -0.0961  0.1961
 2270W        W18079   8.607   4.465  11.255 -0.0385 -0.1972 -0.0977
 2271W        W18080   2.971   2.343  11.535 -0.0298 -0.1751 -0.1238
 2272W        W18081  15.301  14.506   1.646 -0.0565 -0.1048  0.4360
 2273W        W18082   8.794   5.742  11.309 -0.1457  0.1109 -0.1163
 2274W        W18083  11.259   2.714   5.269 -0.3027  0.1271  0.0995
 2275W        W18084   1.441   9.132  13.547 -0.0531 -0.1120  0.0526
 2276W        W18085  14.701  14.001  13.854  0.2356 -0.0067  0.0655
 2277W        W18086  17.300  17.765   0.652  0.0844 -0.0506 -0.1487
 2278W        W18087   0.666   1.788   3.328  0.1454 -0.2691 -0.1742
 2279W        W18088   5.794  12.052   2.534  0.1374 -0.1577  0.2162
 2280W        W18089  13.061  11.530  11.519 -0.2045  0.1019  0.1815
 2281W        W18090   4.689  11.303   2.286 -0.0205  0.2951  0.1612
 2282W        W18091   8.068  14.962   1.201 -0.0960  0.3109  0.2034
 2283W        W18092   9.090   5.576   0.449  0.0922 -0.1122 -0.2737
 2284W        W18093  17.015   6.014  11.721  0.0284 -0.0050 -0.1140
 2285W        W18094  15.728   8.878   1.690 -0.2678 -0.0302  0.0792
 2286W        W18095   9.550   8.204   0.688  0.0000  0.1302 -0.1811
 2287W        W18096  12.499   4.513  13.320 -0.1652  0.4652 -0.2302
 2288W        W18097   9.408   0.133   0.840 -0.0733 -0.1288 -0.0962
 2289W        W18098  15.711   9.406  14.244  0.0916  0.1504  0.0590
 2290W        W18099  16.165   3.508   5.039 -0.2660 -0.3117 -0.1087
 2291W        W18100  15.912   0.875  10.188 -0.0061  0.0826  0.1590
 2292W        W18101  16.474   2.118   1.452  0.1807  0.0482  0.3929
 2293W        W18102  11.126  13.835   5.137  0.0591 -0.1430  0.1268
 2294W        W18103   0.586  10.545   3.481 -0.1974  0.3857 -0.1773
 2295W        W18104   0.302   1.184  15.289  0.1551  0.0135 -0.4199
 2296W        W18105  11.108  13.212  14.587  0.1080  0.0378 -0.0789
 2297W        W18106  15.229  10.658  12.061  0.0358 -0.0249 -0.0310
 2298W        W18107  10.663  17.520   0.312  0.2888  0.2168 -0.0056
 2299W        W18108  14.064  15.403   3.606  0.3886 -0.0097 -0.3590
 2300W        W18109   6.468   5.599   0.226 -0.0002  0.2679  0.3577
 2301W        W18110  11.498  16.433  13.350 -0.1568 -0.1283  0.0180
 2302W        W18111   2.526   1.661   2.291  0.1614 -0.0222 -0.0771
 2303W        W18112   6.681   9.518   2.450  0.1491  0.1692 -0.0209
 2304W        W18113   6.587   7.369  14.162  0.3045  0.2966 -0.0264
 2305W        W18114   2.191  11.521   1.725  0.0711 -0.1059  0.0239
 2306W        W18115  11.343  17.674   2.602 -0.1766 -0.1424  0.0493
 2307W        W18116  17.085  11.565  11.131  0.0395  0.0574  0.0331
 2308W        W18117   6.842   2.459  12.791  0.0903 -0.2571 -0.0756
 2309W        W18118  15.730   4.670   2.304  0.3080  0.0586 -0.0249
 2310W        W18119  11.898  13.508   0.257 -0.1256 -0.1144 -0.1708
 2311W        W18120   8.618  17.365  10.782  0.0231  0.1089  0.0732
 2312W        W18121   3.839  14.092   4.567 -0.1781 -0.0077  0.1027
 2313W        W18122  10.818  14.737  10.239  0.0467 -0.0788  0.1169
 2314W        W18123  16.050  17.509   0.074  0.1949  0.0671  0.1036
 2315W        W18124   2.771  13.807  13.039  0.1851  0.2814 -0.0532
 2316W        W18125  11.014  15.686  11.162 -0.0817 -0.1815 -0.2740
 2317W        W18126  18.661   3.324   2.445 -0.0250 -0.1962 -0.3881
 2318W        W18127   1.368  13.305   1.543 -0.2925  0.0321  0.2711
 2319W        W18128   9.496  15.124  11.093 -0.4488  0.0505  0.1032
 2320W        W18129   3.516  17.160   0.804  0.3113 -0.1517 -0.1239
 2321W        W18130  11.025  13.705  13.857 -0.0819  0.1653  0.5433
 2322W        W18131   9.103   0.148  15.287 -0.0674 -0.0709 -0.1057
 2323W        W18132  10.291   3.830   5.434  0.0981  0.2193 -0.2385
 2324W        W18133   9.062   0.457  12.474  0.0708  0.1768  0.1156
 2325W        W18134   3.598   5.167   0.213 -0.0779 -0.1447  0.0053
 2326W        W18135  11.178   8.195   1.751  0.1746 -0.1366  0.1836
 2327W        W18136   0.342  11.751  11.003 -0.0437 -0.3463 -0.0648
 2328W        W18137  12.388   4.120  12.505 -0.0041 -0.1494 -0.0892
 2329W        W18138   0.999   0.072   5.449 -0.1093  0.2100 -0.1505
 2330W        W18139  17.445  14.299  14.116  0.1392 -0.1026  0.0617
 2331W        W18140  17.160   3.816   5.761  0.1284 -0.1248  0.0894
 2332W        W18141  16.233   2.969  14.989  0.0353 -0.0859  0.1503
 2333W        W18142   9.474  10.823   5.658 -0.0322 -0.1571  0.3706
 2334W        W18143   0.747   6.463   0.493 -0.3773  0.2206 -0.0262
 2335W        W18144  16.459   0.075   2.589 -0.1238  0.1401  0.0707
 2336W        W18145  13.082   4.594  14.059  0.0068  0.3271 -0.3864
 2337W        W18146  12.294   4.864  13.799  0.2155 -0.1325 -0.4927
 2338W        W18147   4.131   3.451   1.475 -0.0772 -0.0815 -0.2513
 2339W        W18148   2.657   0.742   0.282  0.1303 -0.4366  0.2561
 2340W        W18149  14.554   6.818  10.349 -0.1540  0.1145 -0.3263
 2341W        W18150  11.770   9.224  10.569 -0.1374 -0.3107  0.1358
 2342W        W18151   6.096  14.254  12.690  0.1797  0.1023  0.0221
 2343W        W18152   5.256  10.125   9.826  0.0057 -0.3101  0.1294
 2344W        W18153   1.869   3.181   2.453 -0.0448 -0.2032  0.0563
 2345W        W18154  16.819   8.980   0.380 -0.3242  0.1037  0.1055
 2346W        W18155   6.485  18.734  14.436 -0.1302 -0.0186  0.2725
 2347W        W18156  16.469   1.634   0.117  0.1912 -0.2350 -0.3434
 2348W        W18157  13.856  17.676  13.889 -0.0642  0.0570 -0.2294
 2349W        W18158   4.068   1.728   3.475 -0.3073 -0.2376 -0.0237
 2350W        W18159   1.066  18.378  12.918  0.0713  0.1712 -0.0199
 2351W        W18160  13.815  14.440   3.261  0.2440  0.0099 -0.0493
 2352W        W18161   9.028   0.142  13.565 -0.1330  0.0850  0.1579
 2353W        W18162  13.933  13.279  10.601 -0.2667  0.1020 -0.1522
 2354W        W18163  15.257   7.841  13.427  0.2878  0.0714  0.2608
 2355W        W18164  11.421   4.292  12.534  0.2144 -0.0772  0.0659
 2356W        W18165  15.650   9.318  11.375  0.1517 -0.3270 -0.4223
 2357W        W18166  16.277   0.157   3.410  0.4168 -0.0157 -0.2950
 2358W        W18167   3.408   3.318  12.306  0.1617  0.0572 -0.1275
 2359W        W18168   1.823  10.332  14.176  0.0934 -0.0213  0.2822
 2360W        W18169  18.214  16.846   5.107  0.2152  0.0748 -0.4068
 2361W        W18170   9.176   0.644   2.797 -0.2957  0.3771  0.3810
 2362W        W18171   7.986  10.851  15.346 -0.0885 -0.2499  0.2410
 2363W        W18172  17.620  11.810   1.762 -0.0007 -0.0104 -0.0496
 2364W        W18173   5.967  12.047   0.747 -0.1661  0.2508 -0.0702
 2365W        W18174  15.099  14.983   0.041  0.0399 -0.1781 -0.0161
 2366W        W18175   0.309  17.911   5.415 -0.3914 -0.1159  0.2702
 2367W        W18176   6.730  14.810  14.472  0.0249 -0.2640  0.1658
 2368W        W18177   2.704  14.595  10.827 -0.0700 -0.1201  0.0258
 2369W        W18178   9.985   6.651  12.777 -0.1762 -0.3034 -0.0215
 2370W        W18179   5.583   2.506   2.903  0.1823 -0.2971  0.0750
 2371W        W18180   2.713  11.418   2.515  0.0125 -0.1857 -0.0216
 2372W        W18181  15.439  15.665  13.859  0.1170 -0.2385  0.1130
 2373W        W18182  15.416  12.621   3.487  0.0362 -0.1034 -0.0406
 2374W        W18183   2.581   3.078   1.292 -0.1799 -0.1043  0.1111
 2375W        W18184   8.216   7.291  10.240 -0.1391  0.0165  0.0616
 2376W        W18185   8.617   2.169   3.876 -0.1734 -0.2378 -0.0498
 2377W        W18186   4.764   9.233  13.486  0.0512 -0.2201 -0.0140
 2378W        W18187  18.553   7.737  11.962  0.1446  0.0659  0.0602
 2379W        W18188   1.904   2.149  10.444 -0.0222  0.1015 -0.2033
 2380W        W18189  11.895  15.762  12.041  0.2432  0.2586  0.0946
 2381W        W18190  10.946   3.187   1.944 -0.0926  0.1814 -0.0782
 2382W        W18191  14.778   5.740  11.031 -0.0870  0.1453 -0.1019
 2383W        W18192   8.708  13.811   9.819  0.0296 -0.1300 -0.1072
 2384W        W18193  16.408   3.954  10.900 -0.1174  0.0637  0.1062
 2385W        W18194   1.516  14.330   2.935  0.1763  0.1381 -0.1370
 2386W        W18195   3.203   3.131  11.849  0.2072 -0.0379 -0.0838
 2387W        W18196  18.092   2.651   1.754  0.3153  0.2601 -0.1470
 2388W        W18197   2.816   4.986   4.167 -0.1290 -0.4283  0.1423
 2389W        W18198  18.236   4.913   0.010  0.2122 -0.0777 -0.1307
 2390W        W18199   3.225  13.159  12.437 -0.2833 -0.0131 -0.3199
 2391W        W18200  11.442   6.429  11.122  0.1184  0.0217 -0.1966
 2392W        W18201  12.509  10.513   5.007  0.0248 -0.1971 -0.1565
 2393W        W18202   4.683   2.192  13.927  0.1050 -0.3018  0.0084
 2394W        W18203   4.731   7.504  14.930  0.3299 -0.2553  0.0657
 2395W        W18204  10.565   9.081  12.619 -0.0481  0.0003  0.5027
 2396W        W18205  12.696  15.379   1.534  0.1572  0.1026 -0.0028
 2397W        W18206   8.562   5.073   3.096 -0.0239 -0.1290  0.3139
 2398W        W18207   6.053  12.923   4.790  0.0068  0.0417 -0.1697
 2399W        W18208   7.250   6.757  13.069  0.2660  0.3415  0.2886
 2400W        W18209   7.789   8.532  13.538 -0.0592  0.1136 -0.0322
 2401W        W18210   1.602   9.067  14.591 -0.1074  0.1278 -0.2827
 2402W        W18211   1.434   7.261   1.578 -0.1483 -0.1779  0.1957
 2403W        W18212   2.644  14.013   1.858 -0.0945  0.0861 -0.0686
 2404W        W18213   6.121   1.153   2.201 -0.0391  0.0276 -0.2480
 2405W        W18214   2.946   0.731   4.536  0.0820 -0.0114  0.1308
 2406W        W18215   2.478  13.561  10.856 -0.1588 -0.2525  0.0692
 2407W        W18216   6.453  15.528   0.614 -0.0289  0.2053  0.1768
 2408W        W18217   9.004   7.513   9.756 -0.0476  0.0095 -0.1554
 2409W        W18218   8.895   8.137   0.107 -0.1517  0.1051 -0.1175
 2410W        W18219  11.568   1.314  13.169  0.1033 -0.1559  0.1399
 2411W        W18220  14.113   4.568   2.062 -0.0080  0.3411  0.1909
 2412W        W18221   1.971   0.201   4.848  0.0378  0.1203 -0.0143
 2413W        W18222   5.385   6.831   0.985  0.1646  0.0006  0.1154
 2414W        W18223   6.421  16.439   0.627 -0.0214  0.1869 -0.3627
 2415W        W18224   0.814  11.988  14.363 -0.1328 -0.4203 -0.1718
 2416W        W18225  12.771   7.981  12.157 -0.1403 -0.0699  0.0949
 2417W        W18226   7.677  10.379   4.940  0.2406  0.0072 -0.1390
 2418W        W18227   1.403  14.462   4.971  0.0284 -0.1012 -0.0457
 2419W        W18228   5.427  12.176   3.631 -0.2550 -0.0917  0.2284
 2420W        W18229   0.756   2.968   1.986 -0.0118 -0.1296 -0.2151
 2421W        W18230  10.313   7.728   0.294 -0.1371 -0.4159 -0.1499
 2422W        W18231   2.569  13.073   2.471  0.1171 -0.0848 -0.2544
 2423W        W18232   9.734   7.062   5.076 -0.1977  0.2659 -0.0615
 2424W        W18233   0.665  18.050  12.968 -0.1028 -0.0380 -0.0638
 2425W        W18234   6.355  16.957   0.482  0.1600  0.4299 -0.2182
 2426W        W18235   2.315  13.614   2.514  0.3118 -0.1043  0.0549
 2427W        W18236  11.509   5.295  12.181  0.1391  0.3100 -0.2791
 2428W        W18237   3.143   6.013   4.912 -0.1547 -0.4718 -0.1179
 2429W        W18238  10.451  17.015   0.381 -0.0799 -0.2638 -0.0129
 2430W        W18239  11.477   9.214  10.949  0.0589 -0.4182 -0.0889
 2431W        W18240  14.434   6.618   9.910 -0.0080  0.1254  0.0000
 2432W        W18241  12.330   5.313   3.155  0.0547  0.1542 -0.0073
 2433W        W18242  15.849  12.013   2.771 -0.0401 -0.2209 -0.1382
 2434W        W18243  10.492  11.567   2.534 -0.3093  0.0259  0.0750
 2435W        W18244  14.424   3.526  11.548 -0.0157 -0.1989 -0.0081
 2436W        W18245   9.328  16.600   3.875  0.1651  0.0969  0.1644
 2437W        W18246  14.993   8.883  14.755 -0.1481  0.2022  0.3382
 2438W        W18247   9.323  18.580  14.450 -0.0243 -0.0194  0.1100
 2439W        W18248   3.126  12.830  12.825  0.0206  0.2202 -0.0181
 2440W        W18249  16.586  11.470   4.013  0.2392 -0.3572  0.0025
 2441W        W18250  15.318  10.331  13.246 -0.4927 -0.0818 -0.0485
 2442W        W18251   0.242  12.951  10.644  0.1917  0.1689 -0.0102
 2443W        W18252   1.999  15.670  11.606 -0.0081 -0.1018 -0.0880
 2444W        W18253  15.531  13.184  14.434  0.1635  0.0269  0.1525
 2445W        W18254  15.404   7.033   0.436  0.1744 -0.0072 -0.0405
 2446W        W18255  14.465  11.913   3.135 -0.1906  0.2458  0.3417
 2447W        W18256   7.939   2.186  10.788 -0.0027  0.0943  0.2612
 2448W        W18257   5.010   2.988  11.975 -0.4136 -0.0838  0.4190
 2449W        W18258   3.047  16.576  11.920 -0.0854 -0.0102  0.2017
 2450W        W18259   7.540  11.230   3.114 -0.1209 -0.0991 -0.2356
 2451W        W18260  16.003  15.427   0.640 -0.0376  0.1311  0.3157
 2452W        W18261   1.404   5.601  12.125 -0.0261 -0.0056  0.0460
 2453W        W18262  13.251   8.302   1.151 -0.0159 -0.2160  0.2336
 2454W        W18263   9.177  12.852  13.730 -0.0011  0.2841 -0.0089
 2455W        W18264   1.590   1.684  12.286 -0.3498 -0.0982 -0.0167
 2456W        W18265   4.810  10.457   4.702  0.2747 -0.1841  0.1198
 2457W        W18266   5.702  13.206   3.792 -0.1264 -0.4589 -0.0705
 2458W        W18267  17.341   1.814  13.490  0.2371  0.1066  0.0428
 2459W        W18268  18.598  12.448  11.920 -0.0250  0.1466  0.2425
 2460W        W18269   5.123   3.572   3.916  0.0995  0.1957  0.0784
 2461W        W18270  13.179  11.901   5.788 -0.2516  0.0517 -0.1787
 2462W        W18271   6.744  10.704   4.599 -0.0750 -0.0014 -0.0488
 2463W        W18272   1.536   1.711  13.371 -0.1107 -0.2846  0.0144
 2464W        W18273   7.251  15.453  11.462 -0.1514  0.1008 -0.0665
 2465W        W18274  12.884   7.176   2.270  0.1702 -0.1232 -0.3027
 2466W        W18275   3.604   3.317   0.673 -0.1430 -0.0776 -0.0365
 2467W        W18276   0.188   1.438   4.289 -0.2813  0.1881 -0.2871
 2468W        W18277   7.854  17.316   1.232  0.0730  0.0385 -0.0300
 2469W        W18278   2.929   1.112  14.191 -0.3195 -0.2196 -0.1774
 2470W        W18279  10.342   7.969   5.302  0.0364  0.1751 -0.1184
 2471W        W18280   6.418   0.700   0.884 -0.1612  0.1294 -0.1102
 2472W        W18281   3.581   2.941  10.824 -0.0617 -0.3160 -0.3302
 2473W        W18282  11.813  11.690  13.498 -0.0664 -0.1044  0.0459
 2474W        W18283   0.274  16.475  11.999 -0.1831  0.1102  0.0046
 2475W        W18284  13.184  11.361   0.472  0.1443 -0.2486  0.1575
 2476W        W18285   2.597  18.154   0.055  0.0049 -0.1568  0.0230
 2477W        W18286  13.973  13.618  12.559  0.2528  0.1871  0.2669
 2478W        W18287   5.341   9.788   0.722 -0.3048  0.2387  0.1483
 2479W        W18288   7.163   9.136   0.894 -0.2484  0.0882 -0.1011
 2480W        W18289   4.156  10.561  15.431 -0.3248  0.0304  0.0998
 2481W        W18290   4.673   8.047   1.353  0.2224  0.0280 -0.2095
 2482W        W18291   9.677  16.638   3.498  0.0374  0.1236 -0.0272
 2483W        W18292  14.638  12.284   0.230  0.0211  0.0278  0.2376
 2484W        W18293   7.418   0.037   3.327  0.1926 -0.2486  0.0649
 2485W        W18294   8.839   2.083  13.045 -0.1533 -0.1031  0.0582
 2486W        W18295  11.267  11.496   3.723 -0.2220 -0.0189 -0.2789
 2487W        W18296  18.642   0.680   4.048 -0.3383 -0.0333 -0.2964
 2488W        W18297  14.654  15.762   5.076 -0.3098  0.0972  0.0914
 2489W        W18298   1.770   3.154  14.871  0.1502  0.2996  0.3223
 2490W        W18299  14.355  12.402  13.844 -0.0685 -0.1484 -0.1675
 2491W        W18300   1.694   3.566   4.238 -0.0911  0.0976  0.2327
 2492W        W18301  11.866  11.320   0.594  0.0454 -0.1320 -0.0151
 2493W        W18302   3.469  10.727  12.859 -0.1623 -0.0526  0.0920
 2494W        W18303  18.423   4.341   5.435 -0.3867 -0.1272 -0.0990
 2495W        W18304  11.556   7.565   4.860  0.1365  0.0461  0.1989
 2496W        W18305   4.026  14.878   3.523  0.1231  0.1220 -0.1986
 2497W        W18306   6.271  15.764   3.679  0.3867 -0.2193  0.3705
 2498W        W18307   6.343   9.934   4.642 -0.1361 -0.0920 -0.3042
 2499W        W18308  14.948   0.235  12.220 -0.2330 -0.2259  0.0686
 2500W        W18309   4.727  11.588  12.527 -0.1133 -0.0535  0.4915
 2501W        W18310   1.538  13.083   4.399  0.3893 -0.0193 -0.4458
 2502W        W18311  12.822   0.160   3.014 -0.0716 -0.3272 -0.1889
 2503W        W18312   4.664  11.123  11.662  0.3268  0.2974  0.2166
 2504W        W18313  17.646   5.361   3.186 -0.0742  0.4584  0.2331
 2505W        W18314  12.110   4.509   2.905  0.4483 -0.1843  0.1556
 2506W        W18315   6.788   9.049   3.885 -0.2358  0.3296  0.0593
 2507W        W18316   8.230  12.807  10.504  0.0181 -0.0145 -0.0109
 2508W        W18317  14.392   1.951   4.124  0.1857  0.1880 -0.0284
 2509W        W18318  18.213   7.043  11.908 -0.1968  0.1656  0.2073
 2510W        W18319   5.821   9.293  14.524  0.0567  0.0525  0.1214
 2511W        W18320   7.850  12.042  12.575  0.1940  0.0162  0.1526
 2512W        W18321  10.913  11.047  15.017 -0.0351  0.0520 -0.2546
 2513W        W18322   9.484   7.762   2.237  0.3063  0.0888  0.0551
 2514W        W18323  13.573  11.703  11.362 -0.1123 -0.0730 -0.0167
 2515W        W18324   9.088   1.343   0.195  0.0049 -0.0137  0.1383
 2516W        W18325  18.035   5.423   1.897  0.1479  0.3897  0.0472
 2517W        W18326  15.465  13.824  10.877  0.0956  0.3119 -0.0974
 2518W        W18327   4.309   6.523   4.275 -0.0708 -0.0860  0.2430
 2519W        W18328   8.717  13.541   1.180  0.2240 -0.0662 -0.1477
 2520W        W18329   4.872   7.708  11.322 -0.0023  0.0614 -0.1126
 2521W        W18330  16.357   2.353  10.890  0.2524 -0.3390  0.0415
 2522W        W18331   2.582   7.654   1.075  0.1474 -0.2637 -0.0103
 2523W        W18332   9.861   3.765  11.611 -0.1842 -0.0436  0.0542
 2524W        W18333   1.856  12.748   3.600 -0.3275 -0.2315 -0.3153
 2525W        W18334   9.253  17.745  11.899 -0.0593 -0.0507 -0.1683
 2526W        W18335  15.545  12.669  14.386  0.1218 -0.2134 -0.0616
 2527W        W18336   6.896   8.807  13.055  0.3085 -0.0075 -0.0217
 2528W        W18337  14.896   2.432   4.031  0.1914 -0.0469  0.0869
 2529W        W18338  12.484   9.706   4.772  0.2553  0.0512 -0.3475
 2530W        W18339  17.260  14.556  11.985  0.1355 -0.0761  0.1288
 2531W        W18340  14.889   5.369  12.309 -0.0782  0.0764  0.0239
 2532W        W18341  18.261  14.622  10.882  0.1543 -0.0758 -0.0708
 2533W        W18342   5.856  12.139  13.530  0.1230 -0.1096 -0.0376
 2534W        W18343   5.804  10.275   4.535 -0.0130  0.0338 -0.2317
 2535W        W18344   9.173   4.599   3.227  0.2110  0.1252 -0.4367
 2536W        W18345  17.531  11.260   1.119  0.1264  0.1119 -0.0162
 2537W        W18346  18.016  13.071  10.612  0.0806 -0.3278  0.0619
 2538W        W18347   3.124   2.413  14.669  0.1260 -0.0374  0.3288
 2539W        W18348  15.917  12.226   4.106  0.0394 -0.1024  0.0628
 2540W        W18349   8.943   0.547   1.217 -0.2401  0.1700  0.2586
 2541W        W18350   1.882   1.180   4.652  0.0482  0.3369  0.0066
 2542W        W18351   7.480   4.338   5.992 -0.0829  0.0211 -0.0565
 2543W        W18352  14.744  13.756   1.942  0.0153 -0.0898  0.4019
 2544W        W18353   1.391   1.076  11.487  0.1018 -0.2323  0.0350
 2545W        W18354   4.116  17.211  13.409  0.0190  0.3102 -0.0187
 2546W        W18355  17.249   4.759   3.117  0.0305  0.4485 -0.0968
 2547W        W18356  11.441   6.467  10.379  0.1652  0.1929  0.2026
 2548W        W18357  14.020  16.189   1.940 -0.2582  0.1897  0.2597
 2549W        W18358   0.342  11.970  14.670 -0.2207 -0.2139  0.1295
 2550W        W18359  12.823   8.813  14.299  0.0893  0.0700  0.0097
 2551W        W18360  10.904   9.092  12.162  0.2065  0.1294 -0.2962
 2552W        W18361  14.555  12.103   2.650 -0.1999 -0.0517 -0.0914
 2553W        W18362   5.413  13.587  10.705  0.0322 -0.2114 -0.0938
 2554W        W18363  14.527  16.251   4.869 -0.0127 -0.1984  0.1773
 2555W        W18364   3.573  14.709   0.478 -0.1007  0.4491 -0.0264
 2556W        W18365  17.370  12.075  13.920  0.0760 -0.0365  0.0463
 2557W        W18366   6.589   8.219  10.299  0.0012 -0.1804 -0.0516
 2558W        W18367   8.038   9.392  11.280 -0.1799  0.1480 -0.2984
 2559W        W18368   0.732   6.195  11.664 -0.1511  0.0334 -0.3508
 2560W        W18369  13.470   2.489  12.664  0.0037  0.2334 -0.6792
 2561W        W18370  13.357   5.389  15.198  0.0555 -0.2836  0.1269
 2562W        W18371   4.502  11.992   3.522 -0.3368  0.2405  0.1085
 2563W        W18372   8.038  11.194   0.453 -0.0823  0.2548 -0.0685
 2564W        W18373  18.347  12.311  15.228  0.1212 -0.3347  0.1274
 2565W        W18374   4.949  12.499  11.483 -0.2412 -0.1014  0.2023
 2566W        W18375  10.613   4.746   4.310 -0.1730 -0.2961 -0.1530
 2567W        W18376   5.459  17.598   2.041 -0.0977  0.3629 -0.0064
 2568W        W18377   1.040  15.172  15.269  0.0390 -0.0601  0.0079
 2569W        W18378   0.970  15.534   4.398 -0.1986 -0.1202  0.2319
 2570W        W18379   4.465   9.503  13.760  0.0327  0.0550 -0.1271
 2571W        W18380   0.905  10.318   4.991  0.0884 -0.2926  0.2960
 2572W        W18381   2.959  16.121  10.731  0.1204  0.2353  0.0644
 2573W        W18382   1.087   0.810   3.155  0.0174 -0.1280 -0.3196
 2574W        W18383   6.909   6.522   3.376 -0.0940 -0.0188  0.0383
 2575W        W18384  15.553  17.731   4.681 -0.0131  0.2020 -0.2164
 2576W        W18385  11.699   4.960  11.389  0.0171  0.3522 -0.0943
 2577W        W18386  18.532   6.935  14.735 -0.1647 -0.2811 -0.2704
 2578W        W18387   9.260  13.056  15.028  0.3378  0.0247  0.0606
 2579W        W18388  18.759   5.655   0.670  0.2881 -0.2231 -0.1279
 2580W        W18389  18.591  10.694   5.338 -0.3056 -0.1632 -0.1230
 2581W        W18390  14.715  11.901   0.789 -0.0427  0.0804  0.5490
 2582W        W18391  13.682   0.809   4.831  0.2484 -0.1492  0.1334
 2583W        W18392  13.716   3.244  11.400 -0.1104 -0.0096 -0.1583
 2584W        W18393   0.687  14.258   4.304 -0.2072  0.1037 -0.1475
 2585W        W18394  13.180  12.168  14.563  0.1787  0.3344  0.0522
 2586W        W18395   2.826   4.903   2.531  0.1859 -0.1256  0.1648
 2587W        W18396  13.395  16.761   6.138 -0.0207 -0.3019 -0.0486
 2588W        W18397   6.406   8.916   4.155  0.0654 -0.0696  0.3081
 2589W        W18398  18.602   2.226  10.971 -0.0216 -0.0056 -0.1593
 2590W        W18399   4.424  12.525   1.672 -0.0648  0.0720  0.2611
 2591W        W18400  10.956   2.301  15.034  0.2252 -0.2359 -0.4228
 2592W        W18401   2.118   8.888  12.896 -0.0278  0.3416 -0.3635
 2593W        W18402  13.947  15.579   0.638 -0.1928 -0.2238 -0.1567
 2594W        W18403  16.846  10.151   3.374 -0.0372 -0.0385  0.0223
 2595W        W18404  11.740  10.476   1.194 -0.1376 -0.1168 -0.1009
 2596W        W18405  14.043   2.192  14.748  0.0601 -0.0072 -0.0761
 2597W        W18406  10.259   8.461   2.885 -0.3067 -0.1071 -0.1715
 2598W        W18407   5.529   7.970   5.171 -0.0433  0.1993 -0.6009
 2599W        W18408  11.047   6.291   1.356  0.1210 -0.1556  0.1365
 2600W        W18409  13.418   0.901   3.030 -0.1682 -0.0351  0.0831
 2601W        W18410   3.697  10.330   2.357 -0.1930  0.0227 -0.0008
 2602W        W18411   5.530   2.860  13.023  0.1154  0.2204 -0.1593
 2603W        W18412   7.176  14.494  13.032 -0.1814 -0.3503 -0.2614
 2604W        W18413  11.029  16.601   4.882 -0.1323  0.2386 -0.0482
 2605W        W18414  10.640  11.792  12.771  0.4673  0.3416 -0.0220
 2606W        W18415  15.058   3.120   2.371 -0.2120  0.0200  0.0861
 2607W        W18416   9.346   1.257   3.980  0.0730  0.0527  0.0139
 2608W        W18417   1.389  18.711   1.997 -0.2123 -0.2241 -0.0525
 2609W        W18418  13.305  17.169  13.214  0.0089 -0.0964 -0.0126
 2610W        W18419   3.321   4.797  14.156  0.0319  0.2940  0.1775
 2611W        W18420  17.300  16.502  14.241  0.0037  0.0819  0.1074
 2612W        W18421  13.964   9.959   5.538 -0.0169  0.0491  0.0111
 2613W        W18422  18.276   0.127   1.903 -0.1824 -0.0928 -0.0503
 2614W        W18423   1.728  13.037  13.994  0.2487 -0.3747 -0.0719
 2615W        W18424  13.417   1.744  15.356 -0.2123  0.1181 -0.0676
 2616W        W18425  18.253   7.517   3.125 -0.2447  0.1585 -0.0355
 2617W        W18426  10.643   5.307  13.021 -0.0539  0.0809  0.0191
 2618W        W18427  15.705   6.182  14.021 -0.0670  0.1619 -0.1519
 2619W        W18428   3.313  18.291  13.111  0.1491 -0.1189  0.1050
 2620W        W18429   3.626   7.704   3.099 -0.1489 -0.1142  0.0069
 2621W        W18430  16.835  10.915  10.119 -0.2680 -0.1298 -0.1461
 2622W        W18431   7.851   7.341   0.841 -0.1843 -0.1022  0.1351
 2623W        W18432   7.803   7.893   3.922 -0.0331  0.0105  0.1307
 2624W        W18433  10.081  11.887  12.836 -0.0166 -0.3002  0.0865
 2625W        W18434   0.419   1.629  15.427  0.1839 -0.1714  0.2084
 2626W        W18435  14.101  18.394   4.262 -0.0830 -0.0251  0.0680
 2627W        W18436   7.995   7.472  13.762  0.4296 -0.0024 -0.3612
 2628W        W18437   5.417  12.249  11.604 -0.0182 -0.3059 -0.0646
 2629W        W18438   4.159  11.346   3.860  0.0621 -0.1502 -0.0699
 2630W        W18439  17.225   1.557   4.859  0.1022  0.1011  0.0627
 2631W        W18440   4.889   6.850  11.017  0.0861 -0.0117 -0.1706
 2632W        W18441  15.489   6.209   4.266 -0.2178 -0.2093  0.2203
 2633W        W18442  17.297  11.374   5.235  0.1611 -0.1178 -0.0821
 2634W        W18443  18.328   8.016   2.633 -0.1659 -0.0206  0.1354
 2635W        W18444  11.929   3.311  13.025 -0.1959 -0.0932 -0.1730
 2636W        W18445  16.382  11.821   9.857  0.0700 -0.0709  0.1079
 2637W        W18446   2.953  10.277  11.676 -0.0428  0.1255  0.1323
 2638W        W18447   8.993   3.530   0.686  0.1796  0.1529  0.0371
 2639W        W18448  14.137   9.381   2.765  0.1489 -0.1265  0.0087
 2640W        W18449  14.602   6.270  11.173  0.0827  0.2311 -0.2520
 2641W        W18450  10.319   1.358  13.703  0.1660  0.2249  0.0984
 2642W        W18451  13.992  15.889   3.850  0.1484  0.2743 -0.2198
 2643W        W18452  18.621  15.854   1.538  0.0162  0.3880 -0.3842
 2644W        W18453   4.638  13.202  13.609  0.3569  0.0563 -0.2634
 2645W        W18454   2.091  11.280  10.969 -0.0002 -0.1879  0.2358
 2646W        W18455  11.588  18.692   2.090 -0.3460  0.1794 -0.2868
 2647W        W18456   3.856   5.311   3.689  0.0151  0.2359 -0.0682
 2648W        W18457   3.993   3.570   0.962  0.3501  0.1699 -0.0182
 2649W        W18458   4.329   0.221  13.742 -0.2271  0.0669  0.0288
 2650W        W18459   4.453   5.543   1.129  0.1510 -0.1318 -0.2571
 2651W        W18460  15.898   0.808   3.063  0.0759 -0.1240 -0.0621
 2652W        W18461  17.070   0.138  11.409  0.1348  0.1140  0.0241
 2653W        W18462  15.109   4.729   0.190  0.0652  0.2345  0.1397
 2654W        W18463  10.395   7.235  13.100 -0.1875  0.1055 -0.0294
 2655W        W18464   5.354  17.705  12.892 -0.0309  0.1397  0.2167
 2656W        W18465  18.224   4.347   2.508  0.0358 -0.1557  0.1100
 2657W        W18466  11.438   4.673  14.476  0.0928  0.0639 -0.3120
 2658W        W18467   9.400  12.112  11.608 -0.2116  0.0354  0.0146
 2659W        W18468  15.280   9.452   1.128 -0.1542  0.0160 -0.0436
 2660W        W18469  17.734   4.983   3.510 -0.3491 -0.2437 -0.0711
 2661W        W18470  11.472   8.204   5.623 -0.0044  0.0067  0.0638
 2662W        W18471   3.102   1.708  10.734  0.1232 -0.2698  0.1538
 2663W        W18472   1.728   9.553  14.334 -0.1225 -0.0540  0.2509
 2664W        W18473  17.607   8.634   9.360 -0.3649  0.2091 -0.3590
 2665W        W18474   8.994  10.319   3.539 -0.3242 -0.1404 -0.0354
 2666W        W18475   6.095  17.557   0.101 -0.1781  0.0932 -0.0201
 2667W        W18476  10.619  12.100   1.329 -0.2882 -0.2518  0.0964
 2668W        W18477  16.582  11.456  10.967 -0.0780  0.0056 -0.2455
 2669W        W18478   4.608  12.921  15.300 -0.6028 -0.0589  0.1079
 2670W        W18479  10.204   6.718   1.490 -0.2245 -0.0447  0.2741
 2671W        W18480   8.313   7.765   4.701 -0.0403 -0.1884  0.1449
 2672W        W18481  11.978   9.511   0.244  0.1838  0.0237  0.2801
 2673W        W18482  12.355  17.592  11.803 -0.0298  0.1968 -0.0984
 2674W        W18483   3.126   9.390  13.609 -0.0572  0.0758 -0.3848
 2675W        W18484   4.818  13.974   1.865  0.4996  0.2108 -0.4394
 2676W        W18485  12.277   1.668  14.420 -0.1225  0.0506 -0.0983
 2677W        W18486  11.288  16.928   1.172  0.1566  0.0817  0.0006
 2678W        W18487  16.472  11.314  12.069 -0.1176  0.0246 -0.1351
 2679W        W18488   3.843  12.451  15.259 -0.0995 -0.0804 -0.1345
 2680W        W18489   8.988   7.492  14.253  0.1546  0.0187  0.1663
 2681W        W18490   9.541   5.458  13.584 -0.1510 -0.1414  0.4886
 2682W        W18491  16.544   8.810  14.594  0.2658  0.2532  0.0200
 2683W        W18492   1.276  16.995   2.656  0.0830  0.0423  0.0829
 2684W        W18493  15.451   8.831   2.768 -0.1016 -0.1531 -0.1734
 2685W        W18494  16.130   5.037   3.109  0.0296  0.0994  0.1058
 2686W        W18495  11.792   0.189   3.009  0.1107  0.2359  0.0151
 2687W        W18496   4.548   3.723   2.540  0.0239 -0.1291 -0.2719
 2688W        W18497  16.681   4.851  14.565 -0.1990  0.0598  0.0280
 2689W        W18498  12.913  17.302  15.233  0.2866  0.1965  0.1070
 2690W        W18499  17.067  10.662   5.295 -0.1226 -0.0588  0.2430
 2691W        W18500  11.242   0.304  10.906 -0.2797 -0.0198 -0.2250
 2692W        W18501   1.987   9.661   1.662 -0.2253 -0.1441 -0.0052
 2693W        W18502   1.787   0.285  11.206  0.5410 -0.2982  0.0604
 2694W        W18503   7.586   9.241  15.154  0.1264  0.1667  0.3331
 2695W        W18504   9.091   4.704  11.101 -0.0251  0.1786 -0.0606
 2696W        W18505   0.358  15.021   9.792 -0.1188 -0.1514 -0.0426
 2697W        W18506   7.466   6.876   1.042 -0.0175  0.3576 -0.2157
 2698W        W18507  16.326   5.864   2.690 -0.1341  0.0041  0.0556
 2699W        W18508  13.908   1.754   4.970 -0.2011  0.1756  0.3059
 2700W        W18509  16.012   1.667   3.417  0.0530  0.3516 -0.0223
 2701W        W18510  12.736  14.212  12.672 -0.1495 -0.1002 -0.2018
 2702W        W18511  16.391  16.863  11.963 -0.0564  0.1566 -0.0186
 2703W        W18512   3.321   0.304  11.462 -0.2329 -0.1952  0.1765
 2704W        W18513  12.505   4.826   3.263 -0.3068  0.3850 -0.2476
 2705W        W18514  11.279  12.483   3.087  0.3885  0.0061  0.1638
 2706W        W18515   7.659  15.542  11.719 -0.0538 -0.3204  0.0209
 2707W        W18516   2.125   2.053  13.275 -0.0467  0.1241 -0.1431
 2708W        W18517   1.872  10.632  15.477 -0.0086  0.3259 -0.0010
 2709W        W18518   1.574   9.340   1.706 -0.1736  0.1933 -0.0563
 2710W        W18519   6.149   6.225   4.487  0.1205  0.1558  0.3511
 2711W        W18520   8.344  10.538  14.359  0.0089  0.1702  0.1713
 2712W        W18521  15.233   3.025   0.491  0.1142 -0.0497 -0.1978
 2713W        W18522  11.047   5.228   2.245 -0.0447 -0.0568  0.0147
 2714W        W18523  15.131  16.836  11.639 -0.1392  0.0798 -0.2202
 2715W        W18524   5.220  17.494  15.419 -0.3042 -0.0731 -0.0852
 2716W        W18525   8.195  15.730  10.912  0.0123 -0.3158  0.1160
 2717W        W18526   9.163  13.832   3.662 -0.1621 -0.2294 -0.2787
 2718W        W18527   1.582   6.249  11.403  0.2571 -0.1358 -0.3393
 2719W        W18528  10.269  13.039  10.943  0.1648  0.1781  0.1094
 2720W        W18529   1.597   2.865   0.291 -0.1459  0.1012 -0.2085
 2721W        W18530  15.418  10.722  10.163 -0.2244  0.1553 -0.0002
 2722W        W18531   2.246   5.269  15.176  0.0816 -0.1031  0.0709
 2723W        W18532  12.199   6.198  13.305 -0.0670 -0.0047 -0.1087
 2724W        W18533   9.570  17.186  14.236 -0.0338  0.1016 -0.1546
 2725W        W18534   0.589  18.468   3.474  0.1107 -0.1341  0.2967
 2726W        W18535  18.764   6.428  13.369  0.1443 -0.0140 -0.2844
 2727W        W18536   7.741   7.354   3.317 -0.0935 -0.1769  0.1959
 2728W        W18537   9.220   9.325   1.380  0.3490  0.2024 -0.1205
 2729W        W18538  15.475   7.197  12.026 -0.0071  0.0923  0.1027
 2730W        W18539   4.502   3.220  14.628  0.1909  0.0089 -0.0434
 2731W        W18540  12.341   8.606  13.665  0.3300  0.0716  0.2882
 2732W        W18541   7.513   7.914  12.229 -0.1634  0.1311 -0.1084
 2733W        W18542   2.261   2.965  13.541  0.0445  0.0959  0.0423
 2734W        W18543  10.909   4.505   2.353 -0.1362 -0.2062  0.1196
 2735W        W18544  12.260   7.847  12.122  0.1192  0.0650  0.1714
 2736W        W18545   0.737  17.171  11.951 -0.1962  0.0354  0.0908
 2737W        W18546  10.482  16.818   3.872  0.1281 -0.1674  0.0433
 2738W        W18547  17.423   2.480   1.425 -0.1745  0.1621 -0.1195
 2739W        W18548  13.173  11.513  12.020 -0.0057 -0.0962  0.1951
 2740W        W18549   3.144   7.875   2.265  0.0605 -0.1029 -0.2771
 2741W        W18550   7.920   9.745   0.445 -0.0204 -0.1476 -0.0151
 2742W        W18551   7.872   3.432  13.870 -0.0161 -0.2120  0.1921
 2743W        W18552  13.899   8.701  12.464  0.1579  0.0427 -0.2048
 2744W        W18553   1.852   5.311  10.567 -0.0989 -0.0623 -0.1248
 2745W        W18554   4.661   4.518  13.599 -0.0330  0.0276  0.3266
 2746W        W18555  12.461   0.937   3.334  0.2946 -0.2545 -0.0854
 2747W        W18556  12.358   5.025  13.291 -0.0262  0.1055 -0.0693
 2748W        W18557   9.296   8.134  12.179 -0.0549 -0.0089 -0.0706
 2749W        W18558   9.821   9.283   0.161  0.0968  0.1518  0.1984
 2750W        W18559   6.649  14.026   1.061  0.1866  0.1980  0.0204
 2751W        W18560  13.845  13.751   4.053 -0.2287 -0.0485 -0.1832
 2752W        W18561   9.500   5.124   1.162  0.1148 -0.0101 -0.2272
 2753W        W18562   2.575  16.782  15.496  0.3324 -0.0570  0.0204
 2754W        W18563  11.879   3.015   5.651 -0.3736 -0.0884  0.1933
 2755W        W18564   0.616   6.101  14.494  0.0058 -0.0593  0.2524
 2756W        W18565  11.527   1.224  13.641 -0.0443  0.1514 -0.0625
 2757W        W18566   3.815  17.952  12.867  0.1641  0.1145  0.1515
 2758W        W18567   5.738  14.880   1.489 -0.1472 -0.2860 -0.1077
 2759W        W18568   0.323   9.639  14.471  0.1283  0.2355 -0.0202
 2760W        W18569   8.518  18.645  11.683  0.0229 -0.0414 -0.0905
 2761W        W18570   7.039  12.719  14.494  0.3111 -0.2177  0.0803
 2762W        W18571  16.812  15.123   2.588  0.1062  0.1283  0.1424
 2763W        W18572   9.369   9.028   2.746 -0.2801 -0.2442  0.0083
 2764W        W18573  11.884   3.631   5.079  0.2028 -0.1440  0.0602
 2765W        W18574  13.887  17.193  14.456 -0.0520  0.1122 -0.3056
 2766W        W18575  12.153   1.776   2.154  0.0988  0.0042 -0.0986
 2767W        W18576   7.335   5.945  12.540 -0.0481  0.1446  0.0721
 2768W        W18577  12.464  17.128   0.649 -0.2004  0.0960 -0.1193
 2769W        W18578  13.402   3.209   1.963  0.1533  0.1476  0.0052
 2770W        W18579  17.913   4.377   0.748  0.0617  0.1062  0.1385
 2771W        W18580   9.127   8.643  14.610 -0.5158  0.1476  0.2908
 2772W        W18581   6.271  15.671  14.396  0.0855  0.1744  0.0905
 2773W        W18582  18.635   9.310   3.456 -0.0262 -0.1586 -0.0525
 2774W        W18583   4.009  13.264   0.069 -0.1832 -0.0736 -0.2276
 2775W        W18584  10.691   3.541   3.689 -0.2390 -0.0750 -0.1375
 2776W        W18585   0.524  14.399  14.791 -0.0635  0.1597  0.0941
 2777W        W18586   3.585  12.046   5.704  0.2154 -0.0175 -0.0098
 2778W        W18587   4.673   1.925  11.565 -0.0510  0.0267  0.1204
 2779W        W18588   1.092  18.492  11.891 -0.0956  0.1170 -0.4539
 2780W        W18589  12.285  13.197  14.479 -0.0448  0.0913  0.2999
 2781W        W18590   6.460   0.655  10.654  0.1169  0.3041  0.1797
 2782W        W18591  18.043   6.502  12.051  0.0681 -0.0646 -0.3310
 2783W        W18592  14.304   6.717  14.232 -0.2218 -0.2765 -0.0007
 2784W        W18593  18.513   9.240   5.052 -0.3880  0.0934 -0.2475
 2785W        W18594  13.584  18.766   5.535 -0.1602  0.2062  0.0560
 2786W        W18595   2.197   6.661   1.829  0.0864 -0.0515  0.0386
 2787W        W18596  18.569  18.389   2.177  0.1344 -0.2659  0.0321
 2788W        W18597   2.822   1.183   4.799  0.0880 -0.1272  0.0901
 2789W        W18598   5.238  14.161  14.072  0.0948  0.0658  0.2586
 2790W        W18599   9.355  14.088  10.819  0.0093  0.1229 -0.1805
 2791W        W18600   5.239   2.297   3.149 -0.0055  0.0673 -0.1814
 2792W        W18601   0.110   9.768   3.470  0.1682  0.2865 -0.3233
 2793W        W18602  17.769   8.501   1.861 -0.0308  0.3815  0.1562
 2794W        W18603   2.058   2.863   3.174  0.0418  0.1575 -0.1167
 2795W        W18604   8.174  13.824  11.210  0.2910 -0.0595 -0.0792
 2796W        W18605  18.026   1.203   0.611 -0.3495 -0.0576  0.0346
 2797W        W18606   4.568   8.173  14.731  0.3088 -0.0171 -0.0122
 2798W        W18607  13.484  11.765   3.797  0.0995  0.1393  0.1488
 2799W        W18608   0.791   6.809  11.795 -0.1588  0.4418  0.1336
 2800W        W18609  11.702  12.010   5.809 -0.6241  0.0644 -0.1866
 2801W        W18610   3.658  18.035  13.433  0.1550 -0.3600  0.0823
 2802W        W18611  14.003   4.451  10.123 -0.1434  0.4619 -0.0206
 2803W        W18612  10.168  15.735   5.452  0.2194  0.1013 -0.1953
 2804W        W18613   1.034   4.227  11.395 -0.2589 -0.4509  0.0917
 2805W        W18614  18.208   4.527   2.971  0.0874  0.0103  0.0687
 2806W        W18615   6.954   7.427   4.044  0.2099 -0.0860  0.0419
 2807W        W18616   7.832  15.938   0.592  0.2598  0.0424 -0.0947
 2808W        W18617  16.080   2.294  11.694  0.4163  0.0242 -0.1336
 2809W        W18618  17.595  18.008  12.696  0.1844  0.2191  0.0013
 2810W        W18619  13.007   4.226  14.733  0.1680 -0.0920  0.1624
 2811W        W18620  11.466   9.830   1.576 -0.0248 -0.0305 -0.0055
 2812W        W18621   9.817  12.855   3.584  0.4452  0.1008 -0.2237
 2813W        W18622  11.198   9.350  15.355 -0.0295 -0.1218 -0.1618
 2814W        W18623  14.124   8.306   4.994  0.2801  0.0437  0.1111
 2815W        W18624   4.003  11.878  15.335  0.0264 -0.1242 -0.0878
 2816W        W18625  15.750   8.395  15.335  0.2416 -0.0084  0.3161
 2817W        W18626  10.961  10.223   0.948 -0.0208  0.0456  0.4594
 2818W        W18627  17.649  12.120   4.472  0.3265 -0.0735  0.0671
 2819W        W18628  13.640  11.517  12.493 -0.0328  0.0745  0.0959
 2820W        W18629  15.076   7.417  14.605 -0.1029 -0.0174  0.0144
 2821W        W18630  11.297  11.998  12.409  0.4468  0.0548  0.0827
 2822W        W18631   2.591  16.696   3.609 -0.0782  0.1218 -0.0627
 2823W        W18632   2.078  15.017   5.015  0.0425  0.0728  0.0526
 2824W        W18633  17.534  18.261  10.914 -0.3196 -0.1346 -0.1671
 2825W        W18634   6.976   6.368   2.046 -0.3422 -0.2424 -0.0178
 2826W        W18635  11.986   5.861  11.552  0.0892 -0.0676  0.1799
 2827W        W18636   9.736  11.468  15.441 -0.1300 -0.2823  0.0160
 2828W        W18637   5.919   1.337   3.963  0.0724  0.0905  0.1399
 2829W        W18638  16.621   6.303  12.018  0.0393 -0.0543  0.3140
 2830W        W18639  14.466  11.096   1.824 -0.2558  0.3296 -0.3527
 2831W        W18640   1.821   7.018   3.256  0.2326  0.0887 -0.0204
 2832W        W18641   1.621  14.855   2.853 -0.1533 -0.1910  0.2131
 2833W        W18642  15.581   7.506   0.252  0.0173 -0.1733  0.2243
 2834W        W18643   1.030  13.152   4.108 -0.4312 -0.0198 -0.1225
 2835W        W18644   2.712   2.080  13.953  0.2364  0.0913 -0.1711
 2836W        W18645   3.274   7.496  12.032 -0.1291  0.1005  0.1854
 2837W        W18646  10.216   6.597   3.284 -0.0988  0.2586  0.0994
 2838W        W18647  17.835   1.909  11.374  0.0336 -0.0129 -0.0423
 2839W        W18648  10.709   3.043  11.001 -0.0590 -0.2736 -0.1240
 2840W        W18649   6.944  11.395  13.503  0.1616 -0.0789  0.0822
 2841W        W18650  13.977   8.676  10.719 -0.0476  0.0598  0.0359
 2842W        W18651  14.469  15.554  10.919 -0.2699 -0.0966 -0.1459
 2843W        W18652  17.444  15.274   2.560 -0.1812  0.1395 -0.1450
 2844W        W18653   0.063  15.268  10.588  0.1067 -0.2106  0.5707
 2845W        W18654  10.346   0.271  12.609  0.2513 -0.0167 -0.0422
 2846W        W18655  13.019   7.105  14.094 -0.1179 -0.1007 -0.2455
 2847W        W18656   3.379   2.653  11.633  0.0292  0.0418 -0.2112
 2848W        W18657  12.112   0.215   0.590 -0.0091  0.5343 -0.1581
 2849W        W18658  17.240  10.447   3.833  0.0538  0.1800  0.0878
 2850W        W18659  17.937  13.850  14.009 -0.0650 -0.2210 -0.1669
 2851W        W18660  13.995   7.334   4.741 -0.0573 -0.0867  0.2070
 2852W        W18661  15.886  16.234   5.039  0.1418 -0.1537 -0.0363
 2853W        W18662   0.620   6.169  13.990 -0.1328  0.0230  0.1151
 2854W        W18663  12.382   1.942  13.708  0.3878 -0.3873  0.1435
 2855W        W18664   8.185   8.409  11.466 -0.1064 -0.0852 -0.0231
 2856W        W18665   9.837   6.915  14.292  0.2516  0.0093 -0.0883
 2857W        W18666   9.778   7.069   2.152 -0.0079 -0.0560  0.1780
 2858W        W18667   4.023   2.223  10.430  0.0195 -0.3508  0.1300
 2859W        W18668   4.334  11.443  11.949  0.0813 -0.0525  0.0797
 2860W        W18669   6.679   9.184  11.062 -0.0313  0.1146 -0.0898
 2861W        W18670   8.878  15.910  14.083 -0.0410  0.1182  0.1131
 2862W        W18671  14.183  14.205  13.743 -0.2273  0.1192 -0.2116
 2863W        W18672   6.143  11.996  11.019  0.2003 -0.0421  0.1677
 2864W        W18673  14.258  17.569   0.467 -0.0701 -0.1174  0.1012
 2865W        W18674  12.540   5.306  12.405 -0.0116  0.0835 -0.2210
 2866W        W18675   5.000  16.504  12.039 -0.0052 -0.1754  0.1022
 2867W        W18676  11.226  14.990  11.794  0.3856 -0.2977 -0.0924
 2868W        W18677  16.112  15.528  14.538  0.0715 -0.4159 -0.0644
 2869W        W18678  11.751   4.584  13.669 -0.0540  0.2255 -0.1992
 2870W        W18679  17.729   1.574  13.901  0.0674 -0.0180 -0.1337
 2871W        W18680   5.504   1.122  10.394  0.1421 -0.1397 -0.0543
 2872W        W18681  18.233   9.094  11.808 -0.0828 -0.0641  0.0149
 2873W        W18682   0.437   0.171   3.547  0.4171 -0.0913 -0.0656
 2874W        W18683  16.373   1.127   0.189  0.2717 -0.0385 -0.0374
 2875W        W18684   0.683   6.771   5.282  0.1679  0.2737 -0.0454
 2876W        W18685   6.388  10.113  13.915 -0.2909  0.2820  0.4461
 2877W        W18686   0.462   8.461   4.728 -0.1348 -0.1050 -0.3242
 2878W        W18687   5.414  10.258   2.274 -0.2745  0.2345 -0.1745
 2879W        W18688  10.983  10.735   3.722  0.0586  0.2386  0.4553
 2880W        W18689   0.749  16.047   4.543  0.0675 -0.2246 -0.1834
 2881W        W18690   0.824  17.178   2.605 -0.4453 -0.1264 -0.4259
 2882W        W18691   0.634  15.343  10.635 -0.0749 -0.4039 -0.1430
 2883W        W18692   7.059  10.478  15.040 -0.2483 -0.1205  0.0017
 2884W        W18693   3.041  13.955   2.166  0.2086  0.1886 -0.1669
 2885W        W18694   7.409   6.480   4.186  0.0276 -0.3803  0.0927
 2886W        W18695  15.247   3.726   1.601 -0.1035  0.3189  0.0818
 2887W        W18696   1.270   3.221   4.168 -0.1244 -0.1719 -0.0920
 2888W        W18697   8.799   8.490  14.261  0.3814 -0.2504 -0.1127
 2889W        W18698   2.140  11.471  11.877  0.0657 -0.1189 -0.0963
 2890W        W18699  11.674  10.577  10.626  0.2761 -0.1992  0.1443
 2891W        W18700   0.986   2.461  13.297 -0.1495 -0.1222 -0.0263
 2892W        W18701   3.966   7.271   0.197 -0.0415  0.0439 -0.2486
 2893W        W18702   8.294   5.858  12.612 -0.1269  0.1589 -0.0707
 2894W        W18703  17.778   1.582   5.907  0.0588 -0.0028 -0.0146
 2895W        W18704  16.642  15.623   1.952 -0.1716 -0.1056  0.1213
 2896W        W18705   3.175  17.502   0.892  0.0862  0.1218  0.2540
 2897W        W18706   4.365  11.494   1.395  0.1260 -0.0794  0.1251
 2898W        W18707  13.951   0.177   2.407  0.1464 -0.1351 -0.0187
 2899W        W18708  15.678   0.356   3.788  0.0870 -0.0548 -0.0340
 2900W        W18709   9.318   2.695   4.610 -0.1186  0.2509  0.1392
 2901W        W18710  12.874   1.979   5.366  0.0115 -0.0041  0.0702
 2902W        W18711  15.091  14.089  15.138  0.3333 -0.2384 -0.0251
 2903W        W18712   0.448   4.013   2.206 -0.3057 -0.1970 -0.2013
 2904W        W18713   0.642   0.364  10.342  0.0231 -0.2599  0.1248
 2905W        W18714   2.070  15.344   1.231  0.1930 -0.2978 -0.0950
 2906W        W18715   0.030  15.509   5.313  0.1666  0.1671  0.0403
 2907W        W18716   4.426   9.610  10.086  0.0254 -0.0239 -0.1066
 2908W        W18717  15.248   5.050  13.825 -0.3285 -0.1241 -0.3785
 2909W        W18718  17.736   0.677  11.364  0.1146  0.0496  0.0810
 2910W        W18719  14.564  15.547   0.563 -0.1363  0.3263  0.0443
 2911W        W18720  14.014   7.028   3.070  0.0508 -0.1432 -0.0882
 2912W        W18721  14.604   7.913  13.096  0.0290  0.0677 -0.3554
 2913W        W18722   6.099  16.391  12.509 -0.2068  0.0265  0.1226
 2914W        W18723  18.121  12.053   3.520  0.3311  0.0028  0.0889
 2915W        W18724   9.085  16.489   0.900  0.1335 -0.1813 -0.1432
 2916W        W18725   4.887   4.611   3.441  0.0360 -0.2781 -0.0092
 2917W        W18726   8.139   8.799   2.114  0.0946  0.1000  0.3616
 2918W        W18727   9.757   1.089   4.285  0.2685 -0.1248  0.3194
 2919W        W18728  16.973  12.566   9.433  0.1515 -0.2950 -0.0255
 2920W        W18729  10.740  11.699   0.639 -0.0453 -0.1316 -0.1233
 2921W        W18730   1.400   1.590   1.893 -0.0434  0.1727 -0.2263
 2922W        W18731   7.484   4.612  12.363 -0.1509 -0.0482 -0.1279
 2923W        W18732   4.334   2.867   4.307  0.3570  0.0674  0.2372
 2924W        W18733   9.885   4.343  11.267 -0.0987 -0.0537 -0.1996
 2925W        W18734   7.728   1.579  13.269 -0.2102 -0.0674 -0.2628
 2926W        W18735  13.380  14.704  11.327  0.1449 -0.3970 -0.0916
 2927W        W18736  16.002  13.014  14.381  0.1847  0.4126  0.2305
 2928W        W18737  14.935   6.303  13.436 -0.0384  0.3427  0.0951
 2929W        W18738   0.849  11.430   5.056  0.0785 -0.0848  0.4753
 2930W        W18739   3.019  14.602  12.094  0.2453  0.0478 -0.2935
 2931W        W18740  17.047  11.638   1.878 -0.0151 -0.1202 -0.1688
 2932W        W18741   7.545  15.104  14.835  0.1314 -0.0610  0.1695
 2933W        W18742  12.761  18.150   1.991  0.0550 -0.2403  0.1948
 2934W        W18743   9.146  17.799   2.931  0.0323  0.2315 -0.1690
 2935W        W18744  16.895   7.687   2.607  0.1649  0.0276  0.1315
 2936W        W18745  13.422   2.900   1.538 -0.2301 -0.2105  0.0856
 2937W        W18746  15.307   7.316   2.748 -0.1945  0.3273 -0.0912
 2938W        W18747  12.708   1.997  11.757  0.2261 -0.1468 -0.0280
 2939W        W18748  15.072  16.249  15.411  0.0639 -0.0894 -0.4913
 2940W        W18749   4.752   3.986  12.843 -0.1083  0.1583  0.0138
 2941W        W18750   7.688   9.368  14.164 -0.0044  0.0222 -0.0243
 2942W        W18751  10.594   3.708  14.883 -0.0528 -0.0321 -0.0339
 2943W        W18752  14.447  11.053  14.731  0.2302 -0.1605 -0.2804
 2944W        W18753  12.659  15.137  11.646 -0.3097 -0.1852 -0.1297
 2945W        W18754   1.811  11.997   3.677  0.0458 -0.1669 -0.1679
 2946W        W18755  11.966  12.788  11.089  0.0591 -0.0320  0.2793
 2947W        W18756   0.522   6.259   3.857  0.0488  0.2367  0.2229
 2948W        W18757  12.988   3.963   1.083  0.0544  0.0170  0.0006
 2949W        W18758   0.635   9.909  15.038  0.1511  0.1726  0.4429
 2950W        W18759   7.328  11.390   5.592 -0.2487  0.3164  0.0639
 2951W        W18760   5.658  13.612  15.212  0.2581 -0.0125 -0.2586
 2952W        W18761   7.858   1.972   0.165 -0.4224  0.2765  0.1969
 2953W        W18762   1.003   7.266   3.097 -0.1206  0.1773  0.1078
 2954W        W18763   7.287  12.594   3.428 -0.2600  0.2993  0.1692
 2955W        W18764  14.778   4.285   5.455 -0.1323  0.0519 -0.4971
 2956W        W18765   8.728   6.566   1.349  0.2775 -0.0615  0.1649
 2957W        W18766   7.738   2.291  12.694  0.2635  0.2190  0.1338
 2958W        W18767   9.020  18.133   2.089 -0.2735 -0.1399 -0.1143
 2959W        W18768  15.666  10.126  12.633  0.0300  0.1428 -0.2873
 2960W        W18769   1.854   4.278  11.320  0.1362  0.0014  0.1351
 2961W        W18770   6.595   2.151   0.026  0.0630 -0.0475 -0.1615
 2962W        W18771   9.748  16.983   4.840  0.2363 -0.1051 -0.3755
 2963W        W18772  17.812  11.526   5.048  0.0554 -0.1042  0.2501
 2964W        W18773  14.696  15.863  12.626  0.3997  0.0849 -0.3529
 2965W        W18774   5.332   2.615   3.939  0.2329  0.0458  0.0153
 2966W        W18775  14.271  16.300   0.158  0.0859 -0.0913  0.1159
 2967W        W18776  14.432   0.492  13.799 -0.1592  0.2149 -0.1403
 2968W        W18777  12.035  17.776  10.892  0.0046  0.0290 -0.0596
 2969W        W18778  14.776  10.932   3.351 -0.0375  0.2163  0.0339
 2970W        W18779   6.991  12.278  12.380  0.0699 -0.0676 -0.0479
 2971W        W18780  12.029   6.584  14.209  0.2458 -0.1010  0.2239
 2972W        W18781  16.114   7.394   3.651  0.0970 -0.0230 -0.1097
 2973W        W18782   7.742   8.512  12.361  0.0467  0.3234  0.0483
 2974W        W18783   5.037   1.101  13.072 -0.0362 -0.2381  0.2673
 2975W        W18784   1.688  18.555   3.042  0.0365 -0.3864 -0.1106
 2976W        W18785  12.013   2.446  14.059  0.1217 -0.2595  0.0728
 2977W        W18786  12.461   4.677  11.873 -0.0091  0.2772 -0.0693
 2978W        W18787  16.976  13.536   3.550 -0.0477  0.1179  0.0380
 2979W        W18788   9.108  14.920  12.570 -0.0099  0.2940  0.0110
 2980W        W18789  13.629   2.642  11.228 -0.2162 -0.0142  0.2096
 2981W        W18790   0.374   1.338   3.466 -0.0492 -0.1346  0.2373
 2982W        W18791   7.566   3.233  11.996 -0.1426  0.1054 -0.0777
 2983W        W18792  14.424  16.533  15.284  0.1148  0.1815 -0.1066
 2984W        W18793  13.854   6.116   0.015  0.0086  0.0308 -0.1855
 2985W        W18794  10.872   8.706   2.622 -0.0412  0.0007  0.3693
 2986W        W18795  18.610   2.184   1.410  0.2280 -0.2389  0.2240
 2987W        W18796  11.310   2.567  11.677 -0.0757 -0.0319 -0.2939
 2988W        W18797   2.296   6.014  13.202  0.0366  0.0362 -0.2428
 2989W        W18798   2.197  18.002  15.350 -0.0511  0.0757  0.4038
 2990W        W18799   2.658   9.727  12.874 -0.0348 -0.2163 -0.2695
 2991W        W18800  14.045  15.735  12.382 -0.0946 -0.2594 -0.0235
 2992W        W18801  11.376   4.000  11.970 -0.2408  0.0166  0.2069
 2993W        W18802  16.176  10.545  13.417  0.3804  0.4421 -0.0249
 2994W        W18803  13.724  13.820  11.739  0.0427 -0.1207 -0.0348
 2995W        W18804  18.377   7.345  13.722 -0.1699 -0.0234 -0.2641
 2996W        W18805   1.192   3.520   2.289  0.0509 -0.2105  0.0894
 2997W        W18806  12.962   2.621  13.878 -0.1729 -0.0266  0.1274
 2998W        W18807   2.420   5.837  12.006  0.1092 -0.2031  0.0803
 2999W        W18808  17.846   7.383  15.043  0.0865 -0.0511 -0.2403
 3000W        W18809  14.589   0.546  14.738  0.2810  0.0198 -0.1488
 3001W        W18810   6.189   0.510   4.845  0.1268 -0.1379  0.0737
 3002W        W18811   8.875   6.673   0.065  0.0712 -0.1055  0.2940
 3003W        W18812  12.019  18.023  12.396 -0.0200 -0.0421  0.0383
 3004W        W18813   5.896   9.836   3.496 -0.2942  0.0620 -0.1874
 3005W        W18814   5.744   3.188  11.656  0.0839  0.0946  0.0800
 3006W        W18815   0.307   9.083   4.204 -0.1130 -0.0909  0.3281
 3007W        W18816  13.066  10.920  15.300  0.3359  0.1642  0.0080
 3008W        W18817  16.118   7.383   2.005  0.1331 -0.2199  0.0390
 3009W        W18818   9.413  11.367  13.145 -0.0144 -0.1145  0.0377
 3010W        W18819  17.855  14.938  12.518  0.0342 -0.1778  0.1187
 3011W        W18820   6.580  10.454  13.654  0.0321  0.1880  0.1768
 3012W        W18821   4.396  11.704  14.698 -0.2616  0.0741  0.1097
 3013W        W18822   5.401  12.449  14.714 -0.1802  0.1725  0.3467
 3014W        W18823   3.655   0.425  14.239 -0.1123  0.1879  0.1355
 3015W        W18824  10.295   3.833   1.145 -0.0913  0.0530 -0.3211
 3016W        W18825  15.989   7.053   4.288 -0.2051 -0.1731  0.2060
 3017W        W18826  13.438  10.974  14.417 -0.4297 -0.0969  0.0315
 3018W        W18827  14.101   6.954  14.649 -0.2661 -0.0375  0.1165
 3019W        W18828   6.670  13.363  13.210 -0.4612  0.1484  0.2138
 3020W        W18829  10.542   0.716   3.350 -0.0004  0.2892  0.0225
 3021W        W18830   4.637   2.587   9.805  0.0027 -0.2655  0.2135
 3022W        W18831  12.522   8.054   5.412 -0.0180  0.3407  0.1606
 3023W        W18832  11.062  17.091  13.819 -0.0761  0.1845  0.4329
 3024W        W18833   9.755  14.549   4.865 -0.1080 -0.0352  0.1632
 3025W        W18834  11.773   8.243   2.344 -0.1675  0.3246  0.2971
 3026W        W18835   4.415   1.066   2.766  0.2099 -0.1715 -0.2918
 3027W        W18836   7.610  14.510  12.339 -0.3026  0.1684  0.0709
 3028W        W18837   9.103  17.836   1.642  0.2137  0.0881 -0.1722
 3029W        W18838   7.200  16.023   0.967  0.4486 -0.0420 -0.0239
 3030W        W18839  17.943  18.000   4.539  0.1551  0.1224  0.0141
 3031W        W18840   4.408   8.957  13.704 -0.2111  0.2531  0.0802
 3032W        W18841   7.669  14.720  13.100  0.5401 -0.2044  0.0489
 3033W        W18842   9.625   4.895  11.053  0.1031 -0.0366 -0.3437
 3034W        W18843   6.000  10.889  11.334  0.0360 -0.1993  0.4805
 3035W        W18844   7.926  11.413  15.499 -0.0056  0.0723 -0.0056
 3036W        W18845   5.306  14.308  13.358 -0.1540  0.3627 -0.4310
 3037W        W18846  11.671   8.358   5.130  0.1129  0.3432 -0.1225
 3038W        W18847  14.987  12.313   1.058 -0.0276  0.1619 -0.1893
 3039W        W18848  16.246   7.440  12.308  0.1267  0.0117  0.0005
 3040W        W18849   4.556   1.768   3.626 -0.1131 -0.0688 -0.1299
 3041W        W18850  17.047   6.318   4.575 -0.2480  0.0471  0.0321
 3042W        W18851   9.994   2.198  14.954 -0.2510 -0.1424 -0.0654
 3043W        W18852   4.098   8.496   0.695  0.1467 -0.1112  0.1072
 3044W        W18853   8.076  10.145  14.162  0.1967 -0.0337 -0.3481
 3045W        W18854   3.926   9.727   1.015  0.1099 -0.1489 -0.2042
 3046W        W18855   6.353   0.624  15.511 -0.4445  0.4539  0.0817
 3047W        W18856   9.321  16.959   1.824 -0.0041  0.2332 -0.2577
 3048W        W18857   7.030  14.354   2.069 -0.0238 -0.0186 -0.4371
 3049W        W18858   7.827  18.114   1.702 -0.0183 -0.1627  0.0213
 3050W        W18859   5.434   3.830   3.489 -0.0017  0.1042  0.1843
 3051W        W18860  16.505   1.916  11.883 -0.1765  0.1807 -0.0283
 3052W        W18861   9.482   8.723  15.044  0.2410 -0.1665 -0.0834
 3053W        W18862  11.095   9.836  14.925  0.1624 -0.0199  0.4526
 3054W        W18863  15.250  16.383  11.336 -0.0290 -0.0390  0.1797
 3055W        W18864  14.866   1.764  11.984  0.1002 -0.1772 -0.0769
 3056W        W18865   7.637   6.574   0.412 -0.2292 -0.2098  0.0502
 3057W        W18866  13.363  12.056  13.423  0.1577  0.0848 -0.0770
 3058W        W18867  11.674  15.631  14.932 -0.2006 -0.1318  0.1461
 3059W        W18868  17.521   0.463  14.998  0.1700  0.2272  0.0338
 3060W        W18869   0.890  15.390   1.025 -0.0636 -0.0526  0.3588
 3061W        W18870   4.502  15.138   4.294 -0.1687 -0.4595  0.0036
 3062W        W18871   2.143   3.027  15.192 -0.0518 -0.1972  0.0547
 3063W        W18872   2.828   0.528   3.106 -0.1050  0.0776 -0.0519
 3064W        W18873   7.848  18.097  12.419  0.0615 -0.0890  0.0476
 3065W        W18874   6.289   5.897   3.646  0.1404 -0.1177  0.0605
 3066W        W18875  17.034  11.387  15.018  0.0593  0.0930  0.0951
 3067W        W18876   5.645  16.745   4.529 -0.2582  0.1369  0.3536
 3068W        W18877  12.642  10.442  12.725  0.1399  0.0222 -0.0296
 3069W        W18878  17.169   2.833   1.081  0.0113 -0.0276  0.2662
 3070W        W18879  14.452  17.774   2.225  0.2081  0.1419 -0.2528
 3071W        W18880   9.788  15.430  10.712 -0.0098 -0.0326  0.1734
 3072W        W18881  17.936   8.685  12.878 -0.0883  0.0249  0.0087
 3073W        W18882  14.299  17.391   5.644  0.0522  0.1210  0.0566
 3074W        W18883  12.675  14.137   3.520 -0.0244  0.3402  0.0088
 3075W        W18884   7.787  14.874   4.339 -0.0144 -0.2660  0.1295
 3076W        W18885   0.104  10.564   1.148 -0.0340  0.1596  0.0121
 3077W        W18886   4.225  12.907   4.946 -0.0294 -0.0651  0.3525
 3078W        W18887  11.765  11.684  12.452  0.1328 -0.3784 -0.1264
 3079W        W18888   4.503  16.733   4.536 -0.1142  0.1361  0.1124
 3080W        W18889  17.533  18.342   4.110 -0.0395 -0.2158 -0.1064
 3081W        W18890  13.303  12.652  14.308  0.1594  0.2942  0.1244
 3082W        W18891  12.828  17.307   2.996  0.2668  0.0027  0.1079
 3083W        W18892  13.877  12.637  15.493  0.0169  0.0362 -0.0934
 3084W        W18893   1.062   6.311   5.410 -0.0154  0.0020  0.2081
 3085W        W18894  11.903  17.618   2.820  0.1034  0.1442 -0.0012
 3086W        W18895  14.371  10.513  13.232 -0.1400 -0.0136  0.0015
 3087W        W18896  13.740  18.530   4.623 -0.0507  0.0763 -0.0482
 3088W        W18897  17.726  14.109   2.490 -0.1362 -0.2290 -0.0584
 3089W        W18898   9.586  17.556  11.245 -0.2412 -0.2862  0.1955
 3090W        W18899   4.611  13.079  10.925  0.1660  0.0908 -0.1807
 3091W        W18900   5.904  11.700  13.231 -0.2607  0.1913  0.0843
 3092W        W18901   1.825   7.516   3.682  0.2752  0.0007  0.1639
 3093W        W18902   5.896  16.173  13.474 -0.1590 -0.0317 -0.0962
 3094W        W18903  16.460  18.649  15.145  0.0924 -0.0334  0.0187
 3095W        W18904  10.740   7.535  11.296  0.3757 -0.3075 -0.0619
 3096W        W18905   8.995   7.669  10.770 -0.2306 -0.1900 -0.4894
 3097W        W18906  11.328  17.424   1.309  0.1272  0.0468 -0.0745
 3098W        W18907   5.136   4.528  13.321  0.1931  0.0566 -0.1988
 3099W        W18908  16.584  10.945   1.211  0.0863  0.0982 -0.1564
 3100W        W18909   1.584  18.541   1.070 -0.1496 -0.3264 -0.2043
 3101W        W18910   0.618   3.861   0.922 -0.0174  0.1049 -0.0408
 3102W        W18911  15.023  14.815   1.216  0.2662 -0.3762  0.4287
 3103W        W18912  11.102   2.787  11.268 -0.1115 -0.1004 -0.0179
 3104W        W18913   5.291  16.153  12.698  0.0318  0.0357  0.2985
 3105W        W18914  14.342  18.370  14.712 -0.1965  0.0667  0.1513
 3106W        W18915   8.486  15.152   3.858 -0.1422  0.1738 -0.0803
 3107W        W18916   7.127   1.278  13.480  0.1122 -0.0237 -0.1225
 3108W        W18917   5.272   2.181  11.487 -0.2238  0.0214  0.1314
 3109W        W18918   0.455   0.937   5.203  0.2372  0.1673  0.0281
 3110W        W18919   2.409   7.549  15.132  0.0985  0.2250 -0.0612
 3111W        W18920   4.026  11.038  13.000 -0.1343 -0.3472 -0.2102
 3112W        W18921  12.359   5.502  12.811 -0.0558  0.0364 -0.1272
 3113W        W18922   0.420  18.542   2.959  0.0945 -0.2286  0.4468
 3114W        W18923   3.732  15.665  11.326 -0.1198 -0.1922 -0.0680
 3115W        W18924   1.190  15.132   3.082  0.0950 -0.2369  0.0942
 3116W        W18925  13.358   7.771   0.936 -0.1298  0.0168  0.1753
 3117W        W18926   9.747  14.447   2.083 -0.0134  0.0408  0.0610
 3118W        W18927  17.509   6.130  13.610  0.0388  0.2474 -0.0175
 3119W        W18928   4.915   6.436  14.321 -0.1969 -0.1728  0.1754
 3120W        W18929   5.484   3.094   2.934  0.0498 -0.1533 -0.1127
 3121W        W18930   9.060   4.261   5.346 -0.0128 -0.0908  0.2399
 3122W        W18931  15.041   0.293  14.244  0.1643  0.3951 -0.1722
 3123W        W18932   6.065   9.223   5.811  0.0952  0.0209 -0.1321
 3124W        W18933  17.524  14.552   1.831  0.1179  0.0477 -0.4339
 3125W        W18934   7.497   6.649   2.035  0.1703 -0.1935 -0.0805
 3126W        W18935   2.256  18.019  10.908 -0.0166 -0.2197 -0.0834
 3127W        W18936  17.653  14.955  13.341  0.1095 -0.0362  0.0760
 3128W        W18937  17.208  14.463  12.872  0.2083  0.0796 -0.1272
 3129W        W18938   8.854  18.160   2.551 -0.1393 -0.0800 -0.2102
 3130W        W18939  13.380  14.422  13.379  0.3175 -0.1081  0.1025
 3131W        W18940   7.375   5.655   4.906  0.0748  0.0662  0.2016
 3132W        W18941   8.186   3.957   0.420 -0.1620  0.1358 -0.1933
 3133W        W18942   5.949   0.032  12.562  0.1479  0.1304  0.0574
 3134W        W18943   7.514  11.108  12.768  0.0681  0.1744  0.2745
 3135W        W18944   0.605  16.022   0.448  0.0769  0.1101 -0.0260
 3136W        W18945  18.667   8.371  14.950  0.1422 -0.0739 -0.0061
 3137W        W18946   8.869   2.882  14.149  0.3103 -0.0058 -0.1129
 3138W        W18947   9.686   1.107   4.811  0.0554  0.0076  0.0878
 3139W        W18948  13.360   9.893   2.175 -0.1002  0.0629 -0.1392
 3140W        W18949  16.225  12.395   4.446 -0.1854  0.0589 -0.0728
 3141W        W18950   7.152   2.494   0.737 -0.1071  0.0523  0.0291
 3142W        W18951   7.465   9.588  11.538  0.2243  0.2183 -0.0532
 3143W        W18952  12.664   7.714  10.817 -0.2940  0.1299  0.0932
 3144W        W18953  10.677   3.330   2.835 -0.1420  0.2245  0.0107
 3145W        W18954  17.586  11.526  13.867  0.2136  0.0276  0.0237
 3146W        W18955  10.839  15.731   0.520 -0.2426  0.1814 -0.0860
 3147W        W18956  14.862  18.764  11.234  0.0756  0.2887  0.2751
 3148W        W18957  15.986   8.683   5.538 -0.0857  0.1739 -0.0440
 3149W        W18958   6.573  11.001  13.385  0.3651 -0.0794 -0.1206
 3150W        W18959  16.874  18.651  15.413 -0.0674  0.0696  0.0605
 3151W        W18960  18.083   9.532   1.657  0.2540 -0.1479  0.1174
 3152W        W18961  15.943  12.206  15.016  0.2580  0.0296  0.2651
 3153W        W18962   7.848   1.130   0.593 -0.0032  0.1157 -0.2611
 3154W        W18963  13.698   4.388  11.985 -0.0933 -0.1151  0.0161
 3155W        W18964   6.447   5.715  10.229  0.3035  0.2242 -0.2524
 3156W        W18965   0.641   7.523   4.930  0.0517 -0.3807  0.0090
 3157W        W18966   8.283   9.157  10.932 -0.0814 -0.0008 -0.2454
 3158W        W18967  13.070   2.127   1.015  0.2534  0.1397 -0.1288
 3159W        W18968   7.277  10.127   1.174  0.1644  0.0546 -0.0076
 3160W        W18969   2.003   8.291   4.640 -0.3174 -0.0063  0.2158
 3161W        W18970  15.147  14.471  12.644  0.0306  0.1980 -0.0377
 3162W        W18971   8.629  13.795   1.653 -0.0426  0.0458  0.1076
 3163W        W18972  11.757  12.701  15.445  0.1553  0.1424  0.0300
 3164W        W18973  17.396   3.274   3.930  0.2101 -0.1078 -0.1439
 3165W        W18974   8.884   2.027   5.170 -0.1269 -0.0385 -0.1330
 3166W        W18975   1.552  18.575  12.005 -0.3139  0.0486  0.0867
 3167W        W18976   3.823  13.037   1.828 -0.1923  0.1049  0.3492
 3168W        W18977  17.857   4.692   1.446 -0.1470 -0.0565 -0.3941
 3169W        W18978   9.138   6.884   3.487  0.2093  0.0875 -0.1479
 3170W        W18979  18.276   1.106  15.206  0.0826 -0.1913 -0.3740
 3171W        W18980   2.259   3.688  11.232 -0.0982  0.4986 -0.0304
 3172W        W18981   4.726   7.439   4.848 -0.2907 -0.1870  0.1699
 3173W        W18982  11.277   1.243   0.679  0.3520  0.2797  0.0462
 3174W        W18983   3.426  11.140  13.163  0.0509  0.0685  0.1052
 3175W        W18984   5.538  16.938   1.306  0.0289  0.0209  0.0835
 3176W        W18985   2.106   1.913   1.297  0.2839  0.4139 -0.0753
 3177W        W18986   5.060   5.919   2.122 -0.1217 -0.1229  0.0658
 3178W        W18987  14.691  17.112  12.866  0.1796  0.3735  0.1084
 3179W        W18988   3.182   1.048  10.793  0.0575 -0.1844 -0.1100
 3180W        W18989  15.817   2.577  12.483 -0.0136 -0.1550  0.0998
 3181W        W18990   0.264  13.022  15.439  0.3104  0.1338 -0.1295
 3182W        W18991  11.587   6.468  14.507  0.1762  0.0755  0.3072
 3183W        W18992   7.902   4.548  13.098 -0.0354 -0.0690  0.1010
 3184W        W18993   8.454   7.331   4.287  0.1690 -0.0635  0.2543
 3185W        W18994   3.645  18.009  10.618 -0.0528 -0.0539 -0.1067
 3186W        W18995   0.690  16.354  15.159 -0.0669  0.1863 -0.1865
 3187W        W18996   7.326   7.787   0.624 -0.0875 -0.2730 -0.1869
 3188W        W18997   6.155  16.726   3.952 -0.0729 -0.1037 -0.0572
 3189W        W18998   9.739   8.224  12.000 -0.1386 -0.2240  0.0816
 3190W        W18999  11.147  17.605   0.530 -0.0878  0.2787 -0.0034
 3191W        W19000  13.810  14.289   5.243  0.2462 -0.0381 -0.0183
 3192W        W19001  17.728  18.341   3.575 -0.5011  0.0449  0.0511
 3193W        W19002   1.575  18.699   2.527 -0.1827 -0.1535 -0.2008
 3194W        W19003   3.654   2.984   2.291 -0.1993  0.1198  0.0754
 3195W        W19004  17.291   5.695   3.199 -0.2224  0.0056 -0.1945
 3196W        W19005  10.498  12.297   1.787 -0.2304  0.0414 -0.1284
 3197W        W19006   8.988   2.503   3.009  0.0653 -0.2809  0.2803
 3198W        W19007   3.132  17.970  14.481 -0.1487 -0.0056  0.1416
 3199W        W19008   6.159   4.562   2.984 -0.1203  0.2480 -0.1177
 3200W        W19009   6.761   6.285  13.687  0.1319  0.1640 -0.0102
 3201W        W19010  18.640   4.165  14.048  0.0104 -0.0778  0.0927
 3202W        W19011  17.267  16.414   3.901  0.2713 -0.2906 -0.2196
 3203W        W19012  15.976   4.376  15.059 -0.2506  0.0307  0.0556
 3204W        W19013  13.069   7.932   4.585  0.1036 -0.0398 -0.2238
 3205W        W19014  14.801   5.228  10.998 -0.0373 -0.1551  0.0227
 3206W        W19015   2.486  13.654  11.394 -0.1039 -0.1846 -0.1378
 3207W        W19016   7.766  18.420   0.660  0.0228 -0.0091 -0.1202
 3208W        W19017  18.660   3.996   0.261 -0.1650  0.3075  0.0634
 3209W        W19018   1.591   2.061  11.160 -0.1100  0.0397 -0.1255
 3210W        W19019   8.287  11.697   1.301 -0.0959 -0.1799 -0.0084
 3211W        W19020  13.385   9.404   1.406 -0.1684  0.0970  0.0052
 3212W        W19021  16.205  10.226  11.193  0.0517 -0.0500  0.1699
 3213W        W19022   0.466   0.109  15.309  0.1406  0.2424  0.1828
 3214W        W19023  17.853   3.791  12.109 -0.3600 -0.1893  0.1084
 3215W        W19024  17.653  10.020   3.028  0.1511  0.0315 -0.3428
 3216W        W19025  10.680   7.284   2.720  0.0900  0.1521 -0.0134
 3217W        W19026  16.376   7.028   0.897  0.0068 -0.1678 -0.0829
 3218W        W19027  15.087   1.091   4.922 -0.0114  0.1909 -0.0074
 3219W        W19028   6.036  15.122  10.522  0.1350 -0.0006 -0.3411
 3220W        W19029   0.254  15.772   3.060 -0.0461  0.3596 -0.1453
 3221W        W19030   1.836   0.133   1.834  0.0172 -0.0648  0.1037
 3222W        W19031   0.015   9.384   3.988 -0.1238  0.0259 -0.0549
 3223W        W19032  18.642  17.950  13.359 -0.1476  0.1527 -0.1296
 3224W        W19033   3.158   7.698   4.689  0.1767 -0.6146  0.1776
 3225W        W19034  16.682  10.151  13.544  0.0276 -0.2223 -0.2257
 3226W        W19035  11.948  12.036   4.195 -0.0219  0.1012 -0.1816
 3227W        W19036  16.411  17.900   0.246  0.3768 -0.2001 -0.0798
 3228W        W19037  13.319  13.779   2.837  0.0116  0.2166 -0.1524
 3229W        W19038  10.500   1.993   2.823  0.2584 -0.1838  0.2292
 3230W        W19039  13.919   0.313  13.462 -0.0534  0.1653 -0.2471
 3231W        W19040  16.721   9.519  12.424 -0.1668  0.1298 -0.0237
 3232W        W19041  12.886  13.631   0.019 -0.1324  0.4385  0.1211
 3233W        W19042   1.254   2.388   0.216  0.0281  0.1155  0.1873
 3234W        W19043   4.902   9.486  13.022  0.1626 -0.0081 -0.3458
 3235W        W19044   0.417  10.639  13.867 -0.0794  0.1250 -0.3047
 3236W        W19045  14.729   3.721  15.216  0.1782 -0.1316  0.1632
 3237W        W19046   9.006   5.387  11.740  0.1068 -0.1423 -0.0798
 3238W        W19047  12.996   8.720  11.401  0.3670 -0.1735 -0.0203
 3239W        W19048  15.087  14.668   4.396  0.0262  0.3882  0.4187
 3240W        W19049   5.647  13.384  11.079 -0.2547  0.2256 -0.4099
 3241W        W19050   4.141  13.048   9.534 -0.0815  0.0957  0.0534
 3242W        W19051   0.230   9.341  11.689  0.0363 -0.0309  0.0502
 3243W        W19052   8.343   4.433   0.515  0.0844 -0.0600 -0.1377
 3244W        W19053  14.048  14.021   3.566  0.0416  0.0047  0.0510
 3245W        W19054   7.348  10.048  12.331 -0.1760  0.4291  0.2062
 3246W        W19055   1.586   2.948   0.781 -0.1447  0.3181 -0.1470
 3247W        W19056   0.522  16.522  13.086  0.3109  0.1504 -0.4442
 3248W        W19057   9.955   8.028   2.964 -0.1219 -0.2828 -0.1213
 3249W        W19058  18.416   9.157   3.882  0.1594  0.3008 -0.4160
 3250W        W19059  17.019   8.718  14.214 -0.0878  0.0732  0.0668
 3251W        W19060   7.189   0.893   4.410 -0.2172 -0.0143 -0.3353
 3252W        W19061  13.975  12.215   1.399  0.2001  0.0808 -0.0580
 3253W        W19062   3.457   1.929  12.603 -0.0228  0.0740  0.1969
 3254W        W19063   4.930   8.687   4.655  0.3521  0.3819  0.2789
 3255W        W19064  12.365  10.666  14.770 -0.1537 -0.0625 -0.1983
 3256W        W19065  12.259   2.458  11.433 -0.0825  0.0682  0.2129
 3257W        W19066   4.494   8.311  12.380 -0.1609  0.1013  0.1058
 3258W        W19067   7.721  13.923   1.237  0.0810 -0.0442 -0.0048
 3259W        W19068   9.303   6.856  15.450  0.2327  0.1664 -0.1687
 3260W        W19069  15.966  14.158   4.519  0.0669  0.0951 -0.0508
 3261W        W19070  14.618  12.364   2.165  0.1461  0.3571  0.0616
 3262W        W19071  12.267   4.347   5.136  0.1582  0.1982  0.0467
 3263W        W19072   0.777  10.070  11.773  0.1546 -0.2097 -0.1661
 3264W        W19073  13.977   4.581   0.918  0.1212 -0.0863  0.3115
 3265W        W19074  17.033  14.448  14.397  0.2582 -0.1807 -0.1707
 3266W        W19075   2.516   2.665   4.582 -0.2085  0.3532  0.3112
 3267W        W19076   8.216  17.151  11.819 -0.0086  0.2597 -0.3298
 3268W        W19077  12.730   8.174  10.663  0.1783  0.4282 -0.3036
 3269W        W19078   4.168  12.335   3.713  0.0874 -0.0241 -0.3991
 3270W        W19079  16.598   0.794   1.460  0.1292  0.3517 -0.0687
 3271W        W19080  16.831   9.046   2.902 -0.0098  0.0308 -0.2236
 3272W        W19081   7.596   7.614   1.911  0.0802 -0.2853 -0.0056
 3273W        W19082  15.513  18.290  12.171 -0.0269 -0.4211 -0.0970
 3274W        W19083   4.758  13.438   4.794 -0.0447  0.2161  0.1906
 3275W        W19084   1.325   5.391  12.683  0.1485  0.0269  0.0208
 3276W        W19085  16.142  10.208  12.516  0.3170  0.1677 -0.0835
 3277W        W19086  14.471  10.806   5.072  0.0314 -0.0085 -0.1661
 3278W        W19087  17.072   0.594   1.617 -0.2412 -0.0549  0.2833
 3279W        W19088   8.247  12.596  13.325  0.4339  0.0864  0.2283
 3280W        W19089   5.925   0.037   1.246  0.0332  0.1171 -0.0627
 3281W        W19090   1.255  16.917  10.793  0.0538 -0.0024 -0.2827
 3282W        W19091  10.238   8.272   0.252  0.2368 -0.2539  0.0728
 3283W        W19092  16.386  18.290  13.577  0.1504 -0.2972 -0.5363
 3284W        W19093  13.585   0.272   1.201  0.0796  0.0981  0.0346
 3285W        W19094  16.710  11.362  15.419 -0.0243 -0.2068  0.1090
 3286W        W19095  11.070   5.290  12.630  0.0059  0.1312  0.0314
 3287W        W19096   1.061   1.830   2.208 -0.6063  0.0052 -0.0987
 3288W        W19097  11.768  15.793   1.632 -0.0956  0.1656 -0.0238
 3289W        W19098  18.096   2.719  13.877 -0.2077  0.1658 -0.0415
 3290W        W19099   9.928   6.079   2.200 -0.2557  0.3241 -0.1676
 3291W        W19100  12.354   4.965  15.297  0.1121  0.1337  0.1612
 3292W        W19101   9.134   2.328   5.599  0.2247 -0.0428 -0.4540
 3293W        W19102   4.531   9.264   2.502 -0.1397 -0.0415 -0.0353
 3294W        W19103  16.194  16.873   1.935 -0.1083 -0.0409 -0.1646
 3295W        W19104   7.259  14.235  13.999 -0.0062 -0.1137 -0.0678
 3296W        W19105  10.968   2.774   5.627 -0.0978  0.0621 -0.1894
 3297W        W19106   2.196  12.503   1.067  0.2221 -0.0487  0.0825
 3298W        W19107   8.570   1.140  11.497 -0.1971 -0.0472 -0.1595
 3299W        W19108  10.182   3.363  12.273  0.2523 -0.3009  0.4136
 3300W        W19109   0.384   9.867  11.566 -0.0927 -0.0454 -0.1215
 3301W        W19110   1.961   5.611  14.805  0.0965  0.0013 -0.1522
 3302W        W19111   4.265  10.583   4.576 -0.0159 -0.0633  0.3652
 3303W        W19112   0.337   4.680  11.492 -0.0186 -0.0413  0.3632
 3304W        W19113   7.979  15.695   4.338 -0.0344  0.0874  0.0472
 3305W        W19114   4.397  17.010  10.921 -0.1635 -0.2855  0.0352
 3306W        W19115   0.779   6.230   1.647  0.1141 -0.1389  0.0250
 3307W        W19116   0.963   9.678  11.403 -0.1006  0.0623 -0.3022
 3308W        W19117  15.625   0.734   3.523 -0.1974 -0.2055  0.0543
 3309W        W19118  17.495   4.018   2.025 -0.0263  0.2064 -0.1598
 3310W        W19119   0.260  13.796   2.234 -0.0784  0.0833  0.3257
 3311W        W19120   7.157   8.323  10.973  0.1700 -0.3280 -0.1312
 3312W        W19121  16.491  11.829  12.039  0.2250 -0.2038 -0.2552
 3313W        W19122  15.451  12.313  12.094 -0.1418  0.0251  0.3171
 3314W        W19123  15.727  15.750   5.239 -0.2474  0.4440  0.2130
 3315W        W19124   8.435  11.641  12.139 -0.0369  0.0473  0.1349
 3316W        W19125   2.892   0.336   0.088  0.2414  0.1146  0.1248
 3317W        W19126  11.722  14.024  11.483  0.0604 -0.2937  0.3464
 3318W        W19127   6.115  16.574  13.690  0.0236 -0.0073  0.1036
 3319W        W19128  14.394  12.083  10.388  0.0934 -0.2141  0.2614
 3320W        W19129  16.358   2.797   4.029 -0.1694 -0.1295 -0.0652
 3321W        W19130  14.964   5.866   0.857  0.1472 -0.6765  0.2874
 3322W        W19131   7.143   6.895  14.139  0.2277 -0.2722 -0.1141
 3323W        W19132  10.867   8.077  15.064 -0.0086 -0.2751  0.0258
 3324W        W19133   2.439  17.339  12.182 -0.1943  0.1716 -0.1817
 3325W        W19134  15.922   5.239  14.171 -0.1029  0.0324 -0.3135
 3326W        W19135   1.013  11.984  12.413 -0.0598 -0.0780  0.2777
 3327W        W19136  12.335   2.223   5.427 -0.0528 -0.2783  0.1236
 3328W        W19137  17.592  17.434  14.849  0.3740  0.0287  0.3234
 3329W        W19138   2.553   3.002  13.146  0.0637 -0.0656 -0.1696
 3330W        W19139   4.401   9.836  11.076  0.0220 -0.0090  0.0545
 3331W        W19140   2.829  17.706   3.517  0.4319 -0.0109  0.0585
 3332W        W19141   7.375   3.468   0.793  0.1460 -0.0148  0.0813
 3333W        W19142  14.094   2.064  13.040 -0.1112 -0.0130 -0.1059
 3334W        W19143  10.555   2.178   4.132 -0.0615 -0.4484  0.0341
 3335W        W19144  14.608  14.708   2.777  0.0490 -0.1874  0.0294
 3336W        W19145  15.196   1.634   1.726  0.1084 -0.0599 -0.0244
 3337W        W19146  10.214  11.331   5.854 -0.1113 -0.5164  0.1697
 3338W        W19147   9.438  10.532  15.105  0.0360  0.1990  0.0380
 3339W        W19148  13.824  10.515  12.618 -0.0578 -0.0293 -0.2183
 3340W        W19149   1.760   1.894  12.958  0.0859 -0.0878  0.0509
 3341W        W19150   3.103  11.433  14.902 -0.0396  0.2024 -0.0157
 3342W        W19151  11.857   6.410  10.748  0.1870 -0.2266 -0.0493
 3343W        W19152   9.987   9.451   3.409  0.1317 -0.1790  0.2421
 3344W        W19153  16.200  10.962   4.244  0.0888  0.1024 -0.2731
 3345W        W19154  18.252   3.901  11.625 -0.2771  0.0322 -0.1581
 3346W        W19155  17.454  10.749  12.311  0.0481  0.0676  0.2409
 3347W        W19156  17.183  16.321   6.030  0.0869  0.0117 -0.1820
 3348W        W19157   5.205   7.399   5.249  0.0263 -0.1227 -0.1244
 3349W        W19158   2.569   9.476   1.830 -0.2895  0.1792  0.1059
 3350W        W19159   5.271  13.918   1.306  0.0180  0.1146 -0.2312
 3351W        W19160   3.694  12.246   2.926  0.0348  0.2598 -0.0180
 3352W        W19161   8.149  14.611   0.686 -0.0634 -0.0203 -0.0247
 3353W        W19162  14.354   7.301  13.973 -0.4781 -0.3059  0.0202
 3354W        W19163   2.868  12.107  14.202 -0.1840 -0.1466 -0.1694
 3355W        W19164   1.453   3.739   9.171 -0.3106 -0.2063  0.0155
 3356W        W19165   8.281  14.701   4.486  0.2190  0.0008 -0.0388
 3357W        W19166   3.254  15.195  14.551  0.2443  0.0286 -0.2891
 3358W        W19167   5.424  15.227  14.647 -0.0834 -0.1994 -0.1854
 3359W        W19168   1.448  11.142  12.515  0.2264 -0.3134  0.2169
 3360W        W19169   8.792  13.309  13.241  0.0459 -0.1202 -0.0698
 3361W        W19170   7.709  11.144  15.015 -0.1286  0.2007  0.1472
 3362W        W19171  16.363  10.205   4.128  0.1389 -0.3000  0.0203
 3363W        W19172  15.672   0.647  15.349  0.0227 -0.1066 -0.0715
 3364W        W19173   8.586   7.326  13.661 -0.1011 -0.1258  0.4676
 3365W        W19174   6.297   6.561  10.710  0.2091  0.4341 -0.1418
 3366W        W19175   1.782   2.880   1.450  0.1212 -0.2073  0.1793
 3367W        W19176   5.272  14.719   2.384  0.2297  0.0710  0.0043
 3368W        W19177   5.611   8.223  11.851 -0.1145  0.1783 -0.5373
 3369W        W19178   1.966  14.337   0.716 -0.0693 -0.0715  0.0459
 3370W        W19179   1.458  16.549   4.947  0.0567  0.2810 -0.0668
 3371W        W19180  16.381   3.150   2.602 -0.0475  0.0334  0.2900
 3372W        W19181   2.719  15.281   3.150  0.1240  0.0198 -0.2552
 3373W        W19182  11.699   1.077   2.924  0.1507  0.3435 -0.0925
 3374W        W19183  10.778   6.077  13.771 -0.0386 -0.2918  0.2186
 3375W        W19184   8.024   9.432  12.628 -0.0608 -0.0393  0.1321
 3376W        W19185  13.909  17.157  12.674  0.1291  0.1019 -0.0281
 3377W        W19186  17.408   8.726   1.582 -0.1812  0.0626  0.0502
 3378W        W19187   1.294  18.557   3.932 -0.3947 -0.1458 -0.0268
 3379W        W19188   1.408   1.729   0.013  0.1972  0.0348  0.2350
 3380W        W19189   2.328  16.856   3.200 -0.1864 -0.1711  0.1260
 3381W        W19190  11.299   5.993  10.993  0.0981  0.1449  0.2140
 3382W        W19191  16.766   6.763  13.375 -0.2320 -0.1637  0.1192
 3383W        W19192  16.899   8.716   2.466 -0.1917 -0.1636 -0.1091
 3384W        W19193   0.577  11.627  15.503  0.3029  0.0458  0.1985
 3385W        W19194  16.600  17.261  14.992  0.2008 -0.0883 -0.2007
 3386W        W19195  13.946  13.471   4.781 -0.0270 -0.0058  0.0198
 3387W        W19196  17.249  13.474   5.050  0.0568 -0.0577  0.0675
 3388W        W19197   5.516  14.432  14.949 -0.1580  0.1916 -0.2863
 3389W        W19198   0.282   7.849   9.990 -0.1551 -0.0623 -0.0787
 3390W        W19199   0.020   0.250   4.762 -0.1902 -0.1420 -0.0469
 3391W        W19200  11.028  17.358  13.329  0.0873 -0.0805 -0.0868
 3392W        W19201  15.917   9.877   1.037 -0.2216  0.0932 -0.0271
 3393W        W19202   1.535   0.460   4.605 -0.0711  0.0179 -0.1499
 3394W        W19203   6.847   1.075   3.846  0.3467 -0.0602 -0.1700
 3395W        W19204   9.393  14.081  13.215 -0.0921 -0.0897  0.3462
 3396W        W19205  14.451   4.686  12.670  0.0251 -0.1922 -0.4387
 3397W        W19206   9.424  17.595  13.004  0.0460  0.0674 -0.0468
 3398W        W19207  11.545   6.826  10.687 -0.4097 -0.0011 -0.1733
 3399W        W19208   8.831  18.279  12.858 -0.1235  0.0568  0.0502
 3400W        W19209   4.598  11.268   0.373  0.0342 -0.2151 -0.0576
 3401W        W19210  10.024   5.438   9.872  0.0553 -0.3491  0.1665
 3402W        W19211   5.037  13.399   5.895  0.0882 -0.1346  0.2312
 3403W        W19212  13.494  11.003   1.358 -0.0323  0.0076 -0.4724
 3404W        W19213   8.128   1.747  12.379  0.3472  0.0198  0.0608
 3405W        W19214   3.084  11.554   2.222  0.0129 -0.0026  0.2589
 3406W        W19215  10.629   6.551   9.771 -0.1098  0.4439  0.0568
 3407W        W19216  10.242  10.341  15.301  0.1600  0.2689  0.3600
 3408W        W19217   1.814   1.381  13.959  0.4327 -0.0516 -0.1990
 3409W        W19218   7.290  12.408  14.839 -0.0963 -0.3623  0.2691
 3410W        W19219  13.488   8.869  12.165  0.0293 -0.0991 -0.3559
 3411W        W19220   6.037  16.267   2.622  0.2506  0.2680  0.0870
 3412W        W19221  18.078   5.760   4.397  0.0402 -0.0786  0.2851
 3413W        W19222  14.489   8.334  13.782 -0.0993 -0.2092 -0.0110
 3414W        W19223  14.224   8.568  14.207 -0.0065 -0.2207  0.1912
 3415W        W19224   1.255   9.732   1.594 -0.0742 -0.1132 -0.2089
 3416W        W19225  11.561  14.445  13.777  0.0936 -0.0065 -0.0603
 3417W        W19226  11.142   9.295   4.029  0.0005  0.1043  0.0369
 3418W        W19227  11.407  11.003  10.881  0.0903 -0.0097  0.0010
 3419W        W19228   8.635   0.157  13.227  0.0956 -0.2297  0.1952
 3420W        W19229   0.057  14.121  12.743  0.1887 -0.0975 -0.1487
 3421W        W19230  10.652  17.744  12.053  0.2156 -0.0558 -0.0750
 3422W        W19231   9.046   9.304  12.312  0.2616  0.1249 -0.2369
 3423W        W19232   7.582   1.409   2.734 -0.5920 -0.0618 -0.0870
 3424W        W19233   0.770  15.820   1.229  0.2221 -0.2043 -0.3454
 3425W        W19234   5.884   8.854   4.964 -0.1881 -0.2389 -0.0102
 3426W        W19235  12.641   3.557   0.793  0.1939  0.0123  0.1402
 3427W        W19236   8.413  15.532  12.218  0.1148  0.0734 -0.0286
 3428W        W19237  11.739  10.159  13.674 -0.0159  0.2056 -0.1284
 3429W        W19238   9.456  14.106   3.974  0.0180  0.3440 -0.0524
 3430W        W19239   6.004   7.029   5.095  0.0520  0.2782 -0.3162
 3431W        W19240   7.043  15.474   1.804  0.0847 -0.0800  0.0054
 3432W        W19241  18.275   2.144   1.763  0.2124 -0.1150  0.0746
 3433W        W19242   0.863   9.873   0.478  0.1993  0.3558  0.4107
 3434W        W19243   8.192  15.252   4.225 -0.2862  0.0539  0.2095
 3435W        W19244   4.997   4.434   0.765 -0.0418  0.0963  0.0123
 3436W        W19245   3.071   6.436  13.957 -0.0002  0.0416 -0.3203
 3437W        W19246  18.598   1.553   2.371 -0.0849 -0.0543 -0.0894
 3438W        W19247   3.549  14.433   5.692  0.1775 -0.0725 -0.2410
 3439W        W19248   9.699  13.274  12.125 -0.0437  0.0781 -0.2279
 3440W        W19249  11.664  14.977  14.187 -0.1829  0.2956 -0.0630
 3441W        W19250  15.323   0.192   1.794 -0.1596  0.2662 -0.2106
 3442W        W19251  10.005  13.187   1.668 -0.1265 -0.2835  0.2840
 3443W        W19252   5.246   8.063   1.482  0.2160 -0.0882  0.3047
 3444W        W19253   9.516   4.491   1.912 -0.2416 -0.1587 -0.4308
 3445W        W19254  10.858   8.063   4.417  0.1507  0.2094 -0.1351
 3446W        W19255  16.642  16.253   1.226  0.2551 -0.0652  0.0605
 3447W        W19256   9.611  10.267   3.719  0.0095 -0.1929  0.0736
 3448W        W19257   3.982  17.954  12.339 -0.0122  0.2232 -0.1243
 3449W        W19258   8.380  18.019  13.116  0.0157 -0.0878 -0.2465
 3450W        W19259   0.515   1.093  10.685  0.1318 -0.1007 -0.0431
 3451W        W19260  12.524  12.141  12.236  0.0735  0.1023 -0.0295
 3452W        W19261  18.675   8.148  11.187  0.1727  0.3752  0.0653
 3453W        W19262   5.739   8.936  12.593 -0.1712  0.0961 -0.0131
 3454W        W19263   2.475  16.296  14.626 -0.0169 -0.1634  0.0597
 3455W        W19264   4.414  14.759   0.078  0.0242 -0.1316  0.0385
 3456W        W19265   2.885  12.053  13.472 -0.2187  0.1854  0.1403
 3457W        W19266   3.588   9.001   3.149  0.0423  0.1643 -0.1234
 3458W        W19267  11.197   0.290  15.106  0.4366  0.1051 -0.0390
 3459W        W19268   6.288   3.948  11.879 -0.0456  0.3622 -0.1863
 3460W        W19269  13.566   1.132   3.500 -0.1222  0.0675 -0.0291
 3461W        W19270  12.011   8.263   4.472 -0.1482 -0.2933 -0.4131
 3462W        W19271   9.877  12.981  14.350 -0.1580  0.1080  0.0552
 3463W        W19272   9.291   6.818   0.918  0.3585  0.1274 -0.0981
 3464W        W19273  18.315  14.137   4.827 -0.2424  0.2853 -0.1549
 3465W        W19274  16.997  15.667   2.466 -0.2176  0.1507 -0.0072
 3466W        W19275   4.715   4.317   5.099 -0.1613  0.1458 -0.1625
 3467W        W19276   5.122   8.673   1.575  0.0714 -0.0713  0.1865
 3468W        W19277  12.750   3.420  15.234 -0.0891  0.0907 -0.1460
 3469W        W19278  15.498   5.584   0.155 -0.1536 -0.1026 -0.2019
 3470W        W19279   6.423  10.400  12.575 -0.0676  0.0317 -0.1405
 3471W        W19280   6.979  18.223   5.122  0.4042  0.2953 -0.3136
 3472W        W19281   6.338   6.187  11.544 -0.0942  0.0559 -0.0002
 3473W        W19282   8.319  11.798   1.838 -0.2331  0.0041  0.1215
 3474W        W19283   5.245   3.496   3.099 -0.0329 -0.3416  0.0035
 3475W        W19284   5.194  11.261   2.113  0.2556 -0.2400  0.0884
 3476W        W19285  14.074  13.229   2.072 -0.0130  0.2553  0.0390
 3477W        W19286   5.940  16.893  14.054 -0.1927  0.1349 -0.2202
 3478W        W19287  12.220  14.099  15.009  0.1706 -0.5373  0.1950
 3479W        W19288   1.952  10.102   2.190 -0.2067 -0.0485 -0.2634
 3480W        W19289   9.449  17.104  10.503 -0.1083  0.1481 -0.0875
 3481W        W19290  11.992  14.423   2.841 -0.0843 -0.0880  0.2926
 3482W        W19291   9.952   7.887   4.960 -0.2404  0.0723  0.2396
 3483W        W19292  16.842   4.345  14.766  0.2199 -0.3326 -0.2273
 3484W        W19293  11.613   9.888  15.212 -0.1338 -0.2943 -0.1179
 3485W        W19294  18.126  15.929   1.610  0.1775  0.0023  0.1256
 3486W        W19295  12.333  15.356   1.091  0.4153  0.2139  0.1070
 3487W        W19296  14.582   3.316  13.491 -0.0827  0.1819  0.2487
 3488W        W19297   2.940  13.633   0.886  0.2286 -0.1886  0.1096
 3489W        W19298  14.907  11.464   2.609  0.3454  0.0020 -0.1049
 3490W        W19299   1.790  12.422   1.954  0.4261  0.1381 -0.2446
 3491W        W19300  14.743   7.622  11.599 -0.3695 -0.0419  0.4114
 3492W        W19301  17.437   6.558  11.478  0.1003 -0.0189 -0.2543
 3493W        W19302   0.606   4.321   3.268 -0.0404  0.0386 -0.0956
 3494W        W19303  10.771  10.907   1.295 -0.0948  0.2374  0.1348
 3495W        W19304   0.849  13.197  14.096  0.1386  0.0497  0.0633
 3496W        W19305   7.765  15.491   1.471 -0.0894 -0.2369  0.0325
 3497W        W19306  18.284   6.241   3.020  0.1742 -0.2162  0.0763
 3498W        W19307   4.270   4.704   4.117 -0.0229  0.1829 -0.0438
 3499W        W19308  16.448   4.269  11.391 -0.1003 -0.2990  0.1587
 3500W        W19309   4.544  10.683   0.193  0.2745 -0.1614 -0.3260
 3501W        W19310  17.257  18.360  15.477 -0.0837  0.2203  0.3722
 3502W        W19311   4.277  16.843   4.026 -0.0425  0.0836  0.0691
 3503W        W19312   6.941   7.174  12.927 -0.1664  0.1300  0.0329
 3504W        W19313   2.044   4.561  10.952 -0.0484 -0.2049  0.0638
 3505W        W19314   0.080  15.430   2.723  0.0436  0.0457 -0.0668
 3506W        W19315  17.160  14.123  11.075  0.1511 -0.0023 -0.1500
 3507W        W19316  15.136  11.743   1.819 -0.0424 -0.1716 -0.1556
 3508W        W19317   4.960  10.881  12.092  0.3611  0.2920  0.2248
 3509W        W19318   3.980  11.085   2.061 -0.2486 -0.0453 -0.3324
 3510W        W19319   8.744   0.129  12.723  0.0106 -0.2709 -0.0603
 3511W        W19320   3.900  15.329   4.980 -0.0679  0.1288  0.2139
 3512W        W19321   5.534  10.128   2.744  0.4232 -0.0614 -0.3073
 3513W        W19322   6.892  15.954   1.982 -0.3011  0.2147  0.1197
 3514W        W19323  11.611  18.759  14.953 -0.1531  0.2213 -0.3028
 3515W        W19324   9.223   7.041  10.714 -0.2111  0.0224  0.0213
 3516W        W19325  13.593   9.121   0.052  0.0217  0.0111 -0.1196
 3517W        W19326   6.877  13.099  13.673 -0.0216 -0.1630  0.3098
 3518W        W19327  12.880  11.718   0.634 -0.0828 -0.0793 -0.0585
 3519W        W19328  10.568   1.108   2.575  0.0704 -0.0949  0.0803
 3520W        W19329  17.091   0.110   1.579 -0.1616  0.2399 -0.1281
 3521W        W19330  17.043   4.635   0.126  0.0512  0.2673 -0.1722
 3522W        W19331  16.270  13.884  11.251 -0.4036  0.1314  0.1806
 3523W        W19332   9.337  12.387   5.118 -0.0702  0.2924  0.0286
 3524W        W19333   2.570  16.431   3.092  0.1821 -0.1109 -0.2022
 3525W        W19334  17.460  10.946  13.738 -0.0330  0.1256  0.0070
 3526W        W19335   4.592   2.791  14.915  0.1093 -0.1282 -0.1229
 3527W        W19336   9.796  13.949   3.600 -0.0984 -0.2337  0.4328
 3528W        W19337  11.286  14.893   2.197 -0.2101  0.1686  0.3184
 3529W        W19338   3.580   1.848  14.489 -0.1263 -0.0773  0.1141
 3530W        W19339  17.751  15.154   3.940  0.0062  0.2730  0.0512
 3531W        W19340   5.897  12.308   3.674 -0.1414 -0.0326 -0.0304
 3532W        W19341   8.182   2.494   2.495 -0.0619  0.2842  0.2474
 3533W        W19342   4.238   9.828   5.239 -0.1525  0.1666 -0.0843
 3534W        W19343   7.082  13.735   4.702 -0.0595  0.2687 -0.1079
 3535W        W19344  15.698  15.148   4.358  0.1332  0.1412 -0.1295
 3536W        W19345  12.945  11.905   3.477  0.0535  0.0685 -0.0953
 3537W        W19346   9.493   7.967   4.005  0.0798  0.1991  0.1908
 3538W        W19347   9.965   0.157   0.124 -0.0948  0.0192  0.2659
 3539W        W19348  16.601   0.108  11.643 -0.2804  0.1459 -0.1074
 3540W        W19349   5.488  15.184   4.107  0.1465 -0.2070  0.0800
 3541W        W19350   2.270   1.621   1.840  0.0962 -0.0136  0.2702
 3542W        W19351  15.946   6.918  15.156  0.2246 -0.0094 -0.3047
 3543W        W19352  13.624   3.992   5.861  0.2799  0.2674 -0.1659
 3544W        W19353   8.972  11.330   4.065 -0.0445 -0.0466 -0.0046
 3545W        W19354   4.164  14.200   2.966  0.0467  0.1012  0.1922
 3546W        W19355   3.920  16.645  10.294 -0.0275  0.2189 -0.0409
 3547W        W19356  13.337   2.479  14.148 -0.2711 -0.1666 -0.0236
 3548W        W19357  11.702  16.659   1.100 -0.0941  0.2546  0.0462
 3549W        W19358  10.466   7.537  11.845  0.3047 -0.0875 -0.2235
 3550W        W19359  14.325  11.847   0.472 -0.1399  0.1116 -0.3484
 3551W        W19360   2.630  18.393   0.973  0.3086 -0.3601 -0.1231
 3552W        W19361  17.095   6.626   1.253  0.0158 -0.2830 -0.0969
 3553W        W19362   1.372   3.834  12.499 -0.2818 -0.2000  0.0816
 3554W        W19363   7.284  15.265   4.511 -0.1375  0.2005  0.0921
 3555W        W19364   6.703   1.065  13.346  0.0262 -0.3519  0.0842
 3556W        W19365  17.150   5.326   9.772 -0.0076  0.0665 -0.1504
 3557W        W19366   3.250  16.504   4.771  0.0795 -0.1283  0.1994
 3558W        W19367  12.313  14.743   0.424  0.0744 -0.0395 -0.0154
 3559W        W19368   2.999   3.051   2.858  0.2460 -0.3369  0.0655
 3560W        W19369  14.435   3.779  14.675  0.0520 -0.0222 -0.0727
 3561W        W19370  10.162  16.163   5.247  0.1700  0.1167  0.1280
 3562W        W19371   2.606  15.089   2.164 -0.1190 -0.2996 -0.1300
 3563W        W19372   4.431   0.069   5.488 -0.1086 -0.0061 -0.1813
 3564W        W19373  18.012  11.960   3.030 -0.2379  0.2956  0.1123
 3565W        W19374  10.450  15.298   4.336  0.1313  0.2462 -0.1252
 3566W        W19375   1.040  17.824   5.008  0.1196  0.0352  0.1242
 3567W        W19376  13.221   3.688  14.983  0.0138 -0.0690  0.3301
 3568W        W19377   0.710  17.300   1.860 -0.1068  0.0592  0.0078
 3569W        W19378  16.176  17.415   9.918  0.1348  0.2540 -0.2339
 3570W        W19379  17.663   0.978  12.733  0.0566 -0.5061 -0.0913
 3571W        W19380  11.670   9.678  10.787 -0.0856 -0.0107 -0.2331
 3572W        W19381  18.406   4.952   5.354  0.1611 -0.2037 -0.1502
 3573W        W19382  10.548   1.051   0.145  0.0101  0.1145 -0.3354
 3574W        W19383   5.913   1.321  10.705 -0.0160  0.3486 -0.0009
 3575W        W19384   0.820  18.016  11.182  0.1671  0.0403 -0.0417
 3576W        W19385  13.408   5.076   2.061 -0.1374  0.0406  0.1075
 3577W        W19386  13.214   3.600   2.292 -0.1312 -0.0006 -0.0348
 3578W        W19387   5.485   6.304  15.134  0.3773  0.0130 -0.2296
 3579W        W19388  11.472   3.260   3.863 -0.0439  0.3206  0.1854
 3580W        W19389   9.061   5.461   4.281 -0.0572 -0.2986 -0.1339
 3581W        W19390   6.451   3.896   4.538 -0.0144  0.0115 -0.2020
 3582W        W19391   2.834  14.312   2.991  0.0393  0.3755 -0.0006
 3583W        W19392  17.374  11.276   2.703 -0.0270  0.1135  0.4132
 3584W        W19393  17.782  14.521  10.934 -0.0656  0.0168 -0.1372
 3585W        W19394   3.141  10.561   1.956  0.0411 -0.1877  0.0199
 3586W        W19395   4.598   3.222  11.355 -0.1468 -0.0780  0.0584
 3587W        W19396   2.341  12.057   0.879  0.0499  0.1456 -0.2290
 3588W        W19397  16.817   2.153   0.515 -0.3009 -0.3161 -0.3155
 3589W        W19398   6.153  16.687  11.439 -0.0760 -0.3511 -0.4582
 3590W        W19399   7.230   8.206   1.413  0.1810 -0.1871  0.1057
 3591W        W19400  16.908  11.883   3.979  0.3666  0.1667 -0.0053
 3592W        W19401   9.698   4.641   3.235 -0.1108 -0.1514  0.0471
 3593W        W19402   5.164   3.031   5.435  0.2415  0.0861  0.4911
 3594W        W19403   9.634  17.299   1.962 -0.2401  0.1022 -0.0754
 3595W        W19404   6.034  10.459  13.879 -0.0319 -0.0494  0.1651
 3596W        W19405  16.128   0.248  13.487 -0.1666 -0.2272 -0.1072
 3597W        W19406   7.104   1.245   9.567  0.0314  0.0443  0.0553
 3598W        W19407  10.365  11.282  14.050 -0.1976 -0.0446 -0.1126
 3599W        W19408  10.316   0.725   3.795 -0.3644 -0.2544  0.1082
 3600W        W19409   3.377   6.447   3.902  0.2110 -0.0176  0.0359
 3601W        W19410  12.668   6.350  11.343 -0.3025  0.2090 -0.2849
 3602W        W19411  12.295   8.963   3.977 -0.0466  0.0636  0.0061
 3603W        W19412   2.835   8.810   2.267 -0.0739  0.0312  0.1644
 3604W        W19413  17.799   6.573   9.978  0.2422  0.0225  0.2955
 3605W        W19414   1.168   2.143  10.900 -0.2436 -0.0168 -0.1536
 3606W        W19415   4.744   0.354  12.060  0.1736 -0.1290  0.1448
 3607W        W19416   8.032  11.840  11.824  0.1666  0.0289 -0.0747
 3608W        W19417   1.762   0.582   5.394  0.0621  0.1896  0.3298
 3609W        W19418  10.530   7.007   0.686 -0.0022  0.0685 -0.3643
 3610W        W19419  15.245   3.302  12.511  0.0063  0.0586 -0.0981
 3611W        W19420   3.496  11.607  10.976 -0.3006  0.1694  0.0983
 3612W        W19421  17.121   5.653  10.815 -0.0240  0.2287  0.1583
 3613W        W19422  12.321   7.414  10.368  0.1087 -0.0008  0.0766
 3614W        W19423   4.794  18.001  14.820 -0.1332  0.0207  0.1467
 3615W        W19424  10.424   1.849  13.835 -0.2131 -0.2836  0.2043
 3616W        W19425  11.436   7.826   5.251  0.0601 -0.1247 -0.0015
 3617W        W19426  10.764  14.537  14.076  0.1884 -0.1637  0.1085
 3618W        W19427   8.594  12.451  14.397 -0.0789  0.0628 -0.0111
 3619W        W19428   6.788  17.215  13.879  0.1081  0.1302  0.0621
 3620W        W19429   3.180   2.975  12.735 -0.1390  0.1106 -0.2912
 3621W        W19430   2.428   5.271   3.659  0.0956  0.1621 -0.1599
 3622W        W19431   7.766   5.801  11.246 -0.1306  0.4516  0.1785
 3623W        W19432   4.954  12.215   1.599  0.0433 -0.2383  0.0236
 3624W        W19433  15.649  12.288   0.614 -0.2296  0.2286 -0.2017
 3625W        W19434  15.536   6.534   5.569 -0.2074 -0.1237 -0.1256
 3626W        W19435   8.851  11.591   4.884  0.3677  0.1164 -0.2933
 3627W        W19436   8.112  15.495  13.197  0.4199  0.0899  0.4163
 3628W        W19437   6.583   2.538   4.241  0.0609 -0.3825 -0.0172
 3629W        W19438   2.032  11.164   1.093 -0.2387  0.0483 -0.1398
 3630W        W19439  14.309  18.131   3.582 -0.1956 -0.2413 -0.1178
 3631W        W19440  17.629   3.122  13.470  0.1132 -0.2784  0.1967
 3632W        W19441  16.068  11.382  13.904  0.1241 -0.1098 -0.0320
 3633W        W19442  14.482  16.341  13.605  0.0898 -0.1742 -0.3070
 3634W        W19443   4.912  13.868  10.784 -0.2146  0.2760 -0.0867
 3635W        W19444   0.108   0.480   1.365  0.3048  0.0153  0.0200
 3636W        W19445   1.358  11.822  11.454  0.0886 -0.0377  0.0271
 3637W        W19446   5.349  16.282   3.713 -0.1751  0.2170 -0.0791
 3638W        W19447   8.363   7.712  14.164  0.0972  0.3047  0.1357
 3639W        W19448   6.801  16.027  13.155  0.1176  0.1042 -0.2724
 3640W        W19449  17.458   6.656   4.520 -0.3565 -0.2793  0.1492
 3641W        W19450   5.469  17.950   0.703  0.0286 -0.3178  0.0107
 3642W        W19451   4.584   3.966  11.918  0.0336  0.0145  0.3192
 3643W        W19452   2.111   1.291   2.537 -0.1534 -0.1082 -0.2187
 3644W        W19453   7.436   1.240  10.073  0.1310  0.0464  0.0892
 3645W        W19454   5.550   5.934  15.486  0.1040  0.1144 -0.2422
 3646W        W19455   8.121   4.525  11.315  0.1711 -0.1468  0.3895
 3647W        W19456   5.800   8.353   0.613 -0.2049 -0.2708  0.2071
 3648W        W19457   2.016   9.571  11.669 -0.4279 -0.0364 -0.1054
 3649W        W19458  14.983  13.845  11.177  0.1740 -0.1919 -0.1506
 3650W        W19459  12.843   1.919   1.390 -0.0755 -0.0438  0.3519
 3651W        W19460  13.773   5.501  13.302  0.3073 -0.0458  0.0510
 3652W        W19461  11.308   2.619   3.200  0.0501  0.0040  0.1867
 3653W        W19462  11.292   7.446   0.699 -0.0279 -0.1933  0.1468
 3654W        W19463   4.770   6.066   0.229 -0.3886 -0.1296  0.1809
 3655W        W19464   5.167   9.862   5.034  0.2083  0.1448  0.2344
 3656W        W19465   4.574   4.022   4.623 -0.3098  0.1201  0.4638
 3657W        W19466  17.817  16.559   4.958 -0.1156 -0.0435 -0.1145
 3658W        W19467  18.693   6.477   1.554 -0.3474 -0.1783 -0.0904
 3659W        W19468  11.144   6.178  12.057  0.1668  0.0640 -0.1495
 3660W        W19469  10.349   5.958  13.435 -0.1372  0.1539 -0.0416
 3661W        W19470  17.195  16.993  13.597  0.2107  0.0963  0.0665
 3662W        W19471  17.283  13.594   9.929 -0.4423 -0.1332 -0.0641
 3663W        W19472  17.246  16.826   4.183  0.0251 -0.1593  0.0931
 3664W        W19473  13.092   7.166   6.117 -0.1629  0.0998 -0.3793
 3665W        W19474  17.930  17.956   2.892 -0.3036 -0.0830  0.1693
 3666W        W19475   9.005   4.757   3.791 -0.1317 -0.0677 -0.0324
 3667W        W19476   8.925  14.087  13.503  0.1602 -0.2210  0.1847
 3668W        W19477   8.334  17.953   2.479 -0.0828 -0.3489 -0.1011
 3669W        W19478   7.501   8.244  11.875  0.1631  0.0090  0.3103
 3670W        W19479  17.380   6.615  13.855  0.0911  0.0686 -0.2111
 3671W        W19480  16.405   5.329   4.686  0.1355 -0.2621  0.1776
 3672W        W19481   0.282  14.214   3.592 -0.1466  0.0869 -0.0933
 3673W        W19482   7.393   5.093  12.513  0.1429 -0.1851  0.0194
 3674W        W19483   7.068  18.028  12.889  0.0644  0.0912  0.2235
 3675W        W19484  16.411  13.248   2.296 -0.0496  0.0515  0.3743
 3676W        W19485  11.547  11.933  10.653  0.1679 -0.1314  0.0458
 3677W        W19486  15.185   4.053  15.169 -0.1222 -0.3985  0.3996
 3678W        W19487  12.646   0.961  13.432  0.1607 -0.1040  0.0089
 3679W        W19488   9.322  16.055  13.560 -0.0730  0.1199  0.1065
 3680W        W19489   5.548   8.226  13.135  0.1876  0.2671  0.3229
 3681W        W19490  11.021  18.364  15.419 -0.0654 -0.1364 -0.1426
 3682W        W19491   4.304   9.723   4.660  0.0810 -0.3748  0.0062
 3683W        W19492  10.306  14.492   1.405  0.0388 -0.1275  0.1018
 3684W        W19493   3.450   7.255  10.098 -0.2184  0.2477  0.1127
 3685W        W19494  15.972  13.850  13.048 -0.2835 -0.1945  0.1294
 3686W        W19495   7.176  15.563   9.602  0.2725 -0.0004 -0.0009
 3687W        W19496  15.937  10.136   0.639 -0.1046 -0.1226  0.2508
 3688W        W19497  10.504   0.088   6.036  0.0302  0.1213 -0.0616
 3689W        W19498   4.227  15.667   0.276  0.1115 -0.2011  0.1278
 3690W        W19499   7.904  18.388   4.544 -0.1893  0.0592 -0.1282
 3691W        W19500   6.753  11.992   2.720 -0.2412  0.2349 -0.3141
 3692W        W19501  14.777   4.206   0.770 -0.0213  0.1672  0.1409
 3693W        W19502   1.577  14.611   0.919  0.0232  0.2814  0.0414
 3694W        W19503  11.462  15.371   5.006 -0.1979 -0.0121 -0.0328
 3695W        W19504   0.653  15.696  12.417 -0.2284 -0.0468 -0.4725
 3696W        W19505  18.084   8.665   4.238 -0.1203 -0.0090  0.1475
 3697W        W19506  16.793  16.108   0.628  0.1737  0.0466 -0.2966
 3698W        W19507  12.236  15.889   5.429  0.0713 -0.3129  0.2910
 3699W        W19508  11.583   0.719  13.393  0.0102 -0.2018 -0.3583
 3700W        W19509   4.227  11.510  10.554  0.0512 -0.0681  0.0384
 3701W        W19510   7.155   7.810   2.703 -0.1221  0.2190 -0.1996
 3702W        W19511   1.736  14.499  13.073  0.0776 -0.2322 -0.6163
 3703W        W19512  12.110  17.073   5.499  0.1366  0.0943  0.1925
 3704W        W19513   2.449   2.020   2.763  0.0448  0.2388  0.1336
 3705W        W19514  18.759   0.870  11.366 -0.0396 -0.1943  0.1106
 3706W        W19515   4.168   1.318   2.445  0.2902  0.0853 -0.1572
 3707W        W19516   5.664   0.158   0.839  0.1912  0.0052  0.0741
 3708W        W19517  11.433  17.910  14.386  0.1087  0.1922  0.0421
 3709W        W19518   4.651  14.113   1.013  0.2723  0.2535 -0.2292
 3710W        W19519   3.481  12.999   2.235  0.0801  0.4462 -0.2061
 3711W        W19520  11.307  15.185   4.061 -0.0182 -0.1955  0.0758
 3712W        W19521   4.500  18.243   2.059 -0.0834  0.1332 -0.3298
 3713W        W19522   2.504  14.980   0.585 -0.2860  0.0266 -0.2373
 3714W        W19523  12.455  17.100   2.127  0.1665 -0.0913 -0.1304
 3715W        W19524  15.453  17.311   0.554  0.3875 -0.1126 -0.2381
 3716W        W19525   1.807  18.202   0.039 -0.0126  0.0519 -0.1102
 3717W        W19526  14.734   4.848  14.600 -0.0337  0.2771  0.0797
 3718W        W19527   4.507   6.063   3.479  0.0153  0.0032 -0.0026
 3719W        W19528  17.393   4.617  11.732  0.4148  0.2126 -0.2241
 3720W        W19529   1.147   6.178   4.531 -0.0349  0.1084  0.0251
 3721W        W19530  17.698  11.504  12.345  0.3554  0.0167  0.2671
 3722W        W19531   4.042   8.758  14.739 -0.2234  0.0481 -0.2638
 3723W        W19532  16.449  13.706  13.177 -0.3013 -0.1574 -0.2462
 3724W        W19533  17.787  16.782   4.088 -0.0863  0.4166 -0.0371
 3725W        W19534  18.738  15.431   3.251  0.3713  0.2184 -0.2416
 3726W        W19535   5.019  12.279  13.298  0.0616 -0.0134 -0.4235
 3727W        W19536   4.336   5.976  15.213  0.1296 -0.0564 -0.0579
 3728W        W19537  17.283   5.165   5.198  0.2796 -0.2194  0.0826
 3729W        W19538   9.821   0.143   3.155 -0.3449  0.0419  0.0010
 3730W        W19539   0.166   5.982   2.235 -0.2497 -0.1671  0.2188
 3731W        W19540  16.008  10.050   3.164 -0.1588  0.2348 -0.1140
 3732W        W19541   5.717   4.045  15.219 -0.0412 -0.1409 -0.1596
 3733W        W19542  13.766   5.474  11.207  0.0080 -0.1272  0.2568
 3734W        W19543   4.450  17.464  11.587 -0.0200  0.1948 -0.1213
 3735W        W19544   6.171   8.094  13.014 -0.2852 -0.1709  0.1879
 3736W        W19545  10.390   7.674  14.194 -0.0497  0.0300  0.2532
 3737W        W19546  14.805   5.693   3.343  0.1782  0.1142  0.2073
 3738W        W19547  16.504   9.751   1.399 -0.3582  0.0940 -0.0012
 3739W        W19548   4.873   1.055   1.190 -0.1447  0.0329  0.5317
 3740W        W19549   0.763  11.644   2.357 -0.2333  0.1921  0.1822
 3741W        W19550   7.010   4.940  10.369  0.1208  0.2461 -0.1776
 3742W        W19551   8.520   8.119  11.142  0.0997  0.1077 -0.1126
 3743W        W19552   1.643  17.533   0.920 -0.0013 -0.0113  0.0606
 3744W        W19553   4.822   8.960   2.101  0.1082 -0.2195 -0.0183
 3745W        W19554  18.539  16.241  13.519 -0.1701 -0.2634  0.0806
 3746W        W19555   5.703   9.159   4.576  0.3038  0.0617 -0.3991
 3747W        W19556   7.831   7.974  10.654 -0.0037 -0.2097  0.4798
 3748W        W19557  10.692  11.096   3.921  0.0908  0.2601  0.0955
 3749W        W19558  11.943   2.363  12.145  0.3266 -0.2193 -0.2055
 3750W        W19559  16.009   8.782  15.166  0.2166 -0.0534 -0.1092
 3751W        W19560  15.696  15.847   0.584  0.0649 -0.0089 -0.0878
 3752W        W19561  16.856  11.260   2.700  0.1085  0.0021  0.0587
 3753W        W19562   0.462  17.873   0.301  0.1815 -0.0665  0.4001
 3754W        W19563  17.589   9.191   2.164 -0.3229  0.1311 -0.1119
 3755W        W19564   0.743   5.596  11.805 -0.0231 -0.1577 -0.0780
 3756W        W19565   2.921   6.499  12.636 -0.1881  0.2530 -0.2057
 3757W        W19566  15.532   1.514   0.213  0.2182 -0.1711 -0.0036
 3758W        W19567  17.453   4.636   2.541 -0.0121 -0.1453 -0.2568
 3759W        W19568   1.923  16.681  12.142 -0.1264  0.0341  0.1206
 3760W        W19569   2.361   0.086  11.457 -0.2118  0.2454 -0.1484
 3761W        W19570   4.638  17.157   1.469  0.2869 -0.0459 -0.0293
 3762W        W19571   4.452   3.840   1.689 -0.2505 -0.0087 -0.0542
 3763W        W19572   5.803   2.780   3.258 -0.2124  0.2619 -0.2357
 3764W        W19573  15.548  11.618   1.598  0.0067 -0.0810 -0.2240
 3765W        W19574  15.765  14.623   1.857  0.1615  0.2791  0.3104
 3766W        W19575  12.209   6.330  15.151 -0.2370 -0.0149 -0.0494
 3767W        W19576   7.911  10.987   1.775 -0.1642 -0.1427  0.1025
 3768W        W19577   7.408  12.096   1.099 -0.1769  0.2789 -0.1675
 3769W        W19578  12.574   5.217   9.783 -0.0835 -0.1163 -0.5228
 3770W        W19579   8.493   0.621   1.467 -0.1833 -0.4616  0.0103
 3771W        W19580   3.408   3.923  13.573  0.3158 -0.0074 -0.0001
 3772W        W19581   8.343   2.813   2.121 -0.0027  0.1700 -0.2634
 3773W        W19582   9.016  15.100  13.817  0.1856 -0.0357 -0.0576
 3774W        W19583   9.801   0.012  14.771 -0.0620 -0.2274 -0.1867
 3775W        W19584  10.783  13.932  14.719 -0.1417  0.3170  0.2486
 3776W        W19585   5.643  13.821  13.228 -0.4190  0.4178  0.3295
 3777W        W19586  11.542   6.986   4.964  0.0604  0.3421 -0.2228
 3778W        W19587   5.462  14.180   3.571  0.0534 -0.1753  0.3964
 3779W        W19588  16.613   0.500  12.752 -0.1175 -0.0538  0.2493
 3780W        W19589  14.509   1.423  13.390  0.0210  0.1363  0.2598
 3781W        W19590   9.348   0.845   4.494  0.0624  0.0318  0.1909
 3782W        W19591  15.049  12.724  14.647 -0.0817 -0.1864 -0.0001
 3783W        W19592   9.253   3.668   4.939 -0.1019  0.1612  0.0395
 3784W        W19593   2.744  16.011  14.369 -0.2661 -0.2895  0.0282
 3785W        W19594   3.652   6.357  11.838  0.2425  0.0750 -0.0678
 3786W        W19595  10.551  14.892   1.542  0.1307 -0.0397 -0.2915
 3787W        W19596   9.441   1.491  15.249  0.1492 -0.2152 -0.1230
 3788W        W19597  11.292   5.532   4.720 -0.3349  0.0156 -0.1395
 3789W        W19598   5.230   1.075   2.092  0.0010  0.0089  0.3281
 3790W        W19599  12.475   2.919   0.795  0.0241  0.1233  0.0502
 3791W        W19600  12.229   8.546   3.159 -0.2544 -0.0433 -0.1091
 3792W        W19601  13.617  10.710  10.542 -0.2723 -0.2104  0.5284
 3793W        W19602   0.802   4.746   3.146  0.0361  0.1885  0.0430
 3794W        W19603  16.594   4.919   1.851  0.1962 -0.0103  0.0770
 3795W        W19604   4.022   6.512  13.455 -0.0213 -0.1648 -0.4222
 3796W        W19605   5.758  12.768   1.290  0.1004  0.1687  0.1793
 3797W        W19606   4.102  17.707   4.383 -0.1526 -0.1234 -0.1726
 3798W        W19607  15.303   7.600  11.268 -0.0186 -0.0520  0.1657
 3799W        W19608  11.194  10.897  12.285 -0.1017 -0.2298  0.1664
 3800W        W19609  12.141  14.827   4.629 -0.0757 -0.2183 -0.1042
 3801W        W19610  13.724  13.943  12.301 -0.0770 -0.3087 -0.1989
 3802W        W19611   3.132  12.406  13.112  0.2195 -0.1669 -0.1492
 3803W        W19612   5.280   1.707  11.382  0.0589 -0.1280  0.0351
 3804W        W19613   4.915   9.985   2.111  0.0438 -0.1543  0.0699
 3805W        W19614  10.585   5.747  10.482 -0.1867  0.0596  0.0419
 3806W        W19615   0.874   8.971  14.176 -0.0522 -0.0234  0.3910
 3807W        W19616  15.025  18.742  13.139 -0.1047 -0.1921 -0.3273
 3808W        W19617   4.230   0.850   2.040  0.1555 -0.1974  0.0086
 3809W        W19618   6.000  17.447  15.119  0.0842 -0.0602 -0.3550
 3810W        W19619   5.467   8.674   4.777  0.0374 -0.0658  0.0555
 3811W        W19620   3.788   2.572  14.846  0.3240 -0.1597 -0.0271
 3812W        W19621  12.103   2.430   0.972 -0.1879  0.0251 -0.1267
 3813W        W19622   7.524   7.993   4.293 -0.1478  0.0036  0.0920
 3814W        W19623  16.613  15.240  11.068 -0.1311  0.1065  0.2722
 3815W        W19624  11.416   5.585   3.126  0.1139 -0.0329  0.0509
 3816W        W19625   1.535   7.724  14.700 -0.0750  0.1374  0.0853
 3817W        W19626  16.437   1.798   3.110  0.0416 -0.0153  0.2406
 3818W        W19627   4.561   7.696   2.652  0.2028 -0.0791  0.0349
 3819W        W19628  13.631   0.700  11.719 -0.0170 -0.1034 -0.3549
 3820W        W19629  10.224   8.425  13.147 -0.4113  0.2283  0.1635
 3821W        W19630   6.848   5.091  11.085  0.1266  0.2057 -0.1031
 3822W        W19631   9.346  17.990   2.485  0.0187 -0.1288 -0.2441
 3823W        W19632   6.410  15.755  13.594  0.2158  0.3003 -0.3558
 3824W        W19633  17.862  16.680   3.012 -0.1988  0.1352  0.2036
 3825W        W19634   6.752   3.091  14.521  0.0805  0.0936  0.1698
 3826W        W19635   2.109   1.803   3.434 -0.2416  0.0427 -0.0620
 3827W        W19636   2.239  11.957  12.243  0.3085  0.2812 -0.1991
 3828W        W19637  18.243  17.281  11.627 -0.0731  0.1439 -0.2384
 3829W        W19638   4.800   1.636  13.273 -0.0279 -0.0662 -0.1572
 3830W        W19639   2.018   4.484   2.304  0.0188  0.0415 -0.0496
 3831W        W19640  12.379  12.922   4.449  0.2444  0.2406 -0.2176
 3832W        W19641  14.678  10.056   4.402 -0.1099  0.2025 -0.1433
 3833W        W19642  17.577   9.323  12.145 -0.0471  0.3098 -0.0794
 3834W        W19643  10.243  11.746   1.709 -0.2373  0.0919  0.2804
 3835W        W19644  13.608  13.007   3.187  0.0423  0.0779 -0.2974
 3836W        W19645   9.286   3.161   6.187 -0.0922  0.0983 -0.1813
 3837W        W19646  17.683  12.880  12.338 -0.1621 -0.1342  0.2679
 3838W        W19647   0.965  16.724  15.552  0.1922  0.2491 -0.0277
 3839W        W19648   4.171   2.344   4.279  0.1597  0.1425  0.1938
 3840W        W19649   8.861   5.395  14.412 -0.0127  0.1607  0.1227
 3841W        W19650  13.065   7.529   3.857  0.0243  0.3555 -0.0381
 3842W        W19651   4.970   0.062  15.508 -0.0263 -0.0164  0.3136
 3843W        W19652   9.693  12.144  11.026 -0.1268 -0.0022  0.0948
 3844W        W19653  17.253  12.387  14.877 -0.2880  0.3533 -0.0280
 3845W        W19654   7.079  12.170  14.172 -0.0939 -0.1456  0.3163
 3846W        W19655   4.831  12.870  13.156 -0.0514 -0.2082 -0.3066
 3847W        W19656   2.541   3.727  11.667 -0.4217  0.0671  0.1564
 3848W        W19657  15.961  17.249   3.999  0.0799 -0.0870 -0.0092
 3849W        W19658   5.553   5.447   4.546 -0.0075  0.0480 -0.2460
 3850W        W19659  12.415   3.295  10.936  0.0273  0.0925 -0.0245
 3851W        W19660  15.507   6.403  10.996 -0.1038  0.0445  0.3182
 3852W        W19661   6.857   2.647   2.315 -0.4738  0.0051 -0.1802
 3853W        W19662   6.813  10.737  12.935 -0.1784 -0.2448  0.1406
 3854W        W19663  17.739  15.258  13.783  0.1484  0.2193  0.5265
 3855W        W19664  11.931   7.272  11.896  0.0712 -0.1080  0.2670
 3856W        W19665  14.715   2.357  14.113  0.1388  0.1314  0.1208
 3857W        W19666   1.349  10.863  11.307 -0.4549  0.3566  0.1551
 3858W        W19667   7.498   0.209   2.819 -0.2405 -0.0158  0.1940
 3859W        W19668  14.364   8.916   0.548 -0.2418 -0.3003 -0.0942
 3860W        W19669  14.141   4.781   1.338  0.0487  0.1959 -0.2183
 3861W        W19670  13.720  16.134  11.244  0.2751  0.1205  0.1889
 3862W        W19671   0.822   5.502  14.612  0.0708  0.2358  0.0429
 3863W        W19672   7.046   3.921  11.659 -0.0453  0.0391 -0.0989
 3864W        W19673   0.230  18.095   3.108 -0.3456 -0.4166 -0.2653
 3865W        W19674   1.021  13.615  14.347  0.2109  0.1684 -0.2695
 3866W        W19675   9.686   1.347  12.316  0.4130  0.1873  0.1660
 3867W        W19676   0.340   8.038   4.164 -0.5217  0.0337  0.0581
 3868W        W19677   0.148  11.676  12.693  0.0103 -0.1817  0.1197
 3869W        W19678  11.182  11.428  15.229 -0.2071  0.0041  0.1586
 3870W        W19679   8.141   8.535   4.481  0.1260 -0.0131  0.0790
 3871W        W19680   0.949   6.036  10.732  0.3230  0.1005 -0.0516
 3872W        W19681  12.574   1.435   5.105 -0.1573  0.2519 -0.0086
 3873W        W19682   4.137   3.991  14.132 -0.0203 -0.1381 -0.0728
 3874W        W19683   3.759  16.110   3.974 -0.0182 -0.0899 -0.1161
 3875W        W19684  10.993  15.367   0.979  0.1235  0.1959  0.3165
 3876W        W19685   2.452   6.665  12.852  0.3502 -0.0754 -0.2820
 3877W        W19686  18.599   1.694  11.181 -0.2122  0.2649  0.0605
 3878W        W19687   6.883   7.629   0.876  0.0498  0.0057  0.1289
 3879W        W19688  13.969  16.733  15.474 -0.0692  0.1607  0.0407
 3880W        W19689  13.787  10.307  14.893 -0.1460 -0.3606  0.4180
 3881W        W19690   0.577   1.653  14.561 -0.1843 -0.3976 -0.2657
 3882W        W19691   9.253   9.246  11.639 -0.0531 -0.0216 -0.1207
 3883W        W19692   1.576   9.299   0.070 -0.0200 -0.1166 -0.3299
 3884W        W19693   1.906   5.202  13.525 -0.0851 -0.1444  0.1070
 3885W        W19694   0.681   8.322  10.645 -0.1208 -0.2111 -0.1973
 3886W        W19695   9.201  12.586  12.857 -0.0409  0.2662 -0.3419
 3887W        W19696  12.741   9.078   3.833  0.3460  0.3825  0.2311
 3888W        W19697   9.233  15.007   4.482  0.0264  0.2063  0.2420
 3889W        W19698  17.821  17.511  11.145  0.0416  0.1873  0.2834
 3890W        W19699  17.803   0.176   4.145  0.0106  0.4520 -0.0310
 3891W        W19700  13.065   7.377  13.571  0.1684 -0.1957  0.0399
 3892W        W19701   7.242   4.759  14.080 -0.0112 -0.1210  0.0359
 3893W        W19702  18.368  10.644  12.942 -0.1298  0.0013 -0.1105
 3894W        W19703   8.826   0.993  12.593  0.0077 -0.0508 -0.1465
 3895W        W19704   2.520   3.139   2.011 -0.2404  0.3452 -0.3359
 3896W        W19705  14.936  15.959   3.594  0.1737 -0.2249  0.2761
 3897W        W19706  14.313  11.025  11.184  0.2238  0.1282  0.0188
 3898W        W19707   6.662  14.670   1.648  0.3524 -0.0749 -0.1695
 3899W        W19708  12.504   4.201  14.785  0.1968  0.0058 -0.0231
 3900W        W19709   1.532   1.449   4.363 -0.5041 -0.1381  0.0098
 3901W        W19710  15.498   4.150  11.540  0.3134  0.3132  0.1204
 3902W        W19711   5.296  16.890   3.256  0.3183  0.1992 -0.0996
 3903W        W19712   9.018   5.521  13.538  0.4500  0.1265  0.0179
 3904W        W19713  16.703   8.741   0.936 -0.1428 -0.0678  0.4310
 3905W        W19714  18.275   6.023   1.163 -0.1505 -0.3746  0.2120
 3906W        W19715   4.617   1.768  11.116  0.4280  0.0022  0.2257
 3907W        W19716   4.289   9.096   3.822  0.0155  0.1065  0.0507
 3908W        W19717   3.477  15.789  11.744 -0.0436  0.3459  0.0614
 3909W        W19718   2.154   9.265   1.973  0.0078 -0.0621 -0.1673
 3910W        W19719  10.212   4.132  14.857  0.2293 -0.2821 -0.2079
 3911W        W19720  10.504  15.352   1.288 -0.3009 -0.2592  0.1332
 3912W        W19721  12.541  10.953   3.207 -0.2505 -0.0944  0.1294
 3913W        W19722   1.862   4.961   2.378  0.0201 -0.1739  0.4062
 3914W        W19723   5.077   8.146  11.160 -0.2539 -0.1924 -0.1166
 3915W        W19724  10.865   0.721   4.980  0.1677 -0.0859 -0.0444
 3916W        W19725   5.350  14.326   4.546  0.1392  0.0607 -0.1691
 3917W        W19726  18.646   1.269   1.961 -0.2161 -0.1324 -0.3204
 3918W        W19727   9.055  12.928   4.431  0.0194 -0.1138  0.0027
 3919W        W19728   1.324   6.411   0.858 -0.0816  0.1588  0.1917
 3920W        W19729   1.455   0.646  14.656 -0.0474  0.1812 -0.1496
 3921W        W19730   4.471   2.568   1.317 -0.2443  0.1319  0.2962
 3922W        W19731   8.311   2.256   2.087  0.1058  0.1756 -0.2674
 3923W        W19732   0.567  10.845  12.909  0.4263  0.1461 -0.0810
 3924W        W19733   9.292   8.388  11.270  0.0279  0.0163 -0.0423
 3925W        W19734  12.032   9.529   2.233  0.0909  0.3828 -0.0316
 3926W        W19735   5.693  16.469   9.259  0.0225  0.0648  0.0267
 3927W        W19736  18.222  17.524  13.630 -0.2181 -0.0428 -0.3002
 3928W        W19737  16.941   6.541  10.796 -0.1508  0.0137  0.1163
 3929W        W19738  17.473   0.526   2.369  0.0507  0.0286  0.1622
 3930W        W19739  16.247   0.479  11.816 -0.1383 -0.0604 -0.1739
 3931W        W19740   6.917  16.126  12.299  0.0424  0.3782 -0.0477
 3932W        W19741  14.230  11.246   5.182 -0.0014 -0.2121 -0.1129
 3933W        W19742   7.804   6.292  13.718 -0.0921  0.1313 -0.2043
 3934W        W19743  15.775  18.316  10.444  0.2107  0.1326 -0.0068
 3935W        W19744  15.230   4.605  11.628  0.2285  0.3944  0.2372
 3936W        W19745   4.315   6.285   2.592  0.0271  0.0590  0.2616
 3937W        W19746  16.348   2.782  13.318 -0.0954 -0.1098  0.5335
 3938W        W19747   2.292   4.616  13.631 -0.2208 -0.1593 -0.1076
 3939W        W19748   8.493   2.693   0.340  0.0961  0.0404 -0.2020
 3940W        W19749   1.421   2.048   3.255  0.4078 -0.1229  0.0270
 3941W        W19750  10.043   9.554  11.283  0.2525 -0.0006  0.1692
 3942W        W19751  16.346  12.644  14.564 -0.2416 -0.0474  0.2446
 3943W        W19752  16.606   4.186   5.298 -0.1677  0.2916  0.0300
 3944W        W19753  13.067   5.132   9.916  0.1498 -0.1201  0.1055
 3945W        W19754   3.710  14.860  13.135  0.1803 -0.0624 -0.1083
 3946W        W19755   5.156  15.471   0.474 -0.2746  0.1097  0.0708
 3947W        W19756   6.284   0.090   2.345 -0.4819  0.0387  0.2344
 3948W        W19757  11.671  13.821   0.641  0.1918 -0.0853 -0.1228
 3949W        W19758  16.236  15.959  15.311 -0.1386 -0.0666  0.1454
 3950W        W19759   2.447   1.368   3.353  0.1765  0.5075  0.0375
 3951W        W19760   2.051   6.948   4.917  0.2169 -0.4184  0.2048
 3952W        W19761  15.772   4.178   4.614  0.5462  0.2241 -0.1048
 3953W        W19762   8.283  13.198   1.144  0.1136 -0.1550  0.0870
 3954W        W19763   6.076   0.965   1.326  0.0555  0.1403  0.1261
 3955W        W19764  12.535  15.814   3.756 -0.3832 -0.1600 -0.3473
 3956W        W19765   7.756   3.097  15.154  0.0042  0.0136  0.0185
 3957W        W19766  11.683   2.980  11.705 -0.1054 -0.2098 -0.0474
 3958W        W19767  17.247  15.236   4.923  0.4804  0.0512  0.0579
 3959W        W19768   8.005  14.429   3.043 -0.3179  0.1941 -0.3336
 3960W        W19769  15.786   0.176  14.026 -0.1274  0.0573  0.2183
 3961W        W19770  16.365   3.907   0.565 -0.0237  0.5364  0.1035
 3962W        W19771   5.957  12.167  12.592 -0.4025  0.0630  0.3010
 3963W        W19772   3.784   3.393  10.629 -0.0841 -0.0336 -0.1562
 3964W        W19773   4.179   4.764   0.731  0.0821  0.1751  0.0226
 3965W        W19774   5.962  16.001  11.013  0.5372 -0.3392  0.0719
 3966W        W19775  15.178   1.041   1.599  0.0291  0.0969 -0.0489
 3967W        W19776   9.460  15.254  13.982  0.0052  0.0027  0.2883
 3968W        W19777   6.978  13.977  14.796 -0.0771  0.1666  0.2486
 3969W        W19778   2.692  15.442  13.175  0.0731  0.0006  0.2214
 3970W        W19779  11.773   9.570   0.691  0.5033 -0.2069 -0.0067
 3971W        W19780  16.553  15.737  11.221 -0.1515 -0.0604  0.3322
 3972W        W19781   0.704  18.353  15.101  0.0438 -0.1761  0.0574
 3973W        W19782  18.604   9.282  15.310  0.5197  0.3159  0.1993
 3974W        W19783  13.059   4.511   4.705  0.1983 -0.0001 -0.0470
 3975W        W19784   3.601   3.971  11.393  0.0818 -0.2560 -0.0922
 3976W        W19785  16.524   9.837  15.500  0.4661  0.0284 -0.0311
 3977W        W19786   5.233   6.280   4.590  0.3485  0.2774 -0.4666
 3978W        W19787  14.683  14.848  11.364  0.0619 -0.2357 -0.2496
 3979W        W19788  16.955   3.007   0.230  0.2401  0.0215 -0.2004
 3980W        W19789   3.413  10.869   3.546 -0.0404  0.0674  0.0721
 3981W        W19790  16.202  12.883   1.024 -0.1021 -0.0618  0.1826
 3982W        W19791   6.951   9.088   2.419 -0.2113 -0.1003 -0.0644
 3983W        W19792   7.869   3.772   0.713 -0.1178  0.0409 -0.1565
 3984W        W19793   6.389   7.572  12.365 -0.2836 -0.3347  0.0610
 3985W        W19794  12.288  16.353  13.087 -0.0126  0.3248 -0.2231
 3986W        W19795   4.994   5.924   5.701 -0.2295  0.2114 -0.2760
 3987W        W19796  14.822  15.443  14.449 -0.1387 -0.1348 -0.0195
 3988W        W19797   4.500  13.164   0.165  0.0237 -0.2981  0.0496
 3989W        W19798   8.238   9.241  14.144  0.1821  0.1354 -0.2608
 3990W        W19799  12.853   2.534  10.372 -0.1647  0.1447 -0.0443
 3991W        W19800  17.512   8.922  11.434 -0.3433  0.1321  0.2081
 3992W        W19801   5.585   0.710   2.001  0.4163  0.0001 -0.0061
 3993W        W19802  11.668  12.377  11.563  0.0157  0.0096 -0.2039
 3994W        W19803  17.351   8.067  13.269 -0.4402  0.0704 -0.0550
 3995W        W19804   4.163   5.494   6.140 -0.1324 -0.0055  0.0723
 3996W        W19805   1.918  18.160  12.697 -0.1046 -0.3947 -0.1304
 3997W        W19806   8.059   1.918  11.743 -0.0914 -0.1510  0.2157
 3998W        W19807   1.138  10.115   3.816  0.1892  0.0078  0.1697
 3999W        W19808   5.966   9.758   4.002 -0.2959  0.1113 -0.1327
 4000W        W19809  12.083   7.780  15.028  0.1720  0.0825  0.0272
 4001W        W19810   5.554  12.419   0.976 -0.2176 -0.0441 -0.0692
 4002W        W19811   0.216  14.233  15.495  0.0603 -0.0545  0.0139
 4003W        W19812   8.628  17.462  15.060 -0.1526 -0.0365 -0.1147
 4004W        W19813   3.221  16.032  14.527 -0.0315 -0.4172 -0.1558
 4005W        W19814   3.075   8.700   3.868  0.0567 -0.1468  0.1772
 4006W        W19815  11.081  12.327   1.561  0.1009  0.1111  0.0737
 4007W        W19816   5.801   4.627   4.502  0.4393  0.0321 -0.4150
 4008W        W19817  17.223  16.908   1.794 -0.0546 -0.0635 -0.1921
 4009W        W19818   5.524   2.442   3.530 -0.3910  0.1306  0.0365
 4010W        W19819   4.104  18.212   3.379 -0.0553  0.0534  0.2209
 4011W        W19820   1.485   8.367   1.574  0.2693  0.0884  0.0118
 4012W        W19821   7.098   6.962  15.377  0.0366 -0.0863  0.2909
 4013W        W19822  18.306  18.381   1.793  0.0183  0.1762  0.0090
 4014W        W19823   8.399   1.952  13.265 -0.2588  0.2196  0.0597
 4015W        W19824   3.579   7.048  13.708  0.0322 -0.0942 -0.0828
 4016W        W19825  17.613  11.393   3.828  0.1260 -0.1072 -0.0484
 4017W        W19826   4.105   1.741  15.386 -0.1615 -0.3156 -0.1848
 4018W        W19827  11.703   6.294   2.399  0.1979  0.3714  0.0940
 4019W        W19828   6.646  18.537   5.399  0.0105  0.0391  0.0534
 4020W        W19829  12.430  11.586  13.101  0.1203  0.0239 -0.0281
 4021W        W19830  17.577  17.563   3.523 -0.1033 -0.0876  0.3059
 4022W        W19831  17.153  12.577  11.996 -0.0254  0.0295 -0.1962
 4023W        W19832  16.514  11.943  11.228 -0.0035  0.0872 -0.0110
 4024W        W19833   8.674  16.879  14.377 -0.4316  0.4279 -0.2692
 4025W        W19834  17.335  11.705   4.256  0.0722  0.1640 -0.2943
 4026W        W19835   4.815  16.438  13.365  0.3169 -0.2149 -0.0478
 4027W        W19836   1.564   9.849   5.271 -0.1452 -0.0366 -0.0372
 4028W        W19837  18.496   3.135   0.976 -0.5624 -0.1462 -0.0822
 4029W        W19838  16.720  10.488   1.235 -0.0246  0.0101  0.0205
 4030W        W19839  11.337   7.574  15.172  0.2011  0.0644  0.0567
 4031W        W19840  17.648  11.573  10.881  0.1610 -0.1741 -0.0989
 4032W        W19841   6.134   2.417   1.653  0.0209 -0.0708 -0.0285
 4033W        W19842   3.846  15.260  15.247  0.2985  0.3582  0.4241
 4034W        W19843  12.192   1.102   1.109 -0.0898  0.1772 -0.1318
 4035W        W19844  13.171   6.650   4.826  0.1126 -0.0727 -0.1027
 4036W        W19845  14.467   1.462  14.521  0.0229  0.3027 -0.3015
 4037W        W19846   8.734  13.267  11.599  0.0770  0.0121  0.1212
 4038W        W19847  14.172  16.418   6.467 -0.3172 -0.0783  0.0045
 4039W        W19848  11.774   7.387   4.029  0.1992  0.3899  0.1642
 4040W        W19849  12.483  13.175   1.633  0.2011 -0.1519  0.1393
 4041W        W19850  15.775   2.568   2.907 -0.0040  0.0625  0.2907
 4042W        W19851   6.351   5.920  13.787  0.0865  0.2475  0.0558
 4043W        W19852   7.734  18.519   3.560 -0.0457 -0.2207 -0.1003
 4044W        W19853  18.527  16.360  13.042 -0.1092 -0.2177 -0.0836
 4045W        W19854   9.837  14.947   3.639  0.1690 -0.1625 -0.3465
 4046W        W19855   9.456  16.919   2.638  0.1174  0.0741  0.0655
 4047W        W19856   0.440   7.187   1.400 -0.0823  0.0805  0.3067
 4048W        W19857  18.755   9.588   0.089 -0.0425 -0.1456  0.0065
 4049W        W19858  17.237  16.647   1.259 -0.0711 -0.0683  0.3762
 4050W        W19859   2.497  15.321  10.984 -0.0039  0.0101  0.0454
 4051W        W19860   1.379   2.696   1.751  0.1689 -0.0294  0.1822
 4052W        W19861   9.474  18.275  12.489  0.2321 -0.3480  0.0281
 4053W        W19862  17.436   9.488   2.861 -0.0545  0.2104  0.1226
 4054W        W19863   8.451   5.372   1.326  0.0716  0.2968 -0.0278
 4055W        W19864   7.974   2.876  11.819  0.0369 -0.3055 -0.1411
 4056W        W19865  10.476  15.589  12.181 -0.0461  0.0244  0.0991
 4057W        W19866   4.904   2.614   5.615 -0.3032  0.0586 -0.1796
 4058W        W19867  10.820  14.792  12.294 -0.3237 -0.0512  0.0333
 4059W        W19868   8.877  12.903   3.270  0.2988  0.3067  0.0458
 4060W        W19869  16.397   6.262  11.171 -0.1382 -0.3424  0.2295
 4061W        W19870  13.164   3.743  12.004 -0.1892  0.2564  0.0054
 4062W        W19871   6.972  13.720   5.259  0.0355  0.2986 -0.2488
 4063W        W19872  17.470  14.709   5.418  0.1945 -0.1703 -0.0384
 4064W        W19873  18.706   9.523   0.598 -0.0017  0.1375 -0.1453
 4065W        W19874  13.998  17.115  10.862  0.1432  0.1695 -0.0067
 4066W        W19875   3.054   5.386   3.213 -0.2415  0.0688 -0.1592
 4067W        W19876  15.096   9.071  13.572  0.1185  0.0351  0.2139
 4068W        W19877   3.887  14.902   2.580 -0.1579  0.4175 -0.0140
 4069W        W19878   0.066   8.720   4.495 -0.3424  0.0658 -0.1301
 4070W        W19879   7.273  17.149   1.345  0.0927  0.1488  0.0421
 4071W        W19880   0.648   3.302  11.982  0.1986  0.3006 -0.1167
 4072W        W19881   7.943  18.109   3.714  0.1482 -0.3811  0.1302
 4073W        W19882  11.817  16.712  14.133  0.0288 -0.2720 -0.0432
 4074W        W19883   1.658  13.285   1.968  0.3964 -0.0110  0.1082
 4075W        W19884   4.053  13.657  10.422  0.3758 -0.2361  0.0785
 4076W        W19885  10.924   1.721   2.941 -0.0582  0.1005  0.0631
 4077W        W19886  15.650  13.420  13.009 -0.1110 -0.0663  0.0339
 4078W        W19887  18.747  11.457  14.923  0.0693  0.2660  0.0599
 4079W        W19888  10.244   4.090  12.585  0.0463  0.2596  0.0891
 4080W        W19889   9.674   0.376  12.026 -0.1492 -0.1282  0.0322
 4081W        W19890   5.029   7.440  12.189  0.0398 -0.0085 -0.0751
 4082W        W19891   3.523  16.120   1.543  0.0633 -0.1001  0.0911
 4083W        W19892   8.895  12.789  14.609 -0.3416  0.3117  0.1528
 4084W        W19893   2.706  11.702  14.408  0.2460 -0.0191 -0.0740
 4085W        W19894   6.786   1.002   5.148 -0.0716 -0.0231 -0.0408
 4086W        W19895  10.538  16.583  13.489 -0.2683 -0.1224  0.1375
 4087W        W19896  16.128   7.683   4.548 -0.0672  0.2307  0.0265
 4088W        W19897   0.760   1.821  12.642  0.2469  0.2164  0.3752
 4089W        W19898  13.496   0.014   0.197  0.0644  0.2759 -0.2355
 4090W        W19899   6.439   0.897   4.179  0.1201  0.0423  0.2256
 4091W        W19900  11.251  10.967   4.048  0.3589 -0.0962 -0.0885
 4092W        W19901   1.255  10.333  12.832  0.2104 -0.0861 -0.1840
 4093W        W19902  13.736  15.902   4.287  0.0476  0.0611  0.1084
 4094W        W19903   9.475  10.685   0.971 -0.2753  0.3766  0.2670
 4095W        W19904   6.864   1.333   3.369 -0.1400  0.2641  0.3216
 4096W        W19905  16.495  12.533  13.750  0.0070  0.2241 -0.1734
 4097W        W19906  15.978  12.811   5.740  0.0441  0.2997 -0.2362
 4098W        W19907  14.460   3.098   3.247 -0.1625  0.0038 -0.0772
 4099W        W19908   8.866   5.383   2.310  0.0377  0.1172 -0.0880
 4100W        W19909   2.560   1.655   3.743 -0.0272  0.1275 -0.2457
 4101W        W19910  13.956   6.044  11.490 -0.1533 -0.0984  0.0081
 4102W        W19911   0.395   8.565  14.362 -0.0082 -0.0070  0.0747
 4103W        W19912   0.965   5.471  12.221  0.0479  0.0508 -0.4107
 4104W        W19913   8.054  12.482  12.468  0.1305  0.2176  0.4222
 4105W        W19914  13.759   0.559   6.374 -0.0173  0.1761 -0.1887
 4106W        W19915   4.835   3.581   2.164  0.0216 -0.1295 -0.0662
 4107W        W19916  10.891  17.202  14.305  0.3839  0.0694  0.0309
 4108W        W19917   5.519   3.967   5.148  0.1238  0.1722  0.1191
 4109W        W19918   7.121  15.753  10.053 -0.0744 -0.0312  0.0118
 4110W        W19919  17.019  17.965   4.177 -0.4488  0.3132 -0.1951
 4111W        W19920  18.542   4.659  12.213  0.1437 -0.0981 -0.2699
 4112W        W19921  15.229   2.663   3.575  0.0186 -0.0935  0.0225
 4113W        W19922   7.339  17.546   3.410 -0.1111 -0.0216 -0.0047
 4114W        W19923  16.437  14.357  13.595 -0.1824 -0.1141  0.1721
 4115W        W19924   0.100  12.419   0.159 -0.2870 -0.0094  0.0435
 4116W        W19925   2.070   0.677  15.261  0.1039 -0.1956  0.1053
 4117W        W19926   3.593   1.345  12.038 -0.3407  0.1775  0.0504
 4118W        W19927   5.558   2.080   0.816 -0.2294  0.2337  0.1952
 4119W        W19928   2.671   8.853   4.196  0.0284  0.1363  0.1326
 4120W        W19929  18.026   4.582   3.429  0.2478  0.0011 -0.0211
 4121W        W19930  17.377  12.884  10.400  0.0919  0.0589 -0.1223
 4122W        W19931   3.675   2.366  11.927 -0.0407 -0.0365  0.2507
 4123W        W19932  11.171   1.396   3.867  0.0321  0.0733 -0.2398
 4124W        W19933  18.174  10.099   2.346  0.0338 -0.0901 -0.2455
 4125W        W19934   3.388  15.388  10.988 -0.0351  0.3022 -0.0273
 4126W        W19935  15.212   3.848   0.667 -0.0076 -0.1957  0.1589
 4127W        W19936  17.878  10.157  10.879 -0.0656  0.0078  0.0655
 4128W        W19937   2.467  17.292   1.207  0.4051 -0.1386  0.2467
 4129W        W19938   4.094  16.911  13.007  0.1725  0.0534 -0.1642
 4130W        W19939   6.113   6.481  13.587  0.1291  0.2242  0.0721
 4131W        W19940  14.877  15.734   1.050  0.0366  0.3597 -0.0376
 4132W        W19941   2.401   7.776  11.921 -0.0727 -0.0291 -0.3160
 4133W        W19942   5.803   5.482   0.659  0.1325  0.1293  0.0084
 4134W        W19943  10.797  11.061   4.638 -0.0322 -0.0234  0.1821
 4135W        W19944   7.276  13.147   4.070 -0.0456  0.0328  0.0948
 4136W        W19945  11.985  17.226  11.977  0.3157  0.1249 -0.2492
 4137W        W19946  16.467   5.759   0.533  0.5551 -0.0990 -0.1632
 4138W        W19947   9.979  17.330   3.517 -0.1948  0.2595  0.1078
 4139W        W19948   3.752   6.568   5.971 -0.0855 -0.1011 -0.2820
 4140W        W19949   8.388  12.195  13.492 -0.0307 -0.0652 -0.1805
 4141W        W19950  13.457   2.813   4.452 -0.0096 -0.2332 -0.0912
 4142W        W19951   9.108  17.536  13.488  0.2017 -0.0161 -0.1615
 4143W        W19952  14.417  18.228   5.851  0.0591  0.0187  0.0716
 4144W        W19953   7.654  11.273   0.811  0.1730  0.0750  0.1897
 4145W        W19954  12.986   4.010  12.605  0.1829  0.2028  0.0242
 4146W        W19955  18.618   1.523  15.206 -0.1267  0.0165  0.1079
 4147W        W19956   0.654   0.870   3.007 -0.0074 -0.1364 -0.1136
 4148W        W19957  11.187   5.851  13.540  0.0121  0.0228 -0.1167
 4149W        W19958  15.568  12.330  11.130 -0.0830  0.1622 -0.1458
 4150W        W19959  10.979   5.346   4.351 -0.1143 -0.0489 -0.2811
 4151W        W19960  11.557   2.896  11.238 -0.1770  0.0334  0.1161
 4152W        W19961   6.036   8.991   0.741 -0.1527 -0.0756 -0.2013
 4153W        W19962  13.484   8.763   0.963 -0.3877 -0.1247  0.3476
 4154W        W19963  13.427  16.728   1.258  0.0974 -0.0687 -0.0165
 4155W        W19964   8.908  13.290  14.503  0.0599  0.4482  0.1699
 4156W        W19965  12.557   7.267  11.220 -0.0001 -0.1709 -0.0702
 4157W        W19966  10.128   1.404   4.999 -0.0531 -0.0527 -0.0701
 4158W        W19967   0.673  10.052  10.795  0.0536  0.1967 -0.1384
 4159W        W19968  15.596  16.779  11.340  0.0464  0.0993  0.0132
 4160W        W19969  10.118   3.306   2.570  0.2678 -0.3598  0.0853
 4161W        W19970  17.445  18.122   5.467 -0.0023  0.1665  0.0951
 4162W        W19971   8.203   2.732   1.626  0.2457  0.1924 -0.1925
 4163W        W19972  17.790  15.910  13.206 -0.1386 -0.1222 -0.1120
 4164W        W19973  14.870   1.121  12.586  0.2603  0.3060 -0.0576
 4165W        W19974  12.795   3.573  13.976 -0.2184  0.2384 -0.1951
 4166W        W19975   8.368  13.421   4.705 -0.0077  0.1519 -0.0566
 4167W        W19976  17.600   6.566  13.319 -0.3317  0.2873  0.0138
 4168W        W19977   9.888   0.663  12.504 -0.0329 -0.5148  0.1821
 4169W        W19978   1.088  12.493  12.607 -0.1136  0.0180 -0.3271
 4170W        W19979   7.499  15.527  12.639 -0.0622 -0.1085 -0.1121
 4171W        W19980   2.839   0.948   1.316 -0.1829  0.0302  0.0439
 4172W        W19981   2.415  12.125  11.340  0.1032 -0.1234 -0.0137
 4173W        W19982   3.977   0.043   1.662 -0.2017 -0.0206  0.0542
 4174W        W19983  10.732   1.128  10.345 -0.1620 -0.0326  0.0211
 4175W        W19984   8.167   1.013   3.541 -0.0342 -0.0531  0.2757
 4176W        W19985  14.364   9.231   1.882  0.1147 -0.1463  0.0721
 4177W        W19986   1.467  12.851   3.867 -0.0970 -0.0942 -0.1622
 4178W        W19987  12.244  13.987   1.403 -0.0643  0.2301  0.2736
 4179W        W19988  18.109   6.053   0.692  0.0272 -0.1199  0.2825
 4180W        W19989  15.388   0.959  13.983 -0.0051 -0.0039 -0.0015
 4181W        W19990   7.274   6.355  13.527 -0.3864 -0.1336  0.0410
 4182W        W19991  18.031  16.753  15.253 -0.0118  0.4248 -0.1963
 4183W        W19992   7.311  10.361  11.889  0.2118 -0.0353 -0.1164
 4184W        W19993  10.680   0.320   3.745 -0.0937 -0.3022  0.1302
 4185W        W19994   4.310   6.052   4.495  0.0143  0.2793  0.1051
 4186W        W19995  14.286  10.924  15.257 -0.0455  0.3500  0.0437
 4187W        W19996   1.359   5.966  13.879  0.2687  0.0227  0.0520
 4188W        W19997   3.223   0.167   4.066  0.0315  0.1290  0.0067
 4189W        W19998   6.177  13.163   0.523 -0.0139 -0.1475 -0.3571
 4190W        W19999   1.140   9.237   1.524 -0.2084  0.2621 -0.0170
 4191W        W20000   9.701   0.686   2.623  0.1233  0.3176  0.0287
 4192W        W20001  14.236   1.253  14.985  0.1757 -0.0008  0.1029
 4193W        W20002   3.247  13.686  15.175 -0.1808 -0.0408  0.0034
 4194W        W20003  17.106   1.254  10.573 -0.2131  0.1847  0.0376
 4195W        W20004   1.603   8.115  13.827 -0.0777  0.0818  0.0852
 4196W        W20005  14.848   2.293  11.297 -0.2299 -0.1310 -0.0354
 4197W        W20006   3.331   5.268   6.163 -0.1788  0.2044 -0.0848
 4198W        W20007  11.637   3.359  12.244 -0.0678  0.0591  0.1885
 4199W        W20008  16.258   3.640  11.511 -0.3089 -0.0608  0.1196
 4200W        W20009  16.514   6.348   2.195  0.2115  0.4473 -0.1226
 4201W        W20010   8.712  15.070  13.456 -0.0453  0.0612  0.0174
 4202W        W20011   4.954   2.532   4.759  0.3102  0.1254  0.2597
 4203W        W20012  18.045   3.568  13.345 -0.2803 -0.0851 -0.0056
 4204W        W20013   6.908  14.483  10.451  0.1094  0.0244  0.0402
 4205W        W20014   5.862   3.186  10.759 -0.2321  0.3201 -0.0283
 4206W        W20015  16.306   5.279  11.357 -0.1323  0.3553 -0.2876
 4207W        W20016   3.144  10.371  12.764  0.2790  0.0560 -0.1605
 4208W        W20017   2.424  14.225   3.728 -0.0233 -0.1582  0.1278
 4209W        W20018   9.447  17.396   1.512  0.1450  0.3067 -0.0801
 4210W        W20019   1.302  15.202  14.714  0.0328  0.0575 -0.0300
 4211W        W20020  13.133  15.813   5.248  0.1166  0.0441  0.0147
 4212W        W20021   2.581   6.329  14.483  0.0973 -0.1063 -0.3621
 4213W        W20022  15.697  10.101   2.705 -0.0698  0.0529 -0.1067
 4214W        W20023   3.366   0.394  13.721  0.1967  0.0931  0.2363
 4215W        W20024  10.314   2.501   9.858 -0.3450  0.2569 -0.1468
 4216W        W20025   4.906  12.954  11.386  0.2214  0.2422  0.1979
 4217W        W20026  17.018   8.549  13.196 -0.2268  0.2702 -0.2158
 4218W        W20027   9.440  15.997   0.981  0.0193  0.0276  0.0386
 4219W        W20028  18.633  10.374   4.506 -0.2311  0.1196 -0.1684
 4220W        W20029  16.456  13.740   5.091  0.0043 -0.0009  0.0409
 4221W        W20030  17.220   9.846   1.587 -0.2304 -0.1623  0.1292
 4222W        W20031  11.483   8.074   4.573  0.0119  0.0456 -0.0646
 4223W        W20032   3.912  18.590   2.556 -0.1290 -0.1835 -0.5578
 4224W        W20033  14.778   2.837  14.383 -0.3001 -0.0646  0.1312
 4225W        W20034  15.325   1.468   9.583 -0.2872 -0.0215 -0.1210
 4226W        W20035   2.423   1.855   0.409 -0.0445  0.0876  0.0601
 4227W        W20036   5.341  10.816   3.193  0.1196 -0.0809  0.1907
 4228W        W20037  13.787  14.200   4.256  0.2195  0.0950 -0.1014
 4229W        W20038  12.196   1.487  13.943  0.2242 -0.1672 -0.0578
 4230W        W20039   3.869  11.611  12.744 -0.1772  0.1525  0.1097
 4231W        W20040  18.177   7.255   1.554  0.0064  0.0916 -0.0451
 4232W        W20041   2.304  15.891  10.236  0.2327  0.0666  0.1466
 4233W        W20042   8.242   7.727  12.026  0.0523  0.1404  0.0184
 4234W        W20043   0.532  13.392   4.081 -0.1039 -0.0189  0.0408
 4235W        W20044   0.648   4.252  13.815  0.0377 -0.0014  0.2109
 4236W        W20045  18.750   1.506   0.113  0.1410  0.1903 -0.2097
 4237W        W20046   5.026  17.760  14.410  0.1300  0.2720 -0.2856
 4238W        W20047   9.225  10.255   4.781  0.0633  0.1408 -0.3476
 4239W        W20048   6.363  11.502  10.146  0.3390 -0.2681  0.2395
 4240W        W20049  11.756  12.161  12.291  0.0477 -0.0026 -0.3525
 4241W        W20050  17.284  11.679  12.563 -0.2796  0.1515  0.0039
 4242W        W20051   6.306  12.399   2.385 -0.3217 -0.0586 -0.2348
 4243W        W20052  10.883   0.039  15.422  0.0088  0.0736 -0.0741
 4244W        W20053   0.684   4.734   4.234 -0.3106 -0.0097 -0.0050
 4245W        W20054  15.574  17.668   5.858  0.4014 -0.2351  0.0659
 4246W        W20055  16.868   4.543  13.623  0.1173 -0.0243 -0.2183
 4247W        W20056  10.582   1.738   1.665  0.2159 -0.0764  0.1419
 4248W        W20057   6.101   4.412  15.255  0.1228  0.2529  0.2539
 4249W        W20058   0.787   7.521   1.590 -0.0780  0.2674 -0.0559
 4250W        W20059  14.351  16.231  12.619 -0.1124 -0.0205  0.1245
 4251W        W20060   4.156   2.974   9.671  0.0285  0.2026  0.0450
 4252W        W20061  10.118   6.611  14.663  0.0916 -0.0278  0.0914
 4253W        W20062  15.527   1.357  15.302 -0.1610  0.0339 -0.0701
 4254W        W20063  16.177   0.654   2.084  0.0064 -0.1748 -0.1968
 4255W        W20064  13.058   7.557   1.447 -0.0421 -0.0818  0.0677
 4256W        W20065   3.833  17.039   2.750 -0.1696  0.0069  0.2099
 4257W        W20066  12.463  14.377  14.657  0.0446  0.2693 -0.0764
 4258W        W20067  13.458   1.697  10.306 -0.4216  0.0785 -0.0629
 4259W        W20068   8.929  15.988   4.056  0.3969  0.0783  0.4816
 4260W        W20069   2.103  11.890   4.525  0.3269  0.0467 -0.0837
 4261W        W20070   8.355   6.787   3.900 -0.2213  0.0517 -0.0971
 4262W        W20071  15.595  18.390   0.982  0.2060  0.0773 -0.0171
 4263W        W20072   0.077  12.173  13.638 -0.2656  0.3017  0.0648
 4264W        W20073  10.635  15.877   5.918 -0.0630 -0.2928  0.2615
 4265W        W20074  17.744  10.465   0.529 -0.1423  0.0435  0.2646
 4266W        W20075  18.723  14.668  13.702  0.3189 -0.1302 -0.4068
 4267W        W20076  12.102  11.390  11.164  0.1216  0.0061  0.2098
 4268W        W20077  17.123  11.985  15.212  0.2590  0.3396 -0.0531
 4269W        W20078   6.449  15.037   5.028 -0.0326  0.1033 -0.2628
 4270W        W20079  10.528  15.769  14.382  0.1491 -0.0550 -0.1455
 4271W        W20080   0.543  11.281  12.529 -0.0827 -0.1668  0.1610
 4272W        W20081  16.950   6.324   9.738 -0.1465 -0.3387  0.0530
 4273W        W20082   3.860  11.312  12.335  0.3791  0.0507  0.4429
 4274W        W20083   3.765   9.595   5.389 -0.0951 -0.0283  0.1233
 4275W        W20084   2.562  18.095   1.790  0.3082 -0.1953 -0.0181
 4276W        W20085   5.013   6.556  15.258  0.0161  0.1476 -0.0012
 4277W        W20086  12.439  11.284   2.709 -0.0631  0.0223  0.1001
 4278W        W20087  11.779   0.206   3.506  0.2622  0.0882  0.1296
 4279W        W20088   4.627  17.805  13.199 -0.1749 -0.2101 -0.1083
 4280W        W20089  18.581   1.973  12.930  0.2127  0.0396  0.0232
 4281W        W20090   7.652   1.656   3.810 -0.3917  0.2619  0.0352
 4282W        W20091  17.945   7.348   3.498  0.2411 -0.1001  0.3977
 4283W        W20092  11.540   7.453   2.835 -0.2318  0.1018 -0.1090
 4284W        W20093   5.810  14.106  15.148  0.0071 -0.1096  0.0379
 4285W        W20094  18.395   6.563   4.453  0.1968  0.1930 -0.1371
 4286W        W20095   5.723   1.669   1.786 -0.2261 -0.1707 -0.1200
 4287W        W20096   5.185  11.048  11.663  0.1593  0.2823 -0.1204
 4288W        W20097  17.759   0.376   1.619  0.0589 -0.1634 -0.0510
 4289W        W20098   1.918  18.563   3.955  0.1278  0.1851  0.2710
 4290W        W20099   1.528   8.025   1.211  0.2506  0.0693 -0.0390
 4291W        W20100   5.859  15.393   3.403 -0.1237  0.0720  0.2653
 4292W        W20101   0.125   5.073  12.298  0.2892 -0.1081 -0.2154
 4293W        W20102   8.729  16.161   0.127  0.0037 -0.0476 -0.1321
 4294W        W20103  12.300   5.061   1.064  0.1213 -0.0544 -0.0281
 4295W        W20104  12.056   9.241  14.512 -0.1673  0.1035  0.2186
 4296W        W20105   5.092   1.575  15.436 -0.1317  0.1401  0.1303
 4297W        W20106  12.955   9.811  14.682  0.1165 -0.0400  0.0924
 4298W        W20107  13.150   0.818  14.767  0.1212  0.2922 -0.0604
 4299W        W20108  16.974   9.590  13.366 -0.1528 -0.0990  0.0675
 4300W        W20109   8.979   4.489   1.910 -0.1630 -0.0192  0.1710
 4301W        W20110   9.825  15.158  13.308  0.2024 -0.2965  0.4328
 4302W        W20111   3.266   7.307   3.601 -0.2664 -0.2625 -0.0010
 4303W        W20112  12.047  12.224   0.165  0.1322  0.1670 -0.3024
 4304W        W20113   7.090   3.275  11.092  0.2083 -0.3524 -0.2030
 4305W        W20114   9.822  11.978   0.441 -0.0375  0.1488 -0.0390
 4306W        W20115  12.938   9.266  10.963  0.1808 -0.0476 -0.1405
 4307W        W20116  12.654   0.142  12.898 -0.4098 -0.2369 -0.2636
 4308W        W20117   9.738  17.206  12.213  0.1717 -0.1384  0.0196
 4309W        W20118  18.187   0.745   3.410 -0.0683 -0.0999  0.4789
 4310W        W20119   4.479   4.360   0.778 -0.0504  0.0407  0.4111
 4311W        W20120  13.269  16.530  13.911  0.1239 -0.3030 -0.1439
 4312W        W20121   2.666  13.516   2.874  0.1850 -0.1132  0.0266
 4313W        W20122  17.151  18.220  13.088 -0.1204 -0.0988 -0.1440
 4314W        W20123  11.815  15.037   4.934  0.1952 -0.1162  0.1681
 4315W        W20124   7.272   5.653  15.309  0.0346  0.0599  0.2131
 4316W        W20125   5.654   4.824   1.274  0.1622 -0.1439  0.0062
 4317W        W20126   5.275   3.624   1.157 -0.1288 -0.0598  0.2735
 4318W        W20127   1.820   0.079   5.271 -0.1075  0.0753  0.1744
 4319W        W20128  10.193  18.605  15.051  0.0956 -0.0719 -0.0078
 4320W        W20129   1.442  10.975  14.150 -0.1162 -0.0568 -0.2139
 4321W        W20130   1.373  17.064   4.358  0.4931 -0.1426 -0.2049
 4322W        W20131  15.372  14.064  11.576  0.0680  0.0635 -0.3192
 4323W        W20132   1.585  17.770   3.491 -0.0050  0.1404 -0.1857
 4324W        W20133   6.338   0.312  13.050 -0.0078 -0.0291 -0.0990
 4325W        W20134  16.974  10.424  12.907  0.0063  0.2581  0.0971
 4326W        W20135  14.657   9.723  10.654  0.1202  0.2390  0.0087
 4327W        W20136   8.875  10.793   1.828  0.2264  0.0626 -0.4157
 4328W        W20137  12.752   5.943   1.912  0.1878 -0.1592  0.0236
 4329W        W20138  16.007   6.394   3.907  0.1074 -0.1978  0.1259
 4330W        W20139   0.159  17.936  14.314 -0.0107  0.1425 -0.1003
 4331W        W20140   5.256   9.166  14.742 -0.0811  0.0204  0.0819
 4332W        W20141   5.129  11.329  15.527 -0.2964  0.1461 -0.0347
 4333W        W20142  14.629   3.397   2.396 -0.1910 -0.0595 -0.0587
 4334W        W20143   9.539  12.903   1.827  0.0171  0.0685 -0.1876
 4335W        W20144   3.225   8.946  10.774  0.0727 -0.1221 -0.2468
 4336W        W20145   8.630  10.830  12.509  0.1788  0.1308  0.0815
 4337W        W20146  14.044   5.448  12.085 -0.1508 -0.0781  0.3389
 4338W        W20147  18.388  15.452  10.803 -0.0186  0.0332 -0.0314
 4339W        W20148  17.172   4.651  10.594  0.1249 -0.1789 -0.4430
 4340W        W20149  16.288   5.257   4.075 -0.1795 -0.0480 -0.2458
 4341W        W20150   4.436  11.773   4.059  0.3772  0.1684  0.2497
 4342W        W20151   7.339   7.031  12.004 -0.1887  0.0742 -0.0528
 4343W        W20152  15.371  14.243  11.123 -0.1491  0.2601  0.1093
 4344W        W20153   5.100   0.175   3.197 -0.0268 -0.0872 -0.0636
 4345W        W20154   4.834  15.436  12.643  0.2389 -0.1805 -0.2162
 4346W        W20155   1.650  16.837  14.547  0.0939 -0.1483  0.2254
 4347W        W20156   4.163  14.430   4.479  0.0525  0.2584  0.1418
 4348W        W20157   8.689  12.284   1.951  0.0567  0.1377  0.3379
 4349W        W20158   2.452  14.609   4.093  0.0558 -0.0118 -0.1378
 4350W        W20159  15.227  10.487   2.257  0.2331 -0.2268  0.0900
 4351W        W20160   6.379   0.387   4.246 -0.2940  0.2894  0.1313
 4352W        W20161   8.021   0.340   5.399  0.2214  0.0025 -0.0444
 4353W        W20162  14.445   7.426  12.970  0.2231  0.1985  0.0621
 4354W        W20163  13.483  16.498  11.606 -0.1581 -0.2708 -0.2297
 4355W        W20164  13.840   7.452   5.635  0.0320  0.1565  0.1312
 4356W        W20165  13.222   1.069  11.723 -0.0358  0.1621  0.0374
 4357W        W20166   8.946   9.033  12.740 -0.1984 -0.0954 -0.1336
 4358W        W20167   5.499   4.156  14.762  0.0988 -0.0717 -0.3833
 4359W        W20168  15.450  15.738   3.715  0.2161 -0.2341 -0.3210
 4360W        W20169   3.055   8.892   5.494  0.1834  0.1749 -0.1273
 4361W        W20170   1.531   1.804  15.076  0.2748 -0.1180  0.5420
 4362W        W20171   9.453  17.859   0.859  0.0500 -0.1189  0.1845
 4363W        W20172   6.408   2.180  13.683  0.2162  0.2022 -0.2650
 4364W        W20173   3.659  12.876  15.016  0.0003 -0.0336 -0.2880
 4365W        W20174   1.333  15.459   0.024  0.1413 -0.1197  0.1037
 4366W        W20175  10.533   5.981   2.542  0.0562 -0.1676  0.1181
 4367W        W20176   9.506   8.930  13.325 -0.0568  0.0736  0.0528
 4368W        W20177  11.557  10.900  15.539 -0.0097  0.0040 -0.2675
 4369W        W20178   1.539   1.278   4.979 -0.0576 -0.2760 -0.3849
 4370W        W20179  11.315  15.816   1.216 -0.0480  0.2181 -0.0980
 4371W        W20180   3.767  15.358   3.954 -0.1453 -0.1589  0.2008
 4372W        W20181   5.493  13.917  13.679  0.3298 -0.3895 -0.3442
 4373W        W20182   5.001   0.143   1.326 -0.5196 -0.1574  0.1289
 4374W        W20183   4.344  13.331  12.570  0.1159 -0.1863  0.3846
 4375W        W20184  17.164  15.507  12.385 -0.0708  0.0813  0.1927
 4376W        W20185  13.886   6.513   3.467 -0.0781  0.1416  0.2706
 4377W        W20186  14.487   0.896  11.521  0.1697 -0.4960 -0.0148
 4378W        W20187   5.923   1.119  10.085  0.1154  0.2483 -0.2312
 4379W        W20188  13.200   0.811   3.677  0.0648  0.0904 -0.2463
 4380W        W20189  18.219   0.893   5.353 -0.0370  0.0074  0.4073
 4381W        W20190   2.573   3.708   2.226 -0.1074  0.1852 -0.0467
 4382W        W20191   4.002  13.529   4.279  0.0379 -0.0870  0.0293
 4383W        W20192  15.317   2.485  12.176  0.0515  0.2327  0.0773
 4384W        W20193   6.299  17.071   1.753 -0.4848 -0.2164 -0.3575
 4385W        W20194   0.442   8.436   5.297  0.0255 -0.2323  0.0661
 4386W        W20195   3.390  14.958   0.036 -0.2046 -0.2047  0.0073
 4387W        W20196   0.978  15.802   4.883 -0.3384 -0.1117  0.0969
 4388W        W20197   9.391  11.765  10.884  0.1965 -0.1963 -0.1455
 4389W        W20198   4.175  15.551   2.154  0.0821 -0.0546  0.0410
 4390W        W20199  11.026  15.438  14.820  0.3181 -0.2390 -0.0913
 4391W        W20200  17.449  13.796   3.687  0.0115 -0.2065  0.3349
 4392W        W20201  17.817   0.700   4.321  0.0304  0.0126 -0.0177
 4393W        W20202   1.586  12.596   9.689  0.1804  0.3803 -0.0280
 4394W        W20203  12.685  13.222  15.351 -0.0802  0.0695 -0.1423
 4395W        W20204  15.533   3.459   0.629  0.2023 -0.0941 -0.3418
 4396W        W20205  16.649  12.609  12.531  0.3654 -0.0926  0.1442
 4397W        W20206  10.362   2.091   0.178  0.2271  0.0309 -0.2409
 4398W        W20207  14.551   2.586  13.694  0.1777  0.0132 -0.3784
 4399W        W20208   6.810   4.103  13.464 -0.1464  0.2090 -0.2238
 4400W        W20209  18.579   8.001  14.076  0.1862 -0.1417 -0.1139
 4401W        W20210  13.552   6.398   4.554 -0.0403  0.0294 -0.2094
 4402W        W20211   2.253  18.296   2.168  0.1763  0.1501 -0.1118
 4403W        W20212  14.500  10.457   4.130 -0.2510  0.1051 -0.2342
 4404W        W20213  18.458   3.118  12.160 -0.1223  0.1139  0.2100
 4405W        W20214  13.999   4.070   4.568 -0.1295  0.0149 -0.0515
 4406W        W20215   5.159  15.053   0.169 -0.0081 -0.0284  0.2033
 4407W        W20216   8.382   7.795   4.125 -0.1435 -0.1618  0.0005
 4408W        W20217   8.817  15.323   5.323 -0.2210  0.3330  0.1495
 4409W        W20218  18.457   3.194   0.233 -0.1777  0.0999  0.0704
 4410W        W20219  15.356  10.637   4.528  0.3100  0.0183  0.2574
 4411W        W20220  11.287  12.477   2.598 -0.2163 -0.1003  0.0353
 4412W        W20221   6.000  16.842  12.288  0.0123  0.1830 -0.0979
 4413W        W20222  18.702   2.760  13.194  0.2779 -0.4346  0.0092
 4414W        W20223   1.963   6.871   2.747  0.0036  0.2110 -0.4317
 4415W        W20224   5.765   0.498  14.782  0.0698  0.2259 -0.1136
 4416W        W20225   2.638   9.132  12.154 -0.1134  0.1515  0.5518
 4417W        W20226   9.421  13.476  13.102  0.5604  0.1882 -0.1094
 4418W        W20227  12.833  17.594   1.543 -0.1664 -0.3181 -0.0973
 4419W        W20228   0.782   7.287   5.355  0.0576  0.0455  0.1272
 4420W        W20229  14.915   7.912  12.558 -0.1032 -0.0484  0.2709
 4421W        W20230   0.051  18.492   2.541  0.3441  0.1627 -0.1240
 4422W        W20231  13.549  11.236   2.533  0.0710 -0.2175  0.2220
 4423W        W20232  12.162  14.341   4.399  0.0137  0.1017  0.1751
 4424W        W20233   8.812  13.502  10.630  0.1518  0.3535  0.5095
 4425W        W20234  10.941   0.003   1.622  0.1156 -0.0163  0.1642
 4426W        W20235  15.928   6.840   1.689 -0.0798  0.2158  0.0792
 4427W        W20236  15.787   5.135   4.989 -0.0611 -0.2230  0.1371
 4428W        W20237   1.093  10.652   5.275 -0.2952 -0.2336 -0.2502
 4429W        W20238   8.638   4.409   0.922  0.0433  0.0507  0.0434
 4430W        W20239  14.635   3.801   5.188  0.0597  0.2835  0.0814
 4431W        W20240   1.184   4.357  10.814 -0.1061  0.1068 -0.1145
 4432W        W20241  11.796   7.525   5.371 -0.0819  0.0454 -0.1340
 4433W        W20242   0.184  18.053  12.046  0.1578 -0.0001  0.0416
 4434W        W20243   4.835   0.089   5.229  0.2618  0.1802  0.2963
 4435W        W20244   5.227  15.490  15.468 -0.0051  0.0688  0.1223
 4436W        W20245  13.657   6.163  14.714 -0.0930 -0.1736  0.0216
 4437W        W20246   7.651   9.207   0.100 -0.2321 -0.0872  0.4227
 4438W        W20247   3.687  12.009   1.421  0.1987  0.1209 -0.3777
 4439W        W20248  16.051   1.892  11.112 -0.2449 -0.0189  0.1690
 4440W        W20249   6.668   8.954  15.050 -0.1633 -0.1575  0.0879
 4441W        W20250   3.517   0.143   2.464 -0.0419 -0.2623  0.2239
 4442W        W20251  10.626  10.246   5.027 -0.0838  0.1233  0.0597
 4443W        W20252  17.612   5.496   3.728 -0.0125  0.0440  0.0487
 4444W        W20253  14.780  17.389   4.277 -0.0448  0.1207 -0.2224
 4445W        W20254  11.896  10.937  13.462  0.0710 -0.1613 -0.0802
 4446W        W20255  12.392   2.391  12.455 -0.3402 -0.1581  0.2456
 4447W        W20256   5.663  16.896   5.285  0.0467  0.1285 -0.1388
 4448W        W20257   3.872  10.034  15.325 -0.1324 -0.0513  0.0380
 4449W        W20258   7.169   8.287   0.118 -0.1561 -0.0129 -0.2407
 4450W        W20259   7.850  16.241  12.172  0.2435 -0.1944 -0.0509
 4451W        W20260   0.196  16.777  12.786 -0.1776  0.2539 -0.0385
 4452W        W20261   8.710   5.734  13.897 -0.0611  0.1067 -0.2078
 4453W        W20262  12.215  14.195  12.435 -0.1765 -0.1240  0.1835
 4454W        W20263  18.313   6.523   0.427 -0.0682  0.1602  0.0961
 4455W        W20264  16.019  15.748   1.533 -0.0595  0.1924  0.0108
 4456W        W20265  17.384   8.490  11.696  0.0409  0.0368  0.0302
 4457W        W20266  18.776   6.663   0.152 -0.0750 -0.1011  0.1728
 4458W        W20267  16.449  11.312  12.828 -0.0810  0.0662  0.1974
 4459W        W20268   5.375  17.463   2.511  0.0240 -0.2466 -0.0711
 4460W        W20269   7.069   0.390  12.195 -0.2411  0.3525  0.2509
 4461W        W20270   4.208  11.118   1.178 -0.1869  0.1493 -0.2043
 4462W        W20271   3.077   0.798  12.319 -0.1576  0.1086 -0.3657
 4463W        W20272   7.401  15.246  10.030  0.1268  0.0405 -0.0491
 4464W        W20273  18.093  10.155   4.657  0.1025  0.0476  0.0583
 4465W        W20274  18.469   3.287  13.132 -0.2295 -0.0445  0.1774
 4466W        W20275  10.754   6.836   0.324 -0.0460  0.0653  0.2965
 4467W        W20276   3.774   3.444   3.793 -0.0367 -0.1060 -0.0459
 4468W        W20277   7.071   3.774  14.723 -0.1418 -0.1988  0.1470
 4469W        W20278  16.023  14.543   0.973 -0.4199 -0.0362  0.1873
 4470W        W20279  18.414  10.067  14.955 -0.2836 -0.0332 -0.2534
 4471W        W20280   6.463   4.351  12.225 -0.1850  0.4191  0.2427
 4472W        W20281  13.310  17.367   5.227 -0.2036  0.0235  0.1353
 4473W        W20282  13.480   3.286  14.455  0.4697 -0.0694  0.1619
 4474W        W20283  15.493   9.866   0.822  0.1543 -0.2132  0.2304
 4475W        W20284  13.798   1.574   3.578 -0.0254 -0.0466 -0.1458
 4476W        W20285   3.197   0.212  12.424 -0.0650  0.0829  0.1753
 4477W        W20286   9.102  16.756  12.859  0.5225  0.1803  0.3428
 4478W        W20287   2.038   7.420  11.800  0.3036 -0.1337 -0.0691
 4479W        W20288   9.320   5.704  11.322 -0.1189  0.4338  0.0774
 4480W        W20289  15.854   9.803  11.360 -0.0954  0.0126 -0.0549
 4481W        W20290   3.854   7.350   5.253  0.1004  0.1202 -0.2433
 4482W        W20291  15.171   7.009   3.110 -0.0290  0.0029  0.1097
 4483W        W20292   1.523   6.196  12.027 -0.1575  0.0865  0.1334
 4484W        W20293  15.669  15.342   1.599 -0.2550 -0.4071  0.1166
 4485W        W20294  16.857  12.819  10.700  0.1518 -0.3549  0.0290
 4486W        W20295   1.412   8.330   0.252  0.1236 -0.1430 -0.2272
 4487W        W20296  11.102   9.665  10.948 -0.0552 -0.1683 -0.3146
 4488W        W20297  18.006   3.132  11.863 -0.1889 -0.1711  0.1010
 4489W        W20298  10.924  11.584   2.816  0.1307  0.0121 -0.0823
 4490W        W20299  14.130  13.203   1.462 -0.0650 -0.2276 -0.1192
 4491W        W20300  14.772   9.529  13.419 -0.0383  0.1334  0.0525
 4492W        W20301  10.355   5.056  11.908 -0.1424  0.0282 -0.0210
 4493W        W20302   6.853  17.338  15.015 -0.0949 -0.1142  0.0150
 4494W        W20303   5.008   1.896  14.218 -0.0331 -0.0609  0.2022
 4495W        W20304   6.688  16.630   0.213  0.2863  0.1338 -0.3603
 4496W        W20305  13.704   2.663   5.126  0.0910 -0.3888  0.1548
 4497W        W20306   4.259   3.431   3.536 -0.1002  0.3459 -0.0946
 4498W        W20307   6.422  13.255  13.636 -0.1180  0.0383  0.0590
 4499W        W20308  15.440  12.934   4.393  0.0235 -0.1148  0.0998
 4500W        W20309  11.902   8.709  13.299 -0.1886  0.0004 -0.0883
 4501W        W20310  18.011  10.959   1.863  0.1304  0.1405  0.1479
 4502W        W20311  11.544  11.347  14.816  0.1477  0.0798 -0.0193
 4503W        W20312   4.354   9.262  14.733  0.1273 -0.3843  0.0106
 4504W        W20313  13.010   8.426   4.451  0.0065  0.1476 -0.1052
 4505W        W20314   0.793   7.732   0.500  0.1338 -0.0331 -0.1111
 4506W        W20315  17.762   1.411   2.438  0.1519  0.0034  0.4823
 4507W        W20316   8.412  17.522  12.968 -0.0180  0.4329  0.1924
 4508W        W20317   6.727   6.143   0.189 -0.1849 -0.0431 -0.0808
 4509W        W20318   3.537  15.534  14.275  0.1577  0.0892  0.1295
 4510W        W20319   1.379   8.721  12.297 -0.1287  0.1549  0.1801
 4511W        W20320   3.050  16.315   0.228 -0.0606  0.0166 -0.2203
 4512W        W20321  10.898  16.202   1.432 -0.2102 -0.0491  0.3811
 4513W        W20322  16.947   4.595   2.010  0.0409 -0.1094  0.0470
 4514W        W20323   6.445  14.878  15.457 -0.2065 -0.0764  0.2022
 4515W        W20324   9.186  16.686  11.142 -0.0241 -0.0151 -0.0419
 4516W        W20325  12.057  17.875   4.829  0.1571 -0.0894  0.1552
 4517W        W20326  14.868   0.909  11.171 -0.2277  0.0010  0.3415
 4518W        W20327  16.036   3.340   2.287 -0.0475 -0.0520 -0.0662
 4519W        W20328  18.620  11.249  10.488  0.0629 -0.0373 -0.0567
 4520W        W20329  14.325  15.375  15.177  0.0244  0.0048  0.0826
 4521W        W20330   4.382   5.756  12.375  0.1978 -0.2014  0.0293
 4522W        W20331   6.262  14.669   1.316 -0.0203  0.4310  0.2754
 4523W        W20332   4.885  10.175  12.750  0.0201 -0.0709 -0.0501
 4524W        W20333   4.727   5.363   2.000  0.0338 -0.1180  0.3288
 4525W        W20334  18.337   3.856   1.631 -0.0663 -0.0381  0.1698
 4526W        W20335  15.789  13.093  11.529  0.2039 -0.0471  0.1753
 4527W        W20336  13.769   6.895   0.184  0.3731 -0.0029  0.3677
 4528W        W20337  17.248   9.316   0.355  0.0680  0.0296  0.6366
 4529W        W20338   7.634  18.740   1.058 -0.1940 -0.1902  0.2376
 4530W        W20339  17.147   3.087  10.188  0.0072 -0.0849 -0.3717
 4531W        W20340  15.927   1.450  14.979 -0.0732 -0.1012  0.2162
 4532W        W20341  11.679   1.089   5.788 -0.0278  0.1604  0.0388
 4533W        W20342  13.002   8.336  12.452 -0.0587 -0.2814 -0.0391
 4534W        W20343  16.675   3.528   5.061  0.0329 -0.1568 -0.0191
 4535W        W20344  11.244   8.442   0.826  0.1220 -0.0315 -0.3545
 4536W        W20345  13.295   5.939   2.525  0.0586  0.0428 -0.0731
 4537W        W20346  18.503   2.167   4.871 -0.1212  0.4304 -0.1285
 4538W        W20347  11.509  10.418   3.357 -0.2266 -0.0441  0.2121
 4539W        W20348  14.757  18.564   2.149 -0.3031  0.0905  0.0354
 4540W        W20349  12.565  12.923  12.126 -0.0512  0.3755 -0.1092
 4541W        W20350   9.331  14.419  12.846  0.0238  0.0083 -0.0046
 4542W        W20351   7.360  17.301  15.039  0.1006 -0.0316  0.1463
 4543W        W20352   1.283  17.503  15.074 -0.0149 -0.0050 -0.0808
 4544W        W20353   9.349   9.616   2.157  0.2393  0.1268 -0.1063
 4545W        W20354  10.989  12.783  11.356 -0.0610  0.0567  0.2046
 4546W        W20355   9.018  11.553   3.567 -0.0020 -0.1254 -0.1556
 4547W        W20356   5.331  13.010  12.842 -0.1922  0.1052 -0.0435
 4548W        W20357   6.853   3.824   4.158 -0.0687  0.0669 -0.2577
 4549W        W20358  11.879   2.267   5.119 -0.3970  0.1378  0.3116
 4550W        W20359   9.873   6.728  13.795 -0.2432  0.4186  0.2828
 4551W        W20360   6.717   4.033   3.051  0.0640 -0.1375  0.1840
 4552W        W20361  10.611   7.153   5.123  0.1703 -0.2234  0.0772
 4553W        W20362  10.099  15.810   2.600  0.1844  0.0759  0.3718
 4554W        W20363   4.295   7.596  11.618 -0.1765 -0.2452 -0.0312
 4555W        W20364   1.563  12.464   3.244  0.4112 -0.2976 -0.0712
 4556W        W20365   1.510   2.714   4.380  0.2483  0.0980 -0.0139
 4557W        W20366  12.453   3.307   1.958  0.0535 -0.0013 -0.0358
 4558W        W20367   6.043  16.076  11.488 -0.3806  0.1983 -0.1275
 4559W        W20368  17.202  10.003   2.607 -0.1960 -0.2389  0.1521
 4560W        W20369  15.680  18.319  14.772 -0.2966 -0.1453  0.0633
 4561W        W20370   5.909   0.680  13.951  0.2092  0.0007  0.1896
 4562W        W20371   4.334  14.611  14.752  0.0119  0.2533  0.0418
 4563W        W20372   1.073  15.848  11.389  0.2001  0.4133 -0.2625
 4564W        W20373  10.273  16.077  12.490 -0.0906  0.2208 -0.0281
 4565W        W20374   5.686  11.512   0.042  0.1877 -0.2193 -0.1389
 4566W        W20375  18.044  16.341  11.395 -0.2647  0.0460  0.0781
 4567W        W20376  15.803  12.338  12.442 -0.2123  0.0459  0.2430
 4568W        W20377  15.475  10.387   0.783 -0.1385  0.0743  0.2317
 4569W        W20378   1.399   2.623  14.094 -0.2638 -0.1387 -0.0139
 4570W        W20379  17.648   9.834  12.262  0.0254 -0.0080 -0.3767
 4571W        W20380   8.191  15.979  14.819  0.2163 -0.1393 -0.4049
 4572W        W20381  16.493   3.090  11.576  0.4587 -0.0185 -0.1762
 4573W        W20382  17.040   5.750  11.291 -0.2818  0.0870 -0.1556
 4574W        W20383  12.665  14.108  13.243  0.1217  0.2295 -0.0415
 4575W        W20384  15.997   1.498  15.466 -0.0084 -0.1236 -0.1359
 4576W        W20385   2.458   2.087   5.891 -0.3632  0.0684  0.2095
 4577W        W20386   3.264   6.979  14.610 -0.0827  0.1383 -0.0333
 4578W        W20387   1.601  17.111  11.684 -0.5234 -0.0679  0.2211
 4579W        W20388   8.994   1.514   1.645  0.1637  0.2054 -0.1515
 4580W        W20389  11.917   8.067   5.443 -0.0882  0.1340 -0.1278
 4581W        W20390  13.456  10.460   3.143  0.4667  0.2116 -0.3471
 4582W        W20391   3.816  15.383  13.297 -0.0289  0.0943 -0.0550
 4583W        W20392   8.219   8.636   5.049  0.3550 -0.3353 -0.2106
 4584W        W20393   2.430  16.416  13.740  0.1118  0.1142 -0.0120
 4585W        W20394   2.854   3.895  14.170 -0.1431  0.3967  0.0685
 4586W        W20395   1.963   3.910   2.110 -0.0418  0.0216  0.3326
 4587W        W20396   3.668   9.039   5.036 -0.0359  0.1839  0.1550
 4588W        W20397  17.151  17.295   4.673  0.0275 -0.4670  0.0624
 4589W        W20398  17.307   8.805  15.061 -0.0327 -0.2724  0.0976
 4590W        W20399  17.244   8.221   9.410 -0.2450 -0.0601 -0.0014
 4591W        W20400   8.770   2.549   4.219  0.1362 -0.2055 -0.1951
 4592W        W20401  11.325  11.182  11.906 -0.3005  0.1825 -0.1718
 4593W        W20402   3.114   1.411   1.488  0.1303 -0.0079 -0.0995
 4594W        W20403  16.359  14.390   1.347  0.2288 -0.0653  0.2940
 4595W        W20404  17.609   8.425  10.625 -0.0470  0.2179 -0.1965
 4596W        W20405  13.073   4.819  10.274 -0.6821 -0.2229  0.1041
 4597W        W20406  13.537   3.074   3.586 -0.0074 -0.1592 -0.0294
 4598W        W20407  11.455   0.496  12.221  0.0027  0.2818  0.0783
 4599W        W20408  18.420  12.660   1.508 -0.2654  0.1695  0.3185
 4600W        W20409  17.910   4.753   3.909  0.0451  0.0490  0.1227
 4601W        W20410  12.246  10.575  11.770  0.0351  0.0239 -0.0214
 4602W        W20411  12.985   0.521  12.944 -0.1582 -0.0805  0.0955
 4603W        W20412   3.289   2.579  11.158  0.1545 -0.1206 -0.0519
 4604W        W20413  12.954  14.643  12.598  0.2425  0.1130  0.1760
 4605W        W20414   1.443   1.885   4.128 -0.0726 -0.2515 -0.1065
 4606W        W20415   9.074   9.367   4.559  0.2238  0.1705  0.0626
 4607W        W20416  16.908  16.962   0.353  0.3308  0.1012 -0.1847
 4608W        W20417  10.482  10.564   3.875 -0.1472 -0.0173  0.3712
 4609W        W20418   1.926   1.708  15.421  0.2809 -0.0132 -0.2121
 4610W        W20419   3.746  12.517  11.181 -0.3215  0.0463 -0.2415
 4611W        W20420   8.991  12.527   2.425 -0.2097 -0.0780 -0.1153
 4612W        W20421   1.492   7.115   2.889  0.0834  0.2129 -0.1409
 4613W        W20422  17.593   5.502   5.380 -0.3738  0.3656  0.1448
 4614W        W20423  10.162   8.795  11.425  0.0604 -0.1210  0.0961
 4615W        W20424   4.064   5.674  12.833 -0.0372 -0.2806  0.0117
 4616W        W20425  18.695  14.566  11.321 -0.1392  0.2550  0.1189
 4617W        W20426  11.299  16.378   3.738  0.4302  0.1853 -0.2630
 4618W        W20427   0.933  14.567  11.054  0.3212 -0.1306 -0.1004
 4619W        W20428  17.766  12.558  15.109 -0.2422 -0.0508  0.0949
 4620W        W20429   7.239   7.531  12.094  0.0760  0.1054 -0.2350
 4621W        W20430   6.838  12.640   1.791  0.1982  0.0012  0.0596
 4622W        W20431   4.187  16.893  15.056 -0.2797 -0.1275  0.0294
 4623W        W20432  14.238  17.153   3.484 -0.0874 -0.2735 -0.0473
 4624W        W20433  18.395   4.641  10.826 -0.0872 -0.0064  0.0227
 4625W        W20434   7.968  18.623  12.506 -0.1018  0.2097  0.2072
 4626W        W20435   0.588   5.652  12.548 -0.0943 -0.3583 -0.1949
 4627W        W20436   0.429  13.130  11.116 -0.0302  0.1266 -0.1465
 4628W        W20437  13.187   5.077  14.027 -0.1790 -0.0816  0.1130
 4629W        W20438  14.639   6.720  11.940 -0.0342  0.0541  0.3145
 4630W        W20439   3.532   7.337   0.547 -0.0860  0.1951  0.0764
 4631W        W20440   0.101   6.660  13.845  0.3020  0.2346 -0.1686
 4632W        W20441   7.583   9.569   5.692  0.2253 -0.0757 -0.4854
 4633W        W20442  13.482  11.738   4.396  0.1353  0.3416  0.3043
 4634W        W20443  18.385  11.305  11.893 -0.0305  0.2255 -0.2036
 4635W        W20444  18.757  15.035   2.316 -0.1310  0.1256 -0.3902
 4636W        W20445  13.039   9.502   2.503  0.2414 -0.2223 -0.2534
 4637W        W20446   3.686   1.566   3.203 -0.1333  0.2739  0.2589
 4638W        W20447  17.983   5.326  11.869  0.1076  0.1198 -0.2524
 4639W        W20448  15.315  14.956  12.713  0.1462  0.0456 -0.1171
 4640W        W20449   0.151  16.621  13.876 -0.3037 -0.0998  0.2092
 4641W        W20450   8.591   0.314  11.921 -0.0218 -0.0192 -0.5236
 4642W        W20451  15.621   8.903  11.680 -0.2966  0.1621  0.4655
 4643W        W20452   3.821  13.531   0.504  0.3435  0.1493 -0.0371
 4644W        W20453   4.798   2.062   4.790 -0.2606 -0.2893  0.0138
 4645W        W20454  15.251   9.755  14.726  0.2350  0.2561 -0.0845
 4646W        W20455  10.870   6.666  12.952  0.0631  0.1278  0.2465
 4647W        W20456  14.539  14.474  14.866 -0.0857 -0.1330 -0.0597
 4648W        W20457   7.018   9.200   3.255 -0.0303  0.1870 -0.1390
 4649W        W20458  18.372  17.235   2.219  0.0156  0.1836 -0.2415
 4650W        W20459   8.196   2.192  13.701 -0.2622  0.1549 -0.2197
 4651W        W20460  17.020   9.822  11.728 -0.0009  0.4321 -0.0325
 4652W        W20461  11.953  11.824  10.883  0.2534  0.1088  0.0094
 4653W        W20462   2.954   9.668   4.663  0.0848 -0.2043  0.1798
 4654W        W20463  18.158   2.698  12.000  0.2924 -0.2538 -0.0181
 4655W        W20464   5.753   1.889   4.991  0.0829  0.0218 -0.0570
 4656W        W20465   0.219   9.987   2.183  0.0664  0.2969  0.1816
 4657W        W20466  17.486   9.291  13.511  0.1657 -0.0045 -0.1682
 4658W        W20467  17.799   7.771   2.184  0.2334  0.0866 -0.3460
 4659W        W20468  16.955  16.910   5.103  0.1097 -0.2358 -0.0271
 4660W        W20469   7.174  13.202  14.857 -0.2271  0.0499  0.2364
 4661W        W20470  16.770  15.386   3.628  0.0129 -0.3293  0.1693
 4662W        W20471   5.780  17.050   3.274  0.1834  0.2387  0.3092
 4663W        W20472   3.353  16.829   1.511 -0.0902 -0.0522 -0.2736
 4664W        W20473  16.417  16.866   4.533  0.1133 -0.0250 -0.3562
 4665W        W20474  12.746   5.208   2.772  0.0120  0.2971 -0.1117
 4666W        W20475   0.762   2.792   2.503  0.2885  0.2020  0.2297
 4667W        W20476   8.758  15.278   4.345  0.1674  0.2530  0.0131
 4668W        W20477   3.836   7.545  14.718 -0.2306  0.1994 -0.0444
 4669W        W20478  14.054   8.509   4.087 -0.1178 -0.0258 -0.3121
 4670W        W20479  16.671   2.728   2.309 -0.1839 -0.0178  0.1738
 4671W        W20480   6.631  12.624  11.563  0.1659 -0.1197  0.0208
 4672W        W20481   0.585  17.019   0.142  0.2462  0.0678 -0.1508
 4673W        W20482   3.817  13.787  13.116  0.3078  0.2738 -0.1534
 4674W        W20483   9.915  18.397  12.773 -0.1090 -0.3336 -0.0856
 4675W        W20484   4.270  15.590  13.118  0.1361  0.3110 -0.1868
 4676W        W20485   0.828   5.505   2.339  0.2075 -0.0603  0.1809
 4677W        W20486   6.064   4.216   4.537 -0.1680  0.0330 -0.2216
 4678W        W20487  11.214   4.107  14.943  0.0722 -0.1112 -0.0128
 4679W        W20488   8.042   7.797  14.555 -0.1864 -0.0352  0.2820
 4680W        W20489   4.553  13.342   1.277  0.2655  0.0193 -0.0336
 4681W        W20490   1.086   7.992   2.772 -0.0998  0.1391  0.0134
 4682W        W20491  16.453   7.104   3.934  0.0488  0.3549  0.2905
 4683W        W20492   5.431  14.368  10.333  0.3876 -0.0850 -0.0805
 4684W        W20493  13.802   4.755   3.209 -0.3821 -0.1682 -0.1175
 4685W        W20494   0.030   3.772   2.094  0.0138 -0.0643  0.1224
 4686W        W20495   2.230   6.845  11.168 -0.0756 -0.0834 -0.0930
 4687W        W20496   5.590  12.732   3.693  0.3215  0.0652 -0.2057
 4688W        W20497   4.850   2.415  14.344 -0.2574 -0.3754  0.3064
 4689W        W20498  17.777   4.175  11.813 -0.1138 -0.0058 -0.5590
 4690W        W20499   9.248  17.240   3.038 -0.0310  0.2087 -0.0955
 4691W        W20500  11.638   2.140  10.766 -0.0748 -0.0574  0.0710
 4692W        W20501   7.713  11.222  10.335 -0.0506 -0.0875  0.1343
 4693W        W20502   9.583  17.855   1.750  0.1056  0.0409 -0.4550
 4694W        W20503   8.142  11.327   5.223  0.0976 -0.0956  0.2764
 4695W        W20504   4.659   0.111   0.895 -0.0234 -0.1953  0.1826
 4696W        W20505   4.875   7.974  13.228 -0.2826 -0.0506  0.2227
 4697W        W20506   5.837  12.103  10.606 -0.2413 -0.1222 -0.2478
 4698W        W20507   4.934   8.798  13.661 -0.1973 -0.1587 -0.0794
 4699W        W20508  15.989   8.557  10.796  0.0319  0.1529  0.3151
 4700W        W20509   4.886   9.205   5.239  0.0361  0.1292  0.0669
 4701W        W20510   0.435  11.941   3.906 -0.1818 -0.1580  0.0239
 4702W        W20511   6.433   5.921   1.044 -0.0142 -0.1004 -0.3416
 4703W        W20512   6.013   5.934  14.580  0.0783 -0.0938  0.0734
 4704W        W20513   4.933  13.812   2.364  0.0807 -0.2481  0.3003
 4705W        W20514  16.370  18.187   4.837  0.0985 -0.1884  0.4086
 4706W        W20515   7.331   7.455   0.975 -0.0002 -0.0018 -0.1385
 4707W        W20516   4.072  12.553   2.827 -0.0332  0.0055  0.0006
 4708W        W20517   6.183  11.927   1.494  0.0385  0.3293 -0.0641
 4709W        W20518   6.318   5.292  15.415 -0.3767  0.1043 -0.2890
 4710W        W20519   1.024  12.594   2.546 -0.0957 -0.3275  0.1349
 4711W        W20520   0.044   1.315  13.670 -0.3001 -0.1977  0.1278
 4712W        W20521   5.656   4.524  15.040 -0.4693 -0.0267  0.2425
 4713W        W20522   5.891  15.300   2.421  0.1228  0.0921  0.0733
 4714W        W20523   0.940  17.841  12.596 -0.1549 -0.0918 -0.0888
 4715W        W20524  16.524  13.206   3.549  0.2788  0.1823  0.0482
 4716W        W20525  13.501   0.992  13.703  0.4834 -0.0861 -0.2964
 4717W        W20526  10.991  16.547   4.170 -0.0287  0.1961  0.0646
 4718W        W20527  17.551  14.229   3.502 -0.3671  0.1084  0.2519
 4719W        W20528   8.688  18.085   1.153  0.0189 -0.3052  0.0001
 4720W        W20529  10.451   3.562   4.159 -0.1133  0.1470  0.1626
 4721W        W20530   8.532   4.497  12.444 -0.0566 -0.0406 -0.1562
 4722W        W20531   8.166  18.228   0.955  0.1468 -0.0878 -0.2195
 4723W        W20532  10.349   3.083  13.917  0.3020  0.1201 -0.1799
 4724W        W20533   5.296   8.957  13.357  0.3122 -0.2192  0.1421
 4725W        W20534  15.250   0.366   3.394 -0.3195  0.3282  0.2236
 4726W        W20535   6.093   1.075  13.300  0.1110 -0.1553  0.0240
 4727W        W20536   9.048   6.661  13.671  0.0162 -0.0352  0.2060
 4728W        W20537   1.462  11.762   1.088 -0.0287  0.3659  0.2572
 4729W        W20538   3.170   1.526  14.430  0.2069 -0.1307 -0.1154
 4730W        W20539  10.821   9.159   0.196  0.3258  0.0087 -0.1529
 4731W        W20540  12.656  14.717  10.305  0.0352  0.2647 -0.0358
 4732W        W20541  14.064  18.129  14.124  0.0103 -0.3378  0.1437
 4733W        W20542  17.773   6.726   4.959 -0.0334  0.0470  0.1274
 4734W        W20543  13.159   5.248   3.742 -0.0203  0.1122 -0.1351
 4735W        W20544  11.286   8.813  10.609 -0.0213 -0.0147 -0.1347
 4736W        W20545   6.321  17.253   1.045 -0.0052 -0.0252  0.2386
 4737W        W20546   3.798  17.428  12.043 -0.2276 -0.0282 -0.0291
 4738W        W20547   9.985  10.256   2.672 -0.1248  0.1703 -0.0132
 4739W        W20548  15.356  15.382   6.361 -0.1506  0.0461 -0.1238
 4740W        W20549   2.170   3.522   2.479 -0.0233  0.2122 -0.0039
 4741W        W20550   9.773   8.986  13.867  0.0368  0.0906  0.0193
 4742W        W20551  17.082   2.876   5.605  0.2176 -0.3986  0.2674
 4743W        W20552   4.097  13.371   2.637  0.1551 -0.0596  0.2375
 4744W        W20553  17.212   2.360   2.317 -0.0843  0.2604 -0.0166
 4745W        W20554  13.902   8.975   1.978  0.1484  0.0831  0.2060
 4746W        W20555   3.357  14.413  12.952  0.0765 -0.0682 -0.1121
 4747W        W20556   5.894  16.107  10.507  0.0881 -0.2680 -0.0885
 4748W        W20557  12.957   5.552  14.537  0.1881  0.1481  0.0455
 4749W        W20558   4.294  12.407   5.180  0.2184 -0.0572 -0.1090
 4750W        W20559   9.225   1.198  12.207 -0.0114 -0.0653  0.2110
 4751W        W20560  16.960   2.130   4.145 -0.2723  0.1231 -0.4268
 4752W        W20561  13.863   6.616  12.394 -0.0362  0.1259 -0.1700
 4753W        W20562  10.836   7.349   0.388 -0.3221  0.2399 -0.0889
 4754W        W20563  11.564  14.997  13.677 -0.0445  0.0542  0.0065
 4755W        W20564  17.379   1.953  12.176 -0.3904 -0.2537 -0.0677
 4756W        W20565  14.363   9.138  11.275 -0.1850  0.1040  0.2723
 4757W        W20566  17.936   2.446   0.461 -0.2369  0.5846 -0.2278
 4758W        W20567  10.663   6.976  11.124 -0.1819  0.2355 -0.1731
 4759W        W20568  15.591   2.011   4.172  0.1378  0.1525 -0.1191
 4760W        W20569  13.793  16.117  11.769 -0.2050 -0.3362 -0.0785
 4761W        W20570   1.890  12.866   2.992  0.0670  0.0718  0.1569
 4762W        W20571   4.488  10.385  14.845 -0.1815  0.0089  0.1244
 4763W        W20572   5.967   0.656  13.021 -0.2838  0.1694  0.2052
 4764W        W20573   9.293  18.057  14.960 -0.4845  0.2836 -0.0675
 4765W        W20574   1.405  15.911  15.498 -0.5855 -0.2514  0.0613
 4766W        W20575  12.131  14.142  11.306 -0.1486 -0.1596  0.3750
 4767W        W20576   6.750   3.316   3.010  0.1018 -0.1124 -0.1518
 4768W        W20577   5.833   8.124   2.701 -0.3517 -0.0822 -0.2344
 4769W        W20578  13.307   1.591   2.237 -0.0389  0.1714  0.1835
 4770W        W20579  11.630  12.725   9.970 -0.2435 -0.1533 -0.0569
 4771W        W20580   6.240   9.292  13.323  0.0761  0.1294  0.0563
 4772W        W20581  18.296   5.855   9.730  0.0264  0.0677  0.1273
 4773W        W20582  18.753   7.680  11.526  0.2234  0.2530  0.2718
 4774W        W20583   5.141   0.236  14.139 -0.1111  0.2167  0.1502
 4775W        W20584  17.837   1.194  13.605 -0.1407 -0.0684 -0.1415
 4776W        W20585   1.793  14.387  11.279 -0.0465  0.2277  0.0417
 4777W        W20586   7.150  14.928   1.970  0.2187  0.2588 -0.0655
 4778W        W20587   2.825   9.236   5.254  0.0538  0.0438 -0.1024
 4779W        W20588   9.964   6.934  10.932  0.0981  0.3087 -0.1815
 4780W        W20589  13.689  15.232   1.452 -0.3564 -0.0611 -0.0235
 4781W        W20590   9.255  13.136   2.222  0.2939 -0.1696  0.2152
 4782W        W20591   2.419  16.867   4.201  0.2444  0.2771  0.1109
 4783W        W20592  18.415  18.511  13.174  0.1371 -0.0388  0.1132
 4784W        W20593  17.518   5.486   1.258  0.0462  0.1259 -0.0119
 4785W        W20594   4.146   5.157   1.307 -0.2095 -0.3340  0.1132
 4786W        W20595   6.006   1.818   4.507 -0.1861  0.1139  0.0853
 4787W        W20596   7.800   4.154   2.345  0.1349 -0.3386  0.2724
 4788W        W20597  13.309   3.698   1.833  0.0062 -0.0105 -0.3528
 4789W        W20598   4.514  11.438  15.221  0.0117  0.1563 -0.3279
 4790W        W20599   7.448   9.418  12.656 -0.3505  0.0953  0.1644
 4791W        W20600  14.492   9.152   4.740  0.0427 -0.3475 -0.2178
 4792W        W20601   3.502  18.661   1.876 -0.0473 -0.0348  0.0404
 4793W        W20602   3.653  16.740  12.592 -0.1614 -0.2036 -0.0453
 4794W        W20603   5.117   5.907  13.726  0.1522 -0.2557  0.1126
 4795W        W20604   5.376   3.549  11.656  0.1365 -0.1265  0.1410
 4796W        W20605  13.442  17.615  15.385 -0.2181  0.1285  0.2828
 4797W        W20606  16.597   6.159  15.304  0.1181  0.1178 -0.0127
 4798W        W20607   5.565   8.313  14.954 -0.0150  0.0324 -0.0618
 4799W        W20608   8.214  16.747  13.640  0.1202  0.1350 -0.0903
 4800W        W20609   8.488  15.152   1.151 -0.2011 -0.0461 -0.0730
 4801W        W20610   7.969   5.710  15.462  0.3953  0.2574  0.2855
 4802W        W20611   7.444   6.866   1.525  0.0346  0.0648 -0.0755
 4803W        W20612  15.605   5.918   3.860  0.3990  0.0446 -0.0114
 4804W        W20613   1.701   5.102  13.938 -0.5894 -0.0735 -0.3097
 4805W        W20614  17.193  16.903  12.242  0.0867  0.2250 -0.2180
 4806W        W20615   4.952  12.246  10.568  0.2082  0.0154  0.2061
 4807W        W20616  18.122   0.631   2.836  0.0963  0.1043 -0.0532
 4808W        W20617  16.580   9.660  11.972 -0.5608  0.1351 -0.0063
 4809W        W20618   2.754   5.937   2.589 -0.0701  0.4011  0.1084
 4810W        W20619   5.528  18.282   2.473 -0.0766  0.1288 -0.0570
 4811W        W20620   4.243   1.896  13.943 -0.0054  0.2745 -0.1737
 4812W        W20621  10.236   9.544  13.142 -0.2311 -0.0226 -0.1316
 4813W        W20622   7.228  10.984  14.856  0.2893  0.1662  0.0801
 4814W        W20623   4.058   1.253   1.452  0.1315  0.1851 -0.0326
 4815W        W20624  14.015  12.546   5.406  0.1396 -0.0634  0.0900
 4816W        W20625  17.438  15.650   5.108 -0.0066 -0.0858  0.0005
 4817W        W20626   1.266  15.544  15.064 -0.0905 -0.0683 -0.1484
 4818W        W20627   4.607   5.410  11.439 -0.0652  0.1295  0.1149
 4819W        W20628  18.115   7.395  11.146 -0.2041 -0.2128  0.0025
 4820W        W20629   2.422   4.067  14.430 -0.0492  0.0398 -0.1042
 4821W        W20630   2.834   9.047  13.420  0.3136 -0.0536  0.0617
 4822W        W20631  12.006  17.197   2.488  0.2477  0.0243 -0.0354
 4823W        W20632  18.264  14.465  11.653  0.3342 -0.2224 -0.1861
 4824W        W20633  18.542   8.605  13.403 -0.0470  0.3530 -0.1756
 4825W        W20634   1.374   3.652  13.746 -0.4826  0.4059 -0.3462
 4826W        W20635   7.060   4.291   4.489 -0.1114  0.2426  0.2085
 4827W        W20636  14.227   3.308  13.867  0.1861  0.1596 -0.2759
 4828W        W20637  13.448   1.232   5.583 -0.1459  0.0355 -0.3071
 4829W        W20638  18.266   1.868  10.853 -0.1038  0.1034  0.0608
 4830W        W20639   4.815   4.484  11.870  0.0368 -0.0873  0.1617
 4831W        W20640   8.410  10.438  15.545 -0.3874 -0.2743  0.2356
 4832W        W20641  14.656  17.913   0.369  0.2397 -0.1663  0.2768
 4833W        W20642  12.046  10.910   2.884  0.2452  0.0790 -0.1822
 4834W        W20643  13.582   7.310   0.391 -0.0404 -0.0379 -0.1954
 4835W        W20644  14.507   1.530   5.754  0.1791 -0.0695 -0.4323
 4836W        W20645  15.381  18.041   1.340 -0.0839 -0.2621  0.0051
 4837W        W20646  18.116   5.661   4.934  0.3307 -0.0523 -0.1432
 4838W        W20647   1.105   1.953  13.147 -0.2648 -0.1076  0.4429
 4839W        W20648   8.953  14.390  12.567 -0.2958  0.0093 -0.1201
 4840W        W20649  11.573  18.281  15.471  0.0022  0.1847 -0.0768
 4841W        W20650   1.635   7.441  11.094  0.1579  0.0131  0.1621
 4842W        W20651  11.364   8.881   1.004  0.3027 -0.1872 -0.0548
 4843W        W20652   3.724   7.697  14.250  0.1999 -0.3642 -0.2153
 4844W        W20653  12.421  16.317   5.243 -0.0885  0.2932  0.0183
 4845W        W20654   1.074   3.523   2.848 -0.0286 -0.0661  0.0094
 4846W        W20655  18.030  10.308  15.191  0.3038  0.4064 -0.0841
 4847W        W20656  13.268  17.469   1.075 -0.1058  0.0443 -0.1785
 4848W        W20657   7.619  13.657  10.617 -0.0440  0.0747  0.3260
 4849W        W20658  17.545   4.147  12.940  0.0166  0.0126 -0.0546
 4850W        W20659   3.466   9.533  13.199  0.1728  0.0573 -0.0155
 4851W        W20660   8.811   9.880  14.042 -0.1884 -0.1566  0.3529
 4852W        W20661  10.375  10.914   6.101 -0.0587 -0.4377 -0.3073
 4853W        W20662   5.927   6.859  10.901  0.3485  0.1419 -0.2152
 4854W        W20663  12.132  17.578  13.850 -0.0444  0.1658  0.1263
 4855W        W20664  18.072   1.510  11.095 -0.0762 -0.1434  0.1266
 4856W        W20665  11.592  13.143  14.409 -0.0937  0.0669 -0.0332
 4857W        W20666   4.270  18.100   4.828 -0.0035  0.1203  0.0089
 4858W        W20667  16.813   2.956   1.480 -0.1368  0.1301  0.3539
 4859W        W20668   5.739   7.769  12.968 -0.0962 -0.2961  0.0667
 4860W        W20669   3.116  18.532  12.263 -0.0902  0.2490  0.2530
 4861W        W20670  15.928   3.318   0.926 -0.1198  0.1747  0.0318
 4862W        W20671  12.166  10.933   1.508  0.1047 -0.1119 -0.0912
 4863W        W20672   5.086   6.590   1.353  0.2931 -0.1913  0.0283
 4864W        W20673   2.101   7.390   0.906 -0.0184  0.1436 -0.0035
 4865W        W20674  18.258   7.482  12.713  0.1704 -0.1719 -0.2929
 4866W        W20675  12.784  10.378  14.635 -0.0982 -0.1934 -0.0041
 4867W        W20676   8.637   7.197  11.396  0.0654  0.0057  0.2464
 4868W        W20677  13.686  14.404   1.539  0.1525 -0.0355 -0.0528
 4869W        W20678  16.879   5.541   3.458  0.1364 -0.1126 -0.1790
 4870W        W20679  10.103   8.417  14.406 -0.1862  0.1071  0.1226
 4871W        W20680   2.676  15.967   4.035 -0.0624 -0.0283  0.0093
 4872W        W20681  15.996  18.490   4.988  0.1486  0.0883  0.1971
 4873W        W20682  17.157  10.978  15.363 -0.1472 -0.0348  0.0409
 4874W        W20683  12.825  11.165   4.463  0.2318 -0.1279  0.0780
 4875W        W20684   1.215   8.060  14.172 -0.0253  0.4722  0.0943
 4876W        W20685   8.988   5.759   3.335  0.2816 -0.0122 -0.1327
 4877W        W20686  15.043   2.177  11.776  0.0806  0.0196  0.3294
 4878W        W20687  10.300  14.319  12.664  0.2337  0.2009  0.3043
 4879W        W20688  15.792   8.529   4.254 -0.1001 -0.0227 -0.4045
 4880W        W20689   4.912   3.469  14.361 -0.1101  0.1198 -0.0334
 4881W        W20690  18.034   3.307   1.123 -0.0489 -0.0679  0.1428
 4882W        W20691  15.594  12.416  13.521 -0.0823 -0.0007 -0.0262
 4883W        W20692   6.963   1.814   3.147  0.1256  0.2132  0.3152
 4884W        W20693   9.410   3.483   0.993  0.2209 -0.2315 -0.2559
 4885W        W20694   3.411  13.472  10.480 -0.1081 -0.0052  0.3950
 4886W        W20695   8.395   5.464  13.586 -0.1332  0.1639 -0.0354
 4887W        W20696  10.971   9.400  14.877  0.0591  0.1184 -0.0775
 4888W        W20697   5.213   3.851  14.459  0.0748 -0.3675  0.4477
 4889W        W20698  17.457   0.156  12.356  0.0162 -0.0304 -0.4270
 4890W        W20699  15.248   2.131   3.733  0.2231  0.0029  0.0595
 4891W        W20700  10.827   4.450   5.235 -0.1998  0.0999 -0.0480
 4892W        W20701  12.587   6.144  12.182  0.1937 -0.0646 -0.1793
 4893W        W20702  11.431  18.623   5.589 -0.0725  0.1568  0.1562
 4894W        W20703  17.243   9.403  11.196 -0.0134  0.1099 -0.2436
 4895W        W20704  16.122   6.135  13.656 -0.3640 -0.0411  0.0743
 4896W        W20705   9.365  12.522   0.087 -0.1746 -0.3212  0.1094
 4897W        W20706   9.384   1.086  13.993  0.0918  0.1840  0.4250
 4898W        W20707   0.952   4.729  10.507 -0.3748 -0.0421  0.1715
 4899W        W20708  10.585  14.636  10.999 -0.2164 -0.1478  0.0969
 4900W        W20709   1.072  16.538  11.157 -0.1892 -0.1024  0.1412
 4901W        W20710   9.290   7.137   3.952 -0.1331  0.2112  0.3844
 4902W        W20711  13.040  12.573   3.489 -0.0462 -0.1633 -0.0563
 4903W        W20712   0.228  11.215  13.874 -0.0697  0.1693 -0.0568
 4904W        W20713  12.761  12.999  12.559  0.0255 -0.2109 -0.1037
 4905W        W20714  11.898  13.043  13.018  0.0950 -0.2341 -0.1223
 4906W        W20715   9.131   8.516   0.664 -0.0815 -0.5393  0.1299
 4907W        W20716  17.957  13.806   5.593  0.2571  0.1506  0.0021
 4908W        W20717  18.059  14.119   1.564  0.2485  0.2600 -0.1045
 4909W        W20718   5.498  18.442   0.611  0.1037  0.2860  0.6585
 4910W        W20719   6.545   9.379  14.750 -0.3823  0.3669  0.0014
 4911W        W20720   8.490   3.626   4.635 -0.1793  0.3322 -0.0117
 4912W        W20721  10.088   0.923   1.958 -0.0713  0.3721  0.2002
 4913W        W20722   3.237   8.285   2.041  0.2767 -0.1563  0.2938
 4914W        W20723   9.719  10.154  13.647  0.0600 -0.2001  0.3062
 4915W        W20724  13.742   0.079  14.493  0.2202  0.0919  0.2025
 4916W        W20725   6.277  13.799   1.631  0.0013  0.1227 -0.2174
 4917W        W20726   9.735  18.128  15.210 -0.0002 -0.0222 -0.1445
 4918W        W20727   9.572  13.793   0.911 -0.0570 -0.0188 -0.1149
 4919W        W20728   8.839  13.323   0.182  0.3269  0.1833 -0.1530
 4920W        W20729  11.797   4.106   4.167 -0.2283  0.1320 -0.0525
 4921W        W20730   8.837  18.157  13.364  0.1353  0.1539  0.1688
 4922W        W20731   0.209  15.525   3.882  0.0429  0.0380  0.4111
 4923W        W20732   5.083  10.943   4.895 -0.1183  0.2244 -0.2193
 4924W        W20733  12.351  17.571   3.881 -0.1065  0.0660  0.1592
 4925W        W20734  12.093  10.844  14.393 -0.0863 -0.0079 -0.2325
 4926W        W20735  12.918   3.199   4.914  0.0167 -0.1108  0.1622
 4927W        W20736   8.521  14.438  14.128 -0.0424 -0.1149  0.4119
 4928W        W20737  14.249   2.717  11.874  0.0447 -0.1153  0.1030
 4929W        W20738  18.196  18.359  14.007 -0.0453 -0.0109  0.1875
 4930W        W20739  17.522  18.595  10.566  0.1270  0.2026 -0.2356
 4931W        W20740  18.049   2.144  13.103 -0.3001 -0.0857 -0.2534
 4932W        W20741  18.265   8.140   4.239  0.4737 -0.1194  0.2341
 4933W        W20742   4.350   7.360   3.412 -0.0429 -0.3284 -0.0044
 4934W        W20743  13.875   3.238   4.974 -0.1572  0.1666 -0.2695
 4935W        W20744   3.333   3.319   3.582  0.1334  0.0523  0.2939
 4936W        W20745  14.099  17.410   0.971 -0.0577  0.1329 -0.0399
 4937W        W20746   5.450  15.540   3.020 -0.0299 -0.0385 -0.2671
 4938W        W20747  14.773  15.075  12.331 -0.4059  0.0519 -0.1766
 4939W        W20748   2.851   8.036   5.062  0.0940 -0.1458 -0.2373
 4940W        W20749  12.766   5.817   4.701 -0.1582  0.0052 -0.0128
 4941W        W20750  14.305   9.760   4.935 -0.1543  0.0271  0.1938
 4942W        W20751   5.778  18.056   3.372 -0.1807 -0.0841  0.1043
 4943W        W20752   8.025  17.646  13.506  0.0815 -0.0268 -0.0047
 4944W        W20753  17.731   1.387  14.424 -0.2294 -0.1973 -0.0219
 4945W        W20754   6.706  16.850  11.572 -0.0302 -0.3625  0.0585
 4946W        W20755   6.168  14.381  11.582 -0.0488 -0.1295 -0.2406
 4947W        W20756  16.145   0.201   2.934 -0.2274 -0.1027 -0.3043
 4948W        W20757  17.627  16.916   0.891 -0.4176  0.2202  0.2505
 4949W        W20758   9.838  17.962   4.913  0.1704  0.2763  0.1463
 4950W        W20759  15.053  16.456   1.080 -0.1038 -0.0095 -0.0703
 4951W        W20760  15.688   6.306  15.016 -0.0749  0.1512 -0.1205
 4952W        W20761  11.406   8.347   2.755 -0.0474 -0.0747  0.1886
 4953W        W20762  18.701  15.012   9.436 -0.1869 -0.4379 -0.0254
 4954W        W20763   9.685   2.481   2.423 -0.0693  0.0399 -0.2335
 4955W        W20764  18.153   5.438   5.424 -0.1578 -0.0599  0.1086
 4956W        W20765   4.457   9.053   1.366 -0.1161  0.0881  0.0902
 4957W        W20766   0.888  17.908  15.039 -0.0310  0.1477  0.0745
 4958W        W20767   7.375   0.519   3.604 -0.1112  0.1642  0.1070
 4959W        W20768  12.531   1.723  12.727  0.2956  0.4538 -0.1093
 4960W        W20769   6.710  13.433   4.867  0.1477 -0.3230  0.0148
 4961W        W20770  13.398   2.079   2.064 -0.0344  0.0081 -0.1990
 4962W        W20771  11.958   5.910  13.678 -0.1302 -0.2378  0.0574
 4963W        W20772  14.784   0.128  11.777  0.2057  0.2387  0.1811
 4964W        W20773  15.710  18.349   0.210  0.1866 -0.1087  0.0214
 4965W        W20774   8.673  15.837  11.778 -0.4059 -0.4494 -0.0420
 4966W        W20775   6.065  10.089  14.330  0.3633  0.0503 -0.1399
 4967W        W20776  15.749  17.086   2.029 -0.0441 -0.3240  0.1020
 4968W        W20777  15.714   9.298   3.831 -0.2666 -0.0769 -0.2993
 4969W        W20778  11.360  18.526   2.933 -0.0239  0.0037 -0.0162
 4970W        W20779  10.345   2.065  12.227  0.1323  0.0231  0.0618
 4971W        W20780  15.804   0.187   1.514 -0.1475  0.1495 -0.0262
 4972W        W20781   0.997  18.561   0.871 -0.1261  0.1714  0.4999
 4973W        W20782   7.456   6.245   4.680 -0.0442 -0.0321  0.3468
 4974W        W20783   8.624  16.920  12.805  0.1439  0.0335 -0.0142
 4975W        W20784   5.192  17.214   4.117 -0.0031  0.2229  0.0068
 4976W        W20785  11.946  11.627   4.947  0.1295  0.2260 -0.2809
 4977W        W20786   1.376   5.698   4.682  0.1890  0.0212 -0.0450
 4978W        W20787   1.876  16.938   4.258  0.1750  0.0553  0.2428
 4979W        W20788  13.518   4.927  14.463 -0.2260 -0.0394 -0.1886
 4980W        W20789   5.274   9.822  12.986  0.1087  0.2135  0.1653
 4981W        W20790  18.636   0.089   2.265  0.0820  0.0595 -0.1699
 4982W        W20791   9.539  11.004   1.814 -0.1733  0.2417 -0.1811
 4983W        W20792  14.499   6.321  15.563 -0.0438 -0.0194  0.1482
 4984W        W20793   4.370   7.971   4.833  0.0454  0.2634 -0.2579
 4985W        W20794  18.182  16.395   3.267  0.2243 -0.5676 -0.0438
 4986W        W20795   2.506  11.623  13.330 -0.1220 -0.0321 -0.3229
 4987W        W20796  15.728  10.635  11.879 -0.1633 -0.0959 -0.2282
 4988W        W20797   4.270   7.911   4.072 -0.1287 -0.1848  0.0193
 4989W        W20798  14.696  17.412   0.297 -0.1278 -0.3249  0.0886
 4990W        W20799  11.133   9.676  14.371  0.2873 -0.2207 -0.3795
 4991W        W20800  18.087  16.257  15.413 -0.1286 -0.1253  0.0095
 4992W        W20801  15.596   9.301   5.433  0.0787 -0.3255  0.2018
 4993W        W20802  16.984   3.842   5.201  0.2290 -0.0381 -0.1895
 4994W        W20803  14.367   0.342   5.382  0.1258 -0.0843  0.2934
 4995W        W20804   3.165   4.170   4.030 -0.0954  0.1645 -0.0742
 4996W        W20805  15.582   7.369  10.840  0.0804 -0.0974 -0.3207
 4997W        W20806   2.694  18.745  15.106 -0.1392  0.1337  0.0915
 4998W        W20807   3.080   6.023  10.820 -0.3856  0.1799  0.3551
 4999W        W20808   9.579   4.237  12.394  0.2254 -0.0326  0.0525
 5000W        W20809  17.290   2.392   4.395  0.0065 -0.0956  0.1206
 5001W        W20810   5.311   9.537   5.385 -0.0950 -0.0123  0.3327
 5002W        W20811  13.989  13.674   0.684 -0.1739  0.1139 -0.0290
 5003W        W20812  11.719  17.050   4.287 -0.1651  0.0806  0.0846
 5004W        W20813   7.499   0.772  14.716  0.3477  0.2241 -0.2151
 5005W        W20814   6.133   6.834   2.763  0.0057 -0.1988  0.1820
 5006W        W20815   1.432   5.782   2.418  0.0247 -0.2143  0.2152
 5007W        W20816  11.250  15.148  12.309  0.0272 -0.2494 -0.1114
 5008W        W20817   6.421  15.408   4.675 -0.0070 -0.3298 -0.0707
 5009W        W20818   9.425  17.968   4.227 -0.0112  0.0941 -0.0128
 5010W        W20819   6.426  10.922  11.027  0.1910 -0.3195  0.0863
 5011W        W20820   6.667  17.305   0.633  0.2577 -0.2971 -0.3529
 5012W        W20821  12.337  16.294   4.726  0.3082 -0.0329 -0.0732
 5013W        W20822  18.747   2.055   0.032  0.1237 -0.1918  0.0400
 5014W        W20823   4.204  18.684  13.274  0.0963 -0.0170 -0.1383
 5015W        W20824  13.966  17.869   5.404  0.2716  0.3624  0.0467
 5016W        W20825   3.471  13.369   0.097  0.0817  0.1880  0.2792
 5017W        W20826  15.269   4.244   0.190 -0.1847  0.0863 -0.0361
 5018W        W20827  11.423  17.533  11.326  0.0039  0.0499 -0.1084
 5019W        W20828   0.122  14.603  15.157  0.1242  0.1200 -0.2012
 5020W        W20829  13.863   1.492   5.368  0.1267  0.1307 -0.3854
 5021W        W20830   6.057  10.936   0.912 -0.0354 -0.3996  0.2544
 5022W        W20831   4.550  18.229   3.095 -0.4143  0.1472 -0.3186
 5023W        W20832   8.686   2.242   4.658  0.3258  0.1333 -0.0385
 5024W        W20833   6.693  11.705   5.204 -0.1378  0.2273 -0.2339
 5025W        W20834  16.235   3.219   4.327  0.1368 -0.0038 -0.1156
 5026W        W20835   7.202  17.899   1.346  0.0718  0.0647  0.0545
 5027W        W20836  10.810   0.509  15.375  0.1814 -0.1632 -0.0454
 5028W        W20837  16.165   0.292   1.823 -0.4244  0.0031  0.1306
 5029W        W20838  18.303  14.635   0.964 -0.0650  0.0571  0.0498
 5030W        W20839  11.171  15.201   1.775 -0.1870  0.1032  0.1522
 5031W        W20840  10.775   2.441  15.541 -0.2758 -0.1609  0.2495
 5032W        W20841  16.411   2.483  15.239 -0.0463  0.0327  0.0817
 5033W        W20842  18.485  16.110   5.529 -0.1679  0.2057 -0.0722
 5034W        W20843  12.254  15.578   1.683  0.1230  0.3678 -0.2702
 5035W        W20844   5.397   0.093  10.876 -0.0104 -0.0137 -0.0789
 5036W        W20845   7.594  14.871  10.994  0.3031 -0.2402 -0.2008
 5037W        W20846  13.140   1.772   9.892 -0.0617  0.0355  0.1830
 5038W        W20847   0.524   9.827  13.795 -0.0216 -0.0081  0.0272
 5039W        W20848   0.132   1.166  12.833 -0.3413 -0.0651 -0.1984
 5040W        W20849  12.742   7.539   6.233 -0.2538  0.1399  0.4682
 5041W        W20850  14.284   2.705  14.178 -0.2018 -0.0659  0.1077
 5042W        W20851   3.926  13.313   4.783  0.0227  0.3092 -0.0527
 5043W        W20852  14.408   0.959   0.761 -0.0016 -0.0554  0.3866
 5044W        W20853  18.359   3.516   2.070  0.1931  0.1792  0.0053
 5045W        W20854   8.249   9.128   4.067  0.1015  0.3644  0.0311
 5046W        W20855  13.916  15.306  14.385  0.3283  0.1006 -0.1320
 5047W        W20856   3.002  17.751   5.105  0.3519  0.2575  0.3254
 5048W        W20857  16.882  10.143   5.025 -0.0042  0.2824  0.0635
 5049W        W20858   7.557   3.928   1.038 -0.1403  0.0999  0.2912
 5050W        W20859  16.247   7.473  13.626 -0.1130 -0.1908 -0.4012
 5051W        W20860  13.485  10.720  11.743  0.0503  0.0881 -0.1531
 5052W        W20861  16.476   8.136  10.000  0.2177 -0.0951  0.1428
 5053W        W20862   1.661   6.336  14.086 -0.0495  0.1491  0.0589
 5054W        W20863  10.601   2.733   6.373  0.1407 -0.1542  0.2585
 5055W        W20864  17.225   1.468  14.551  0.1029 -0.2824 -0.4034
 5056W        W20865  13.664  15.527   0.174 -0.2236  0.1689 -0.4140
 5057W        W20866  11.502   2.611   1.493 -0.0885 -0.2220  0.0796
 5058W        W20867   7.591  14.319  12.821 -0.0795  0.0452 -0.3289
 5059W        W20868   4.163   3.661  10.487 -0.1439  0.0674 -0.0667
 5060W        W20869  17.705  16.108   3.314  0.4653 -0.1070  0.0501
 5061W        W20870  12.000   4.193  11.169 -0.0276 -0.0869 -0.2891
 5062W        W20871  17.244   2.019   1.421  0.1108 -0.0980 -0.0601
 5063W        W20872  15.844   3.824   2.423  0.1554  0.1771  0.0576
 5064W        W20873  18.017   6.441   1.019 -0.0659  0.1992 -0.1089
 5065W        W20874  13.813  13.316  11.517 -0.1669 -0.1050  0.2724
 5066W        W20875   4.184   6.354  14.785 -0.1022 -0.0158 -0.1454
 5067W        W20876  14.424   8.423   1.359  0.0151 -0.1454 -0.0188
 5068W        W20877   5.943  17.919   9.430  0.0865  0.0210  0.1228
 5069W        W20878  16.328   9.678   2.831 -0.2382  0.0910  0.2544
 5070W        W20879   2.506   0.864  15.060  0.1116 -0.0678 -0.1086
 5071W        W20880   2.872   0.762  14.614  0.3213 -0.3071 -0.2388
 5072W        W20881   6.802   7.059   2.237  0.0514 -0.2375 -0.1265
 5073W        W20882   2.636  14.284   0.218 -0.1399  0.0187 -0.1273
 5074W        W20883   3.112  13.990  14.113  0.0704  0.3883 -0.3116
 5075W        W20884   2.621   3.138   4.791  0.5540 -0.3990  0.4589
 5076W        W20885  10.395  10.418  11.032 -0.0110 -0.0860  0.1071
 5077W        W20886   0.412   4.626  15.471 -0.0507 -0.0353  0.1244
 5078W        W20887   2.459   1.503   0.035  0.1035 -0.1049 -0.1570
 5079W        W20888   7.408   4.356   1.533  0.4812 -0.0322  0.0584
 5080W        W20889   4.460  18.212  12.402 -0.0463 -0.1054  0.1677
 5081W        W20890  16.367  17.309  11.699  0.1962  0.1728 -0.0896
 5082W        W20891  13.939   7.444   3.898 -0.0394 -0.2134  0.0663
 5083W        W20892  18.038  10.556  12.166  0.1412  0.2967  0.0593
 5084W        W20893  18.660   4.528   2.673 -0.1096 -0.4116 -0.0730
 5085W        W20894   3.952  17.957  15.252 -0.0363  0.0333  0.2965
 5086W        W20895   4.372   2.829  11.298 -0.2847  0.1932  0.5711
 5087W        W20896  16.347  17.936  11.434  0.0315 -0.0254 -0.5405
 5088W        W20897  10.241   9.928  12.716  0.0231 -0.1485 -0.2667
 5089W        W20898   5.476   6.836   2.218 -0.1724  0.2075 -0.1507
 5090W        W20899  10.009   4.232  14.420 -0.3260 -0.1059 -0.0288
 5091W        W20900   9.106   0.064   9.932  0.2831 -0.0445  0.0338
 5092W        W20901  12.375  10.920   0.372  0.1544 -0.0817 -0.1974
 5093W        W20902  17.992  11.075  12.179  0.0975 -0.2776  0.0938
 5094W        W20903   4.634  10.992   0.766 -0.0405 -0.2403  0.2857
 5095W        W20904   5.040  10.379   5.204  0.2674 -0.0180 -0.2957
 5096W        W20905   4.640  15.058  10.689 -0.3357 -0.1147 -0.0505
 5097W        W20906  18.303   0.528   2.332 -0.1175  0.2849  0.1968
 5098W        W20907  17.199   5.577   0.285  0.3902  0.1252 -0.1058
 5099W        W20908  18.080   5.698   3.077  0.3370  0.0208  0.1028
 5100W        W20909   7.717   1.978   1.904  0.0483  0.2199 -0.0024
 5101W        W20910  17.786  13.298  12.688 -0.2507 -0.4004  0.1138
 5102W        W20911   6.944   9.994   3.552 -0.0835 -0.2516 -0.3822
 5103W        W20912  11.350   1.011   1.479 -0.0717  0.0396 -0.0931
 5104W        W20913  17.829   5.893  14.643 -0.0311 -0.2350 -0.2110
 5105W        W20914   3.557  13.913  12.252  0.0819  0.0866 -0.0943
 5106W        W20915  16.844  13.680   0.918  0.3039  0.2019  0.0764
 5107W        W20916  12.252   3.924   4.971  0.2131  0.0772  0.3161
 5108W        W20917   4.873  17.425   0.200 -0.2617  0.3747  0.0574
 5109W        W20918   0.104  16.412  11.078 -0.1457 -0.1256 -0.2360
 5110W        W20919   0.647  16.734   5.033  0.1366 -0.3419  0.0690
 5111W        W20920   1.037  13.685  12.050  0.2062 -0.1244 -0.1526
 5112W        W20921  18.420   2.422  12.933  0.2312 -0.1594  0.0798
 5113W        W20922   4.783  17.921  11.628 -0.2107  0.1165 -0.2722
 5114W        W20923   3.165   3.748  12.803  0.1265  0.3829  0.2025
 5115W        W20924   2.355   9.958  12.442  0.2357  0.1338  0.2245
 5116W        W20925   1.614   0.389  15.156 -0.2000 -0.1342  0.1394
 5117W        W20926   2.405   2.778   0.092  0.0005 -0.0695  0.0124
 5118W        W20927   2.781   7.082   4.339  0.1275 -0.0947  0.2201
 5119W        W20928  17.030   6.779  11.276 -0.0314  0.0054  0.0060
 5120W        W20929   2.872   1.280  12.264 -0.4405 -0.0864  0.1528
 5121W        W20930   4.135   1.750  11.883  0.1689 -0.0905  0.0841
 5122W        W20931  10.120  10.965  14.641 -0.3142  0.0898  0.4054
 5123W        W20932  15.174  12.423   4.418  0.0783 -0.0940  0.0146
 5124W        W20933  12.863  15.591   0.307  0.1764  0.2190 -0.0096
 5125W        W20934   0.650  13.963  13.970  0.2164 -0.0565  0.0373
 5126W        W20935   4.422  13.593  14.470 -0.1028  0.1095 -0.2014
 5127W        W20936  14.094   5.423   0.686 -0.0668 -0.1701  0.2248
 5128W        W20937  13.935   0.038  11.746 -0.3584 -0.0095  0.2189
 5129W        W20938   5.909  15.224   4.511  0.0781 -0.1028  0.2141
 5130W        W20939  16.803  10.738  14.177 -0.3162 -0.0283 -0.2053
 5131W        W20940   8.978  16.979   0.342 -0.1754 -0.0002 -0.1843
 5132W        W20941   0.919   2.962  13.212 -0.0694  0.2642  0.4436
 5133W        W20942   1.572   6.175   0.116 -0.0132  0.2714  0.1277
 5134W        W20943   5.702  15.847   2.695 -0.1767  0.0449  0.1789
 5135W        W20944   1.146   9.895   2.063 -0.0229  0.1216 -0.2807
 5136W        W20945  17.917  18.619   2.119  0.0990 -0.4793  0.2139
 5137W        W20946   9.710  11.260  12.698 -0.1435  0.2035  0.0414
 5138W        W20947  15.303   2.206   2.566 -0.1506 -0.2130 -0.0346
 5139W        W20948  16.831   7.377  13.828 -0.0811 -0.1509  0.3120
 5140W        W20949  12.342  16.255   4.027 -0.2068 -0.0083  0.2006
 5141W        W20950  11.654   5.949  11.891  0.0140  0.2728 -0.0269
 5142W        W20951  12.534   8.595   2.717 -0.3675 -0.1119 -0.1812
 5143W        W20952  10.684  11.313  15.370  0.2300  0.1298  0.1677
 5144W        W20953  15.997  17.637  11.660  0.1791  0.0171 -0.1721
 5145W        W20954   2.720  17.737  14.248  0.2099  0.2445  0.2530
 5146W        W20955  11.164   4.816  11.866  0.0244 -0.2198 -0.0363
 5147W        W20956  12.903   6.974   5.615 -0.0113  0.0094  0.2739
 5148W        W20957  15.712  17.389  15.166 -0.0072  0.1279 -0.2010
 5149W        W20958   5.627  16.968  10.735 -0.3020 -0.2798 -0.1714
 5150W        W20959   6.393   4.365  13.826 -0.1017  0.1523 -0.0817
 5151W        W20960  16.832  18.142   3.778  0.0683 -0.1557 -0.1029
 5152W        W20961   4.455   3.262  13.063  0.1449  0.0448 -0.1479
 5153W        W20962   3.624  12.518   1.228 -0.1704  0.1614  0.0250
 5154W        W20963   7.735  17.676   0.169  0.3666  0.1399 -0.2298
 5155W        W20964  10.616  15.285  14.551 -0.0850 -0.2671 -0.0350
 5156W        W20965  11.118  18.653  12.930 -0.1186 -0.0430  0.0273
 5157W        W20966  16.141  12.400  12.833  0.0589  0.1500 -0.0132
 5158W        W20967   4.551   1.452  15.302  0.0046  0.0350 -0.1251
 5159W        W20968   9.511  18.541  10.844  0.1659 -0.0274  0.0552
 5160W        W20969  10.000  10.752  11.356 -0.1863  0.1362  0.0456
 5161W        W20970   9.287  14.539   4.752  0.1227  0.0361 -0.0692
 5162W        W20971   7.313   5.252  11.115  0.3955 -0.3954  0.0378
 5163W        W20972   0.739  18.756  12.116 -0.4730  0.1915  0.1445
 5164W        W20973   9.322   8.711  12.786 -0.2052  0.2890 -0.2122
 5165W        W20974   9.515   4.034   1.126 -0.1077 -0.0462 -0.1973
 5166W        W20975   0.227  13.204  14.174 -0.0243  0.1658  0.1840
 5167W        W20976   7.276   9.647  14.136 -0.4823  0.0820  0.0109
 5168W        W20977   1.588  15.674  14.210  0.1763 -0.1724 -0.2907
 5169W        W20978  10.216   5.260  12.767  0.0301 -0.0066 -0.1812
 5170W        W20979  16.625   5.214   0.645 -0.0496  0.1767 -0.2749
 5171W        W20980  16.650   9.022  12.549 -0.0037 -0.1030  0.1374
 5172W        W20981   2.068   8.398   0.601 -0.3411 -0.0991 -0.1056
 5173W        W20982   0.059   9.236  12.929 -0.4933 -0.0269 -0.1465
 5174W        W20983   8.396  12.730   3.122 -0.0538 -0.2097  0.0075
 5175W        W20984  14.094   2.855  13.671 -0.0693 -0.0991 -0.2105
 5176W        W20985   7.665  10.535   5.419  0.0840  0.1019  0.2036
 5177W        W20986  16.292   8.512   0.947 -0.1065 -0.0408 -0.0879
 5178W        W20987   0.170  15.420  13.086  0.0104 -0.0351 -0.1649
 5179W        W20988  15.772   5.620   0.740 -0.1439  0.1943  0.3898
 5180W        W20989   7.972  17.498   2.004 -0.2839  0.2078  0.0047
 5181W        W20990  13.169   8.646   3.813 -0.0297 -0.0800 -0.2486
 5182W        W20991  16.146   5.210   0.740  0.1359 -0.0261  0.3598
 5183W        W20992   5.130  16.810   4.448  0.0065 -0.0461 -0.0802
 5184W        W20993  13.182   3.792   0.567 -0.2651 -0.0471 -0.1582
 5185W        W20994   2.234   1.754   5.582 -0.1476  0.1426  0.1292
 5186W        W20995   5.140   3.675   4.929 -0.1325  0.0537  0.2567
 5187W        W20996   6.632   7.087  12.530 -0.0910  0.1372  0.0738
 5188W        W20997   0.758   8.966   2.643  0.1404 -0.4175  0.4532
 5189W        W20998   7.402  15.085  10.492 -0.0099 -0.1059 -0.0431
 5190W        W20999  16.446  14.136  10.396 -0.2090  0.2474 -0.0929
 5191W        W21000  17.325   5.566  11.692  0.2068 -0.3527 -0.2733
 5192W        W21001  13.240   5.548   4.432 -0.1464 -0.4851 -0.0507
 5193W        W21002  14.396   9.968   4.029  0.4612  0.3211  0.0155
 5194W        W21003   9.415   0.789  12.366 -0.1643  0.1243 -0.1460
 5195W        W21004  14.601   4.678  15.120  0.4103 -0.0413 -0.0233
 5196W        W21005   1.691   6.355  13.139  0.0277  0.0250  0.1068
 5197W        W21006  10.223  14.041  14.307 -0.0810 -0.0555  0.1710
 5198W        W21007  16.846   2.569  14.223 -0.1478  0.4108  0.1001
 5199W        W21008   8.198   4.206  14.237 -0.1981 -0.0855  0.1767
 5200W        W21009  14.572   3.188   1.291  0.1402 -0.0304  0.1811
 5201W        W21010   5.392  12.130  14.320  0.3239  0.3633  0.0042
 5202W        W21011  18.147   2.451  15.538 -0.3471 -0.1428  0.3600
 5203W        W21012   9.292  13.800  13.754 -0.1585  0.1330  0.0591
 5204W        W21013  16.223   5.339   0.290  0.0418  0.0673  0.0499
 5205W        W21014   9.979   7.863   2.426 -0.1533  0.1101 -0.2391
 5206W        W21015   8.951   2.915   0.236 -0.0555 -0.1923 -0.0972
 5207W        W21016   5.657   8.534   3.049  0.0465 -0.5176  0.2410
 5208W        W21017   7.070   2.514   4.855 -0.1862 -0.0603 -0.0194
 5209W        W21018  12.572   7.563   0.475  0.2199 -0.1331  0.1040
 5210W        W21019   8.879   6.505  11.870 -0.0503 -0.2411 -0.0724
 5211W        W21020   2.847  11.617  11.375  0.1053 -0.0309  0.0794
 5212W        W21021  17.494  10.333  12.966  0.0624  0.1064 -0.0955
 5213W        W21022   1.846  12.785   0.602 -0.1107 -0.3282 -0.4801
 5214W        W21023  11.224   8.841   0.013  0.0384  0.0162 -0.1748
 5215W        W21024  11.264   8.240   0.337 -0.1553  0.1690 -0.1071
 5216W        W21025  18.151   7.154   3.973 -0.0692 -0.1057  0.1339
 5217W        W21026  17.890  17.695  15.194 -0.1949 -0.0396 -0.3000
 5218W        W21027  16.463   5.086   3.595  0.1424  0.1174  0.1496
 5219W        W21028   5.407  18.604   1.288  0.0507 -0.2653  0.0454
 5220W        W21029  13.882  16.896   5.345 -0.0369 -0.2834 -0.1571
 5221W        W21030   0.571  15.468   2.837 -0.0388  0.1486 -0.1233
 5222W        W21031   7.777   9.825  12.487 -0.2497 -0.0649  0.2398
 5223W        W21032   4.282   8.471   4.122 -0.1489  0.0917  0.0428
 5224W        W21033  16.897   0.253   1.169 -0.0970  0.0767 -0.0117
 5225W        W21034  18.628  10.206   2.655 -0.2291  0.5333 -0.1317
 5226W        W21035   7.184  13.708   3.781  0.2116  0.1015 -0.1315
 5227W        W21036  14.132  15.649   1.810  0.0007 -0.1802  0.1815
 5228W        W21037  15.123   8.833  11.617  0.3377 -0.0340  0.0502
 5229W        W21038  14.938  11.545  14.977  0.0919 -0.0029 -0.2773
 5230W        W21039   5.760   9.942  13.382  0.3743  0.2273 -0.0770
 5231W        W21040   4.248  14.505  13.470  0.0886 -0.1546  0.2711
 5232W        W21041   0.095  18.689  13.277 -0.3750 -0.0561  0.4125
 5233W        W21042  15.521   3.332   2.985 -0.0133 -0.0096 -0.1426
 5234W        W21043  14.921  14.173   5.859  0.2031  0.2811  0.1779
 5235W        W21044   7.466  12.827  13.920  0.2809  0.2123  0.0148
 5236W        W21045   5.261   8.664   2.094  0.2936 -0.2227 -0.2027
 5237W        W21046  14.218   9.793   9.862 -0.0826 -0.1409 -0.0475
 5238W        W21047  16.372   2.624   4.510  0.2583 -0.2483  0.0441
 5239W        W21048   4.705   1.292  10.818 -0.1513  0.0863  0.2048
 5240W        W21049  16.307   6.322   5.292 -0.0341 -0.0092  0.1852
 5241W        W21050   1.500   5.222   2.855 -0.1542  0.2569  0.0513
 5242W        W21051   8.073  17.931   4.757 -0.0749 -0.3206 -0.2621
 5243W        W21052  16.267   3.019  10.573 -0.0440  0.0602  0.0553
 5244W        W21053  14.934  14.253   3.496 -0.1853  0.0429 -0.0691
 5245W        W21054  11.182   6.819  15.502 -0.4783 -0.0469 -0.2407
 5246W        W21055  10.206   2.584   1.584 -0.1405 -0.0963  0.1820
 5247W        W21056  12.175   3.072   1.606  0.3139  0.2385 -0.0261
 5248W        W21057   8.285   9.220   1.077  0.0501 -0.1016 -0.5516
 5249W        W21058   1.897   9.923   4.273 -0.2599 -0.2266 -0.1739
 5250W        W21059  14.474  13.601  11.142  0.1304 -0.1330 -0.0720
 5251W        W21060  16.643   5.933   5.472  0.1368 -0.1220 -0.2772
 5252W        W21061  14.925   6.577  14.295 -0.0581 -0.0836 -0.1582
 5253W        W21062  18.058   5.700   1.494  0.1265 -0.0809 -0.0216
 5254W        W21063   3.675   1.958   3.609  0.2510 -0.1477  0.0815
 5255W        W21064  11.729  17.201   3.370  0.2573  0.2088  0.2091
 5256W        W21065  12.034  17.847   0.010  0.1997  0.2061 -0.0688
 5257W        W21066   8.407  13.110   0.103 -0.2374  0.1823 -0.0931
 5258W        W21067   9.402   0.031   4.574 -0.0006  0.1197 -0.1375
 5259W        W21068  16.555  14.945   3.829  0.3468 -0.0760 -0.1268
 5260W        W21069   0.592  16.299   2.498  0.2125 -0.1373  0.2390
 5261W        W21070  13.885  10.719   3.604  0.1068  0.1685  0.1598
 5262W        W21071   4.127   6.574   1.683  0.1545 -0.0103  0.2115
 5263W        W21072   6.063  18.295  12.121 -0.1042  0.1346 -0.0647
 5264W        W21073  10.442  16.755  11.805  0.2447 -0.2296 -0.2814
 5265W        W21074   9.721  12.447  11.922  0.1107  0.4039  0.0986
 5266W        W21075   6.957   8.116  15.060  0.5444  0.1436 -0.2025
 5267W        W21076   3.744   1.462   4.751 -0.0187  0.2505 -0.2404
 5268W        W21077   3.523   5.959   0.622  0.1852  0.1033  0.0012
 5269W        W21078   7.536   3.522   3.518  0.1300  0.1458  0.0684
 5270W        W21079  13.190   9.934   2.743  0.2483 -0.0648 -0.1203
 5271W        W21080  13.586  17.553   3.587 -0.0891  0.0565  0.1397
 5272W        W21081  10.440  16.624   0.747 -0.0033 -0.2999 -0.0435
 5273W        W21082   9.687   1.985   2.158  0.2007  0.0926  0.0041
 5274W        W21083  13.599  16.812  14.726 -0.3222 -0.1072  0.0231
 5275W        W21084   5.252   7.318   2.015  0.0887  0.1967 -0.2256
 5276W        W21085  16.324  10.539  14.286  0.1449  0.0310  0.3437
 5277W        W21086   8.543  10.494   5.293 -0.1058 -0.0630 -0.0762
 5278W        W21087   4.700   5.777   1.714 -0.0763  0.0146  0.0763
 5279W        W21088  10.760   4.590  13.217 -0.0556  0.2461  0.0082
 5280W        W21089   6.325   5.506  12.137 -0.0057 -0.0659 -0.0368
 5281W        W21090  17.635   8.248   2.351  0.0917  0.1577  0.0921
 5282W        W21091  18.506  17.287  12.043 -0.3060 -0.0904  0.0437
 5283W        W21092   0.569   3.523   3.719 -0.3345  0.1491  0.3431
 5284W        W21093  14.071   7.854   4.811 -0.1852  0.3113 -0.0455
 5285W        W21094   4.668   5.741  14.880 -0.1366 -0.1478  0.1804
 5286W        W21095   0.944  12.832  12.187 -0.0492  0.2941  0.1640
 5287W        W21096   2.265   9.155   5.145  0.0034  0.3770 -0.1582
 5288W        W21097  11.929  16.231   1.915 -0.3575  0.0084  0.0168
 5289W        W21098   5.560   6.033  12.864  0.0274  0.1021  0.0382
 5290W        W21099   8.153   3.367  11.259 -0.1021 -0.1705 -0.3818
 5291W        W21100   1.457   4.554  13.170 -0.4101 -0.1906  0.0620
 5292W        W21101   1.212   6.330   0.363 -0.0300 -0.0753 -0.2825
 5293W        W21102  12.986  10.505   4.137  0.2838 -0.1581 -0.2196
 5294W        W21103   4.130  13.192  10.606  0.0372 -0.0730 -0.0544
 5295W        W21104   0.660   3.117  13.625 -0.2068 -0.0297  0.0168
 5296W        W21105  16.179   6.130  14.249  0.0476  0.1841  0.0178
 5297W        W21106  15.826  18.062  14.204 -0.1273  0.0165  0.1412
 5298W        W21107  16.189  17.120  14.172 -0.1868 -0.2789  0.1645
 5299W        W21108   5.597   3.326   0.282  0.3876 -0.2793  0.3247
 5300W        W21109  12.373  17.120  11.606 -0.1536 -0.0311 -0.0378
 5301W        W21110  14.005  14.054   1.769 -0.0889  0.1538 -0.2243
 5302W        W21111   8.467  14.081   2.787  0.2343 -0.1734  0.0815
 5303W        W21112  15.981  17.051   5.399  0.0454  0.4134  0.0554
 5304W        W21113   0.550   3.656   2.936 -0.2474 -0.0120  0.0647
 5305W        W21114   2.393   8.798  15.200 -0.0865 -0.1784 -0.0874
 5306W        W21115  16.029   8.014  11.462 -0.1370 -0.0666  0.1577
 5307W        W21116  10.265  10.007  11.309  0.0210 -0.1328 -0.0403
 5308W        W21117  11.325   4.320   3.197  0.0530 -0.0494 -0.0485
 5309W        W21118  11.609   3.516   3.057 -0.0309  0.2908 -0.4223
 5310W        W21119  12.090  14.088   0.928 -0.1983  0.1229  0.2728
 5311W        W21120   2.186  15.822   0.486  0.1134 -0.0699 -0.1763
 5312W        W21121   2.051   0.967  14.107  0.1424 -0.4110  0.1924
 5313W        W21122   8.565   2.548   5.008 -0.0229 -0.1365  0.1602
 5314W        W21123  16.719   6.530   0.963  0.1069  0.0579  0.1595
 5315W        W21124   6.505   0.774  13.005  0.3160 -0.1128  0.1428
 5316W        W21125  10.643   8.795   4.932  0.0846  0.2099  0.0583
 5317W        W21126  16.936  16.110  14.363 -0.1649  0.0116  0.1230
 5318W        W21127  18.034  15.840   0.081 -0.1189  0.0139  0.0800
 5319W        W21128  14.662  12.839   0.208  0.1468 -0.1564  0.2701
 5320W        W21129  10.523   8.686  13.992 -0.3704  0.0212 -0.1145
 5321W        W21130   6.035   3.540   0.436 -0.0226 -0.2151 -0.2064
 5322W        W21131  15.067  11.689  10.389  0.2816 -0.1415 -0.0885
 5323W        W21132  11.030   0.313   4.131  0.2365 -0.2031  0.0805
 5324W        W21133   3.996  14.991  14.777 -0.2036 -0.0769  0.0760
 5325W        W21134   1.161   0.664   3.677  0.0994 -0.1427 -0.1345
 5326W        W21135  18.546   9.010  11.033 -0.0677 -0.1009 -0.2163
 5327W        W21136  13.592   2.922  15.249 -0.0909 -0.0608  0.2151
 5328W        W21137   9.002  17.285  12.798 -0.0798 -0.0358 -0.1059
 5329W        W21138   8.429   3.002   5.164 -0.0238  0.0474 -0.1056
 5330W        W21139   6.591  18.246  15.075  0.1441 -0.1161  0.2652
 5331W        W21140  14.524  16.724  11.683 -0.0471  0.2591 -0.2092
 5332W        W21141  14.334  14.356   5.492  0.2089 -0.0489 -0.1558
 5333W        W21142  17.053  12.017  11.407 -0.0844 -0.2608 -0.1423
 5334W        W21143   6.454  13.948  14.892 -0.0835  0.1374  0.0102
 5335W        W21144  14.739   9.631   1.936 -0.1595 -0.2040 -0.1927
 5336W        W21145   7.552   2.783   4.651  0.0183  0.2965  0.1552
 5337W        W21146   1.497   3.879   4.662  0.1061 -0.0705 -0.0084
 5338W        W21147  17.572  14.777  13.861  0.0386 -0.0817 -0.2766
 5339W        W21148   7.334   0.939  13.757 -0.0821  0.3217 -0.0239
 5340W        W21149  17.514   5.936   0.161 -0.2397 -0.0032 -0.3704
 5341W        W21150  17.026   9.519   1.298  0.0444 -0.3779 -0.1970
 5342W        W21151   3.108   2.173  15.275  0.1207 -0.1334 -0.2281
 5343W        W21152  17.446   0.895  14.593  0.1364 -0.2907  0.0604
 5344W        W21153  18.090  11.557   3.666  0.2426  0.1561 -0.2722
 5345W        W21154   2.229   8.109  10.699 -0.1317 -0.2145 -0.0637
 5346W        W21155   8.377   9.119   3.598 -0.3313 -0.3058 -0.0429
 5347W        W21156  17.663  11.497  15.209 -0.0294  0.0188 -0.0558
 5348W        W21157   3.297  12.697  10.542  0.0203  0.0235 -0.0141
 5349W        W21158  13.730   8.776   3.750 -0.1803 -0.0223  0.0518
 5350W        W21159   5.133  10.721   3.943 -0.5848  0.1709  0.3986
 5351W        W21160  16.953   1.064   4.223 -0.0015  0.0113 -0.1472
 5352W        W21161  11.545   5.910  13.884  0.0478  0.1486  0.1144
 5353W        W21162  18.092  10.220  11.362 -0.1985 -0.2451 -0.2488
 5354W        W21163   1.792  17.791  12.349 -0.0846  0.1519 -0.0664
 5355W        W21164  10.875  15.274  13.490  0.0102  0.0255  0.4458
 5356W        W21165   8.644  10.047   4.973  0.2130 -0.3770 -0.0658
 5357W        W21166   4.281   8.028   6.022  0.0391  0.0482  0.2955
 5358W        W21167   0.226   9.172  14.790  0.0089  0.3525 -0.1232
 5359W        W21168  13.695   8.046   5.084 -0.0289 -0.1598 -0.1196
 5360W        W21169   6.060  13.047  12.783  0.2517  0.1923 -0.0213
 5361W        W21170   9.587   3.981   4.799 -0.0114  0.2857 -0.0436
 5362W        W21171   4.164   5.239   3.301  0.0949  0.0622 -0.0494
 5363W        W21172  16.600  17.114  15.527  0.0581  0.1346  0.4792
 5364W        W21173   5.196   2.985   4.916  0.0773 -0.1507  0.2183
 5365W        W21174  14.881  11.814   0.153 -0.2266  0.2891  0.1941
 5366W        W21175  10.439   5.727   9.847  0.0179 -0.0559 -0.0939
 5367W        W21176  11.040  13.406   3.285  0.1788 -0.0288 -0.2964
 5368W        W21177   3.164   2.707  10.644 -0.0686  0.6072  0.0218
 5369W        W21178  15.846   3.541   5.396  0.1441  0.0618 -0.1794
 5370W        W21179   0.388  17.987  14.913 -0.1350  0.0830 -0.1746
 5371W        W21180   6.123  11.953  15.334  0.1297  0.1444  0.2424
 5372W        W21181  15.999   3.843   0.258  0.3226 -0.2323 -0.5230
 5373W        W21182  13.377   9.566  11.737 -0.3327 -0.1504  0.0343
 5374W        W21183   9.569   2.104  13.535  0.1808  0.1112  0.1685
 5375W        W21184   3.928  16.344  11.356 -0.1123  0.0739 -0.1845
 5376W        W21185   6.158  14.351   0.285 -0.2530 -0.2350 -0.0369
 5377W        W21186  15.026   3.389   0.227 -0.0657 -0.1056  0.0264
 5378W        W21187  13.107  15.150   3.327  0.2292  0.1904 -0.0093
 5379W        W21188   9.419   7.529  12.573 -0.0738 -0.1037 -0.2349
 5380W        W21189  15.278  18.500  10.357 -0.1841 -0.0421  0.1477
 5381W        W21190   3.546   9.021  12.403 -0.0885  0.3812 -0.2221
 5382W        W21191   2.776   7.449  12.043 -0.0269  0.2044 -0.4584
 5383W        W21192  10.063   2.254  13.846 -0.0362 -0.1882  0.1777
 5384W        W21193   9.897  14.686   1.055 -0.2300 -0.0700  0.3928
 5385W        W21194  13.312  18.612  11.703  0.0234 -0.4794  0.2534
 5386W        W21195  17.340  18.040   1.154  0.1936  0.4723  0.2599
 5387W        W21196   8.564   9.785   2.416  0.0136 -0.0868 -0.0506
 5388W        W21197  17.148   7.098  12.399 -0.1752  0.1311 -0.2218
 5389W        W21198  18.340  18.651   0.424  0.1042  0.0470 -0.2924
 5390W        W21199   5.166   2.332   4.329 -0.0143  0.1901  0.0299
 5391W        W21200  15.863  11.478   0.296 -0.2149  0.0671 -0.3419
 5392W        W21201   8.756   8.883  14.899 -0.0482  0.1388 -0.2302
 5393W        W21202  13.382  12.941   3.640 -0.0629 -0.0995 -0.2250
 5394W        W21203   0.410   6.962  13.575 -0.2481  0.0447 -0.0556
 5395W        W21204  13.078  13.395  12.624  0.0227 -0.0386 -0.4642
 5396W        W21205   3.528   6.258   2.835  0.1652  0.4400 -0.2268
 5397W        W21206   8.383  18.380  14.800  0.0934  0.0994  0.2229
 5398W        W21207   5.317  12.258   5.021  0.0221 -0.0769  0.1976
 5399W        W21208   1.566  14.546   2.449  0.1066 -0.1828  0.2052
 5400W        W21209  11.349  14.543   6.200 -0.0269  0.0832  0.1535
 5401W        W21210  11.609  11.141   2.809  0.0028  0.4185 -0.0262
 5402W        W21211  12.041   7.194   3.572  0.3239 -0.1519  0.0728
 5403W        W21212   2.232  18.187   3.971  0.0017 -0.0471  0.1255
 5404W        W21213  15.637  12.130   3.633 -0.1320 -0.1048 -0.0047
 5405W        W21214   3.114  14.655  11.101 -0.0550 -0.3728 -0.3361
 5406W        W21215   1.158   6.400   1.938  0.0010 -0.2781 -0.0790
 5407W        W21216   9.136   7.388   3.557  0.0954 -0.0787 -0.0342
 5408W        W21217   4.215  17.550   0.005 -0.1660 -0.1623  0.2370
 5409W        W21218   4.186   7.936  12.478 -0.1721  0.0497  0.1455
 5410W        W21219   7.659  12.115   1.922  0.0549  0.2091  0.0387
 5411W        W21220   7.212  16.644   2.887 -0.1667 -0.0674  0.0729
 5412W        W21221  15.273   3.801  11.986  0.1163  0.0704 -0.1271
 5413W        W21222   2.088   9.948  11.983 -0.1864 -0.0539  0.3495
 5414W        W21223   9.969   0.167  13.008 -0.1358  0.1568 -0.1455
 5415W        W21224  11.274  16.434  12.933  0.2188 -0.1951  0.0521
 5416W        W21225  15.065   3.242  11.394  0.1164  0.1262  0.2326
 5417W        W21226  15.767   3.673  13.290  0.0015 -0.0777  0.2913
 5418W        W21227   6.114   7.216  12.540  0.0963 -0.2022 -0.0763
 5419W        W21228  15.535  15.440   2.395  0.0371  0.1430 -0.3622
 5420W        W21229   5.567   1.519   2.629 -0.0035  0.1332  0.0086
 5421W        W21230   3.070  17.505  15.050  0.0591  0.0978 -0.0853
 5422W        W21231  12.406   7.052   4.366  0.0858 -0.3871  0.0475
 5423W        W21232  18.505  12.079   0.425  0.1055 -0.1190  0.0768
 5424W        W21233   6.300   8.501   0.605 -0.1558 -0.0032  0.1734
 5425W        W21234   4.824   4.079  14.823 -0.3633  0.0035 -0.1210
 5426W        W21235  12.907  12.677  14.646  0.1989  0.2879  0.4295
 5427W        W21236   1.262   7.119  11.898  0.3084 -0.0155  0.3739
 5428W        W21237  11.915   2.200   3.239 -0.2559  0.1247  0.0720
 5429W        W21238   5.211   4.211   3.733 -0.0734 -0.0242  0.0405
 5430W        W21239  17.095   1.290  14.989 -0.0786 -0.0713  0.0751
 5431W        W21240   2.728  11.057  14.963 -0.0022 -0.0674  0.0111
 5432W        W21241   7.535   1.007  15.233 -0.2206 -0.5300  0.4303
 5433W        W21242  17.812   1.297  13.093  0.2054 -0.3903 -0.2161
 5434W        W21243  11.657   1.018   0.439  0.1431  0.1846  0.0527
 5435W        W21244   9.519   9.394  13.097 -0.0149 -0.1050  0.0158
 5436W        W21245  15.853  16.261   0.804  0.0799 -0.1431 -0.0121
 5437W        W21246   6.610   0.586  11.187 -0.0224  0.0043 -0.1760
 5438W        W21247  11.588   7.515  13.844  0.1204  0.1394 -0.0263
 5439W        W21248  14.596  16.476  12.320  0.1351 -0.1497  0.1203
 5440W        W21249   6.745  14.135   4.800 -0.1312  0.0734  0.3192
 5441W        W21250  18.402   5.778   3.889  0.0025 -0.1717  0.2715
 5442W        W21251   4.572   5.588  10.952 -0.1495  0.3590  0.2300
 5443W        W21252   6.237  18.341   3.150  0.2103 -0.0808  0.2464
 5444W        W21253   3.032  13.096  11.915 -0.2879 -0.2305 -0.3303
 5445W        W21254  12.760  14.936   5.016  0.1410 -0.1109  0.1951
 5446W        W21255  12.701  13.451  14.353 -0.3340 -0.0294 -0.0433
 5447W        W21256   2.111   3.484  11.694 -0.1215 -0.1982  0.0653
 5448W        W21257  11.589   4.301   1.421  0.1297 -0.0225  0.0384
 5449W        W21258   0.173  18.635  11.312  0.4613 -0.1461 -0.0710
 5450W        W21259   8.063  18.607  10.573  0.0380 -0.0299  0.1344
 5451W        W21260   0.649   8.843   3.964  0.1949  0.0338 -0.0371
 5452W        W21261  10.079   3.115   0.786 -0.0179  0.1421 -0.3331
 5453W        W21262  15.864  14.961  11.923  0.1293  0.0816  0.0166
 5454W        W21263   4.126  10.206   0.926  0.2429 -0.3518  0.0136
 5455W        W21264  11.910   2.968   0.123  0.0405 -0.5930 -0.0886
 5456W        W21265  13.952   5.491   1.758 -0.0664 -0.1541 -0.0498
 5457W        W21266  12.542   9.028  11.378 -0.1100 -0.1465 -0.0752
 5458W        W21267  10.233  12.158   1.058 -0.1696 -0.0562 -0.3092
 5459W        W21268   7.066  14.478   3.758  0.3219 -0.1052 -0.2001
 5460W        W21269  14.702   1.223   3.258 -0.0906  0.4370  0.1374
 5461W        W21270   2.486   7.022  10.116  0.3562  0.2828  0.2394
 5462W        W21271  17.752  13.316   0.183  0.0542 -0.3616 -0.1401
 5463W        W21272   5.039   8.817   1.044 -0.2038  0.0667 -0.0807
 5464W        W21273   3.412   5.314  15.150 -0.0302  0.0013 -0.0160
 5465W        W21274   2.957   8.175  14.534  0.0343  0.0391  0.0811
 5466W        W21275   7.100  10.041  15.315  0.0211  0.0109  0.0039
 5467W        W21276   6.888   2.770   2.914  0.0077 -0.0483  0.0936
 5468W        W21277   4.819   5.434  15.268  0.0674  0.2315  0.0590
 5469W        W21278  12.102  12.052   1.172 -0.1086 -0.2714  0.0221
 5470W        W21279   9.532   9.119  12.123  0.1369 -0.0870  0.4419
 5471W        W21280   6.285   5.909  15.396 -0.1294  0.0600  0.0470
 5472W        W21281   6.786   3.986   1.788  0.0861  0.0513 -0.2170
 5473W        W21282  13.452  10.025  10.995  0.1417  0.0070  0.1905
 5474W        W21283   5.251  14.408  12.100 -0.1637 -0.0265  0.1210
 5475W        W21284  16.250   5.444  12.396  0.0973  0.1166 -0.1774
 5476W        W21285  14.636   1.855   1.192 -0.2350 -0.1109  0.1187
 5477W        W21286   4.693   7.602   3.117  0.0113  0.2448  0.0339
 5478W        W21287  18.302  16.629  13.706 -0.0974 -0.0003  0.3633
 5479W        W21288  12.724   3.492  13.484 -0.0329  0.2037  0.3081
 5480W        W21289  13.376   7.501  13.914 -0.1700 -0.1121  0.2312
 5481W        W21290   3.682   3.949  13.968  0.0288 -0.2196  0.0063
 5482W        W21291  18.546  13.201   3.383 -0.0821 -0.2257  0.2907
 5483W        W21292   9.237   1.112  10.703 -0.1699 -0.0785 -0.0493
 5484W        W21293   7.121  15.534  12.322  0.1481 -0.0278  0.0853
 5485W        W21294  10.637   6.769  14.496 -0.0069 -0.2773 -0.4111
 5486W        W21295  15.782   7.390  13.563 -0.2667  0.0120  0.0546
 5487W        W21296  16.825  16.991  13.270  0.2169  0.2862 -0.0474
 5488W        W21297   6.155   2.968   4.325  0.0151  0.3187  0.2678
 5489W        W21298  16.524  13.628   9.936  0.3047 -0.0944 -0.0233
 5490W        W21299  15.420   8.163   0.117  0.1818 -0.1039 -0.0693
 5491W        W21300  10.139  18.483  14.520  0.0320  0.0885  0.0071
 5492W        W21301  17.408  15.551   0.891 -0.1586  0.2031  0.3556
 5493W        W21302  11.978   7.255   5.006 -0.1424 -0.0872 -0.0980
 5494W        W21303   4.310  18.419  11.269  0.0602 -0.3250  0.0189
 5495W        W21304   3.311   4.930   3.432  0.0920 -0.0403 -0.1106
 5496W        W21305  13.397  17.962   0.771  0.2624 -0.1694 -0.4220
 5497W        W21306   5.679  13.051   9.177 -0.2549  0.0301  0.0304
 5498W        W21307   1.811  14.536   3.289  0.1617 -0.0550 -0.2629
 5499W        W21308  10.021  15.533   3.540  0.1285  0.2684 -0.1694
 5500W        W21309   4.729   7.254  11.467 -0.1096  0.3813 -0.0481
 5501W        W21310   4.739   4.384  11.016 -0.0038  0.1222 -0.1994
 5502W        W21311   7.969   9.899   1.760  0.2700 -0.0386  0.1955
 5503W        W21312   8.319  13.581  13.289 -0.0822  0.1971  0.1683
 5504W        W21313  17.135   1.196   1.637  0.3276  0.0709 -0.2828
 5505W        W21314   9.455   9.817   0.303 -0.0543  0.2032  0.2088
 5506W        W21315   5.875  12.869  12.033 -0.0528 -0.1625  0.1878
 5507W        W21316   0.399   8.643   1.967  0.1448  0.0696  0.1899
 5508W        W21317   7.538  15.469   2.013  0.2496  0.3885 -0.1943
 5509W        W21318   9.929  11.454  13.163  0.1228  0.1302 -0.2002
 5510W        W21319   4.137  14.192   4.952 -0.1136 -0.0159 -0.0075
 5511W        W21320   4.526  12.629  12.853  0.1414 -0.0977  0.2755
 5512W        W21321  15.752  18.780  14.987 -0.1451  0.1842  0.1501
 5513W        W21322  15.423   8.857   3.842 -0.1047  0.2171  0.0139
 5514W        W21323  12.737   0.524  11.179 -0.0446  0.0407 -0.2645
 5515W        W21324  15.661   0.139  15.444  0.1217  0.1231 -0.1110
 5516W        W21325  10.277  18.653   2.997  0.0441 -0.0958 -0.2089
 5517W        W21326   7.957   7.973  13.472  0.0163  0.4569  0.2163
 5518W        W21327   9.109  10.561  12.586 -0.3029 -0.0835 -0.0340
 5519W        W21328   4.857   4.175   1.702  0.0472 -0.0450 -0.1079
 5520W        W21329  13.313  18.421  12.790 -0.0973 -0.1673 -0.0642
 5521W        W21330   0.909   4.937  10.937  0.0272 -0.0933 -0.0128
 5522W        W21331  16.641   8.468   1.349  0.1863 -0.2445 -0.2129
 5523W        W21332  17.984  18.000  11.067 -0.0257  0.1256  0.0361
 5524W        W21333   5.825  14.271   4.451 -0.1929 -0.3186  0.1629
 5525W        W21334  12.418   5.844   3.957 -0.1303  0.2990 -0.0853
 5526W        W21335   8.946   3.474   2.963  0.2474  0.0869 -0.0835
 5527W        W21336   5.137   5.444  10.644 -0.3202 -0.3057  0.0109
 5528W        W21337   7.901  14.033  11.581 -0.0080  0.1524 -0.0446
 5529W        W21338   9.627   0.667  13.058  0.0004  0.0539 -0.1166
 5530W        W21339   2.865   2.681  11.909  0.0062 -0.0338  0.2165
 5531W        W21340   6.020   6.205  12.837  0.0499 -0.2056 -0.3224
 5532W        W21341   6.325   5.227  12.573 -0.0851  0.2398  0.3552
 5533W        W21342   8.500   7.695  11.615  0.3649  0.0215 -0.1569
 5534W        W21343  15.286  16.205   3.832  0.0598 -0.0908  0.1747
 5535W        W21344  17.141  10.902   3.620  0.3810 -0.1777 -0.0959
 5536W        W21345   0.261  17.504  15.002 -0.0332 -0.1926 -0.0996
 5537W        W21346  10.907   7.287   0.946  0.1740  0.0126  0.0219
 5538W        W21347  16.410  18.480  11.908 -0.1918 -0.3008  0.0202
 5539W        W21348  11.750   5.128   0.924  0.2209  0.0212  0.0402
 5540W        W21349  15.895  10.715   4.620 -0.1333 -0.0985 -0.1996
 5541W        W21350  12.385   9.860   5.679 -0.3187  0.0514 -0.2887
 5542W        W21351  16.142  17.086   4.877  0.0390 -0.0625 -0.0489
 5543W        W21352  11.662  14.174   6.313  0.0897 -0.0172 -0.3401
 5544W        W21353   8.412  18.715   5.265 -0.1642 -0.4471  0.2928
 5545W        W21354  17.876  12.318  13.767 -0.1686  0.0939 -0.0952
 5546W        W21355  12.959   4.717   1.034  0.2940  0.1741  0.1269
 5547W        W21356   8.304   2.483  12.953 -0.2167  0.2952  0.1516
 5548W        W21357   2.408   2.506   4.089  0.1340  0.1208  0.3771
 5549W        W21358  13.348   8.952  11.091 -0.2999  0.0064 -0.2532
 5550W        W21359   6.642   2.962   4.480  0.1090 -0.2561  0.1273
 5551W        W21360   7.232  18.743   2.446  0.1971  0.1162  0.2018
 5552W        W21361   3.137  10.348   4.021  0.1447 -0.2079  0.0363
 5553W        W21362   9.868  18.106  11.742  0.3442  0.0239 -0.1566
 5554W        W21363  15.120   8.402  11.091 -0.2371  0.0915  0.2159
 5555W        W21364   7.381  11.958  14.574 -0.0123 -0.1359 -0.1329
 5556W        W21365   5.501   4.596   2.916  0.1440 -0.2965  0.0194
 5557W        W21366   7.376   2.329   2.119  0.0530  0.2683  0.0632
 5558W        W21367  11.732  10.649  11.144  0.0616  0.2414 -0.0345
 5559W        W21368   5.527   1.948  11.005 -0.4728 -0.0793  0.2096
 5560W        W21369   1.835   1.764  10.830  0.1301  0.0145 -0.0122
 5561W        W21370   1.822   2.641  11.083  0.0060 -0.0161  0.0650
 5562W        W21371  11.887   8.645  13.788  0.1653 -0.1410 -0.0663
 5563W        W21372   0.739   9.753  13.282  0.0839  0.2738 -0.0308
 5564W        W21373  14.954   6.059   4.442 -0.1939  0.0285  0.1548
 5565W        W21374   8.074  15.653  10.367  0.1443  0.3337 -0.1316
 5566W        W21375   9.057   4.035  14.506 -0.2217 -0.2713 -0.0168
 5567W        W21376  14.759  11.384  10.031  0.0557  0.0362 -0.1638
 5568W        W21377  17.875  11.333  14.806  0.1627 -0.1179 -0.1579
 5569W        W21378  18.597   1.898   3.878  0.3274 -0.2944 -0.0038
 5570W        W21379  17.796   2.790   3.118  0.3528  0.3068 -0.1308
 5571W        W21380   4.961   3.808   4.366 -0.2167 -0.3530  0.1214
 5572W        W21381  12.683  14.491   1.640  0.1732 -0.0717  0.1801
 5573W        W21382   5.994   9.359  14.944  0.3189  0.1776 -0.2170
 5574W        W21383  18.070   7.766  12.328 -0.0809  0.1459 -0.0112
 5575W        W21384  18.583  12.844   2.343  0.0782  0.0192  0.1183
 5576W        W21385   3.414  18.769  14.015 -0.0209 -0.0721 -0.3945
 5577W        W21386  14.445   0.563  12.879  0.0039  0.2006 -0.1160
 5578W        W21387   1.370  10.966   1.728  0.2663  0.3723  0.1506
 5579W        W21388   5.383   7.285   3.016 -0.0088  0.0802  0.1763
 5580W        W21389   7.017   8.728   3.575  0.0374 -0.1895 -0.3454
 5581W        W21390   2.189  16.275  12.367  0.2611 -0.1626  0.0129
 5582W        W21391  11.172  12.485   4.105  0.0969  0.0276 -0.2416
 5583W        W21392  11.462   3.741   4.031  0.1583  0.0565 -0.0985
 5584W        W21393   6.525  13.497  11.622 -0.1295  0.1013 -0.2881
 5585W        W21394  17.209   2.426  12.040 -0.2681 -0.4120 -0.2378
 5586W        W21395  17.251  13.926   4.503  0.0913  0.3598  0.4175
 5587W        W21396   2.520   7.178   1.905 -0.0394  0.0482 -0.0569
 5588W        W21397  14.444   9.009   1.053 -0.1321  0.0695  0.1948
 5589W        W21398   7.406  13.429   1.814  0.3207 -0.2398 -0.4005
 5590W        W21399  16.529   9.259  13.462 -0.3780  0.1809  0.1432
 5591W        W21400   2.139   3.462   1.974  0.3014 -0.0172 -0.0428
 5592W        W21401  11.189   7.303   2.485  0.0695 -0.1491  0.0464
 5593W        W21402  17.495  16.931   0.035 -0.1235 -0.0602 -0.2858
 5594W        W21403   8.687  15.184  11.992  0.2315  0.3358 -0.2079
 5595W        W21404   3.666   9.242   4.022  0.2309  0.0938  0.0760
 5596W        W21405   7.484   6.980   4.181 -0.0346 -0.2667  0.0939
 5597W        W21406   9.560   6.860   3.255  0.0370  0.0795 -0.3099
 5598W        W21407  10.715   0.383   1.341 -0.1849 -0.1545  0.0509
 5599W        W21408   3.528  13.491   3.123 -0.1751  0.0913  0.0922
 5600W        W21409  15.516   1.175  10.904 -0.1214  0.0510 -0.0125
 5601W        W21410   7.282  15.800   3.649  0.2071  0.1403 -0.2943
 5602W        W21411  11.557  15.990  14.583  0.0269  0.1184  0.5214
 5603W        W21412   4.297  16.139   0.088 -0.3207  0.1337 -0.2477
 5604W        W21413  17.308   1.446   2.137 -0.0822 -0.2285 -0.0132
 5605W        W21414   5.824   0.144  13.493 -0.0645  0.2457  0.0763
 5606W        W21415   5.868   4.158   0.647  0.2935 -0.0122  0.0628
 5607W        W21416   7.894   5.165  14.333  0.0573 -0.1784  0.1110
 5608W        W21417  10.457  15.058  13.066 -0.0457  0.4235 -0.0292
 5609W        W21418   8.258  16.575  14.274 -0.0709 -0.2982  0.1725
 5610W        W21419   9.383  10.349   0.339  0.4258  0.0453 -0.2929
 5611W        W21420  10.916  15.564   1.458 -0.4823  0.0613 -0.1561
 5612W        W21421  12.719   6.832   1.901  0.1875  0.1892 -0.1369
 5613W        W21422   2.455  12.241   2.371 -0.0504  0.2397 -0.0129
 5614W        W21423  16.682   3.074  14.058 -0.0063  0.0279  0.1283
 5615W        W21424  18.252   8.816  14.163  0.0289  0.1790  0.1166
 5616W        W21425  16.718  13.966   1.331  0.1864 -0.0346  0.2123
 5617W        W21426   2.923   6.838  11.800  0.4920 -0.2315 -0.1080
 5618W        W21427  15.136  13.566   3.422  0.1242  0.0365  0.0795
 5619W        W21428   7.049   8.357  10.460  0.3447  0.4738 -0.1287
 5620W        W21429  15.710   6.501   2.543 -0.2684 -0.0424  0.3179
 5621W        W21430  16.284   5.643   2.259  0.0264 -0.1913  0.0515
 5622W        W21431  13.502  14.754  10.834  0.0696 -0.1648  0.1831
 5623W        W21432   4.722   8.519   1.893 -0.1421 -0.0461  0.0615
 5624W        W21433   6.334   4.017   0.551 -0.0244  0.2494 -0.1146
 5625W        W21434  13.272  13.155   2.251 -0.0428  0.0087  0.2616
 5626W        W21435   0.664  17.077  14.635  0.1618 -0.2055 -0.0130
 5627W        W21436  18.250   9.117   1.909  0.0367  0.0435 -0.0402
 5628W        W21437   4.199   8.290  10.982  0.3999 -0.1507  0.0389
 5629W        W21438   8.998  11.091  12.766  0.3928 -0.1540  0.0317
 5630W        W21439   6.051   2.949  13.362  0.1265 -0.0330 -0.0786
 5631W        W21440  11.298   0.192   0.533 -0.1889 -0.1723 -0.1460
 5632W        W21441   2.890   8.629   4.629 -0.2664 -0.0974 -0.0979
 5633W        W21442   3.021  14.329  14.488 -0.1605 -0.1237  0.2800
 5634W        W21443  12.271  15.387  12.699 -0.1666 -0.0127  0.0246
 5635W        W21444  16.006  16.709   0.586  0.1699 -0.1805 -0.0502
 5636W        W21445   9.585  12.466   0.545 -0.0848 -0.0324 -0.3171
 5637W        W21446   3.625   5.104   4.520  0.0346  0.0660 -0.1899
 5638W        W21447   0.533  13.001  14.577  0.0227  0.1880  0.3712
 5639W        W21448  14.184   5.595  13.041  0.1990  0.0189  0.0201
 5640W        W21449   9.471   3.310  13.909  0.3404  0.2532 -0.4969
 5641W        W21450   3.968  16.461  15.365  0.1651  0.0531  0.6025
 5642W        W21451  10.525  16.362  11.501 -0.1925  0.0127 -0.1747
 5643W        W21452   3.945  11.190   5.692  0.0677 -0.2416 -0.1458
 5644W        W21453   5.184   0.846   0.919  0.0273 -0.3146  0.0944
 5645W        W21454   4.099   3.535  15.466 -0.3651 -0.1680  0.3365
 5646W        W21455  13.046   0.471   0.483 -0.2559  0.1905  0.0502
 5647W        W21456   0.992  14.098   1.849  0.2360  0.2351 -0.2842
 5648W        W21457   9.943  18.603   3.523  0.0392  0.0648 -0.1574
 5649W        W21458   6.568   6.508  12.279 -0.3688  0.1112  0.1126
 5650W        W21459   1.088  13.521   0.613  0.1434  0.2412  0.0283
 5651W        W21460  12.573   9.309  10.123  0.3492  0.0884 -0.0378
 5652W        W21461  10.177   0.787   0.880 -0.0953  0.0316 -0.2007
 5653W        W21462   3.829  10.863   3.255 -0.1041 -0.1147  0.0806
 5654W        W21463  10.246  13.468   1.295 -0.3260  0.0640 -0.0665
 5655W        W21464   6.258  15.808  10.631 -0.1671  0.2876 -0.0311
 5656W        W21465  17.015   7.039  11.677  0.0443  0.2213  0.2404
 5657W        W21466  18.402  10.904  12.458  0.1329  0.4365 -0.2401
 5658W        W21467   6.472  11.739  12.794  0.0214 -0.3248  0.3344
 5659W        W21468  17.937   5.573  10.874  0.1065  0.0525  0.0070
 5660W        W21469   9.231   9.561   0.695  0.0622  0.0825  0.1573
 5661W        W21470   2.167   2.835  14.723  0.4410 -0.1762 -0.0445
 5662W        W21471  11.798  16.184   1.325  0.3157 -0.0984  0.0116
 5663W        W21472   7.193   7.973   1.802  0.0308 -0.0453 -0.1122
 5664W        W21473   9.522   4.031  14.715  0.1289  0.1622  0.0318
 5665W        W21474   9.810  17.954   0.092  0.1763  0.0449  0.0810
 5666W        W21475  16.302   6.040   1.885 -0.1452 -0.0761 -0.1014
 5667W        W21476  17.562  10.276  11.456 -0.3277  0.3518 -0.5823
 5668W        W21477  12.574  12.522   0.370  0.4619 -0.0311  0.1528
 5669W        W21478   9.083  13.571  15.383 -0.2086  0.3950 -0.2469
 5670W        W21479   8.496   1.049   5.703  0.1792  0.0017  0.1269
 5671W        W21480   5.444  12.544  10.660 -0.0936  0.0446  0.1134
 5672W        W21481  12.120  17.999   0.984 -0.0877  0.1104 -0.0206
 5673W        W21482   3.253   2.072   0.257 -0.1669 -0.5732  0.3316
 5674W        W21483  18.188  17.590   2.679 -0.0599 -0.0650  0.0664
 5675W        W21484  15.171  17.447   5.003 -0.0016  0.1495  0.2209
 5676W        W21485   7.271   6.006   5.274 -0.1822  0.4079  0.1580
 5677W        W21486  15.328   9.809   2.995 -0.0987 -0.0022 -0.2034
 5678W        W21487  15.804   6.427   5.168  0.3321  0.0521  0.0041
 5679W        W21488  11.778   2.502  11.550  0.0960  0.2415  0.4080
 5680W        W21489   8.187   6.558   0.331 -0.3004 -0.1875  0.2189
 5681W        W21490  11.217   1.438  12.589 -0.1007  0.2062  0.1928
 5682W        W21491  10.064   1.349  11.874 -0.0139  0.0314  0.1939
 5683W        W21492   0.222  16.346   3.761  0.0848  0.1252 -0.0606
 5684W        W21493  13.785   0.647   1.475 -0.1824 -0.0756  0.3023
 5685W        W21494   1.627  16.557   2.599 -0.0537  0.1040  0.2735
 5686W        W21495  10.260  17.811  12.453  0.0476 -0.0149 -0.0478
 5687W        W21496  10.529  12.272  11.387 -0.2378 -0.2319  0.1737
 5688W        W21497  13.949   3.571  13.553 -0.0169  0.0929  0.0990
 5689W        W21498  12.304  10.009   2.340  0.0791 -0.0994  0.2194
 5690W        W21499   4.056  15.290  12.183  0.3934  0.0667  0.1060
 5691W        W21500   0.580   3.256   5.188  0.0412 -0.1226 -0.2302
 5692W        W21501  16.786   0.956  12.471  0.0245  0.4172  0.0603
 5693W        W21502  14.592   3.023   0.051 -0.1944  0.0978 -0.2494
 5694W        W21503   2.642  16.194   3.538  0.0389  0.2267  0.0796
 5695W        W21504   8.820  12.581  10.967  0.0359 -0.0284  0.1298
 5696W        W21505  18.259   5.163  10.951 -0.0349 -0.0555  0.2835
 5697W        W21506   0.183   8.313  10.808  0.0691  0.0441 -0.0794
 5698W        W21507   8.075  11.532   2.626 -0.0673  0.0035 -0.1241
 5699W        W21508   4.344   7.758   0.964  0.2339  0.0454  0.1610
 5700W        W21509   9.179   3.625  13.579  0.0030  0.0576  0.2480
 5701W        W21510   3.090   6.244  13.511 -0.3315  0.0993 -0.1597
 5702W        W21511   3.353   6.667  12.902 -0.1335 -0.3793 -0.1990
 5703W        W21512   2.736   3.976  11.148  0.0826 -0.4591  0.0094
 5704W        W21513  16.869   2.632   4.190  0.0140 -0.2340 -0.3479
 5705W        W21514  12.199   6.295   9.858  0.0224  0.1442 -0.0284
 5706W        W21515  16.149  17.599   1.094 -0.0764  0.1998  0.0246
 5707W        W21516   0.057   3.529   0.061  0.1550 -0.3482  0.0600
 5708W        W21517   3.600   3.699   2.606 -0.2263  0.0278  0.0440
 5709W        W21518  15.959   7.935   1.926 -0.3995  0.0247 -0.2891
 5710W        W21519  14.185   2.728   0.259 -0.3806 -0.4100  0.0514
 5711W        W21520  18.749  11.724  10.667 -0.1365 -0.0006  0.0291
 5712W        W21521  14.716   8.342   1.722  0.2233 -0.2229 -0.2756
 5713W        W21522   3.933  11.573  13.692 -0.1544  0.0973  0.0636
 5714W        W21523   0.561  14.042  13.066 -0.4545 -0.1439 -0.1913
 5715W        W21524  16.745   7.116   3.530  0.0217  0.2213  0.0229
 5716W        W21525  15.967  11.991  11.236  0.2571 -0.0307 -0.1540
 5717W        W21526   6.177  11.545  10.821 -0.0502 -0.4176  0.2644
 5718W        W21527  18.294   6.741   1.422  0.2593 -0.1578 -0.4150
 5719W        W21528  17.005  14.503   1.233 -0.1221 -0.1365  0.0823
 5720W        W21529   2.998   4.885   0.869 -0.1552  0.2368  0.3723
 5721W        W21530   7.965   7.048   1.246 -0.0199  0.1730  0.1811
 5722W        W21531   5.643   6.459   1.315  0.1110 -0.0288  0.2325
 5723W        W21532  16.226  18.409   0.172  0.1093  0.1454 -0.0573
 5724W        W21533   4.567  15.925   5.367 -0.2655 -0.0802 -0.0391
 5725W        W21534  10.239   1.710  14.783 -0.2648  0.4462  0.1510
 5726W        W21535   6.037   6.986  13.415 -0.0639  0.0347  0.1340
 5727W        W21536   2.495   1.198   2.058  0.0684 -0.1011 -0.2675
 5728W        W21537   4.616   5.189  14.854  0.2191 -0.2713  0.2313
 5729W        W21538   2.503   7.726   2.658 -0.0231 -0.5887  0.0685
 5730W        W21539  11.698  14.142   4.475 -0.0108  0.4141 -0.0386
 5731W        W21540   1.094   3.636  10.790  0.2888  0.2184  0.0970
 5732W        W21541  10.310  13.569   2.736 -0.0824 -0.0303 -0.0520
 5733W        W21542  16.600   0.369  15.298  0.1110  0.2948 -0.0308
 5734W        W21543  17.428  15.138  14.195  0.3147  0.0737 -0.3219
 5735W        W21544   4.908  13.394   9.445  0.0021 -0.1329  0.1624
 5736W        W21545   3.551  17.414   1.253  0.0257  0.0531 -0.0044
 5737W        W21546   5.669  14.333  12.992  0.2852 -0.4703  0.2104
 5738W        W21547   3.193   0.597  14.231 -0.0215  0.2448 -0.1571
 5739W        W21548  14.525   0.067  14.592  0.2966  0.1854  0.2461
 5740W        W21549  15.531  18.709   3.013  0.2822 -0.2213 -0.2236
 5741W        W21550   8.519   9.233  12.229 -0.0530 -0.0053 -0.3582
 5742W        W21551  14.980   1.340   3.704  0.1320  0.1922  0.0603
 5743W        W21552   6.612   2.622   3.714 -0.0577  0.1033 -0.3300
 5744W        W21553  17.665  17.290   1.758  0.4087 -0.4110  0.0668
 5745W        W21554   7.021   4.494  10.821  0.4749  0.0024  0.3218
 5746W        W21555  15.710  11.648  11.558  0.0333 -0.0829 -0.2508
 5747W        W21556   9.832  16.091   3.454 -0.2632 -0.1249 -0.1775
 5748W        W21557  10.978   9.600   5.505  0.0722  0.2242 -0.1603
 5749W        W21558   3.262   8.411  12.352  0.2272 -0.0487 -0.0072
 5750W        W21559  16.084   6.075  14.812 -0.1057  0.0120 -0.3165
 5751W        W21560   0.828   3.060   3.830 -0.1163  0.0583 -0.1217
 5752W        W21561  13.824  14.084  12.787  0.1659  0.1533 -0.3117
 5753W        W21562  15.705  15.279  13.709 -0.0343  0.0237 -0.1044
 5754W        W21563  14.904   0.535   0.452  0.4024  0.2106  0.1948
 5755W        W21564   8.189   7.232   1.695 -0.0823 -0.0655  0.0253
 5756W        W21565   4.179   1.587  10.648 -0.0997  0.0530 -0.1043
 5757W        W21566  15.749  17.861  12.165 -0.2377  0.0018  0.1753
 5758W        W21567  12.519  16.090   0.433  0.3120 -0.1904 -0.0232
 5759W        W21568   7.278  10.906   5.339  0.0147 -0.0388 -0.1156
 5760W        W21569   9.972   8.575  15.347  0.2484 -0.4097  0.1597
 5761W        W21570  14.233   2.039  15.244  0.1703 -0.2498 -0.2612
 5762W        W21571  10.002  15.605   0.594 -0.1060 -0.0633  0.0200
 5763W        W21572  10.207  18.174  10.912 -0.0300 -0.1128 -0.1720
 5764W        W21573  14.122  11.103  10.717 -0.2234 -0.3781  0.0712
 5765W        W21574   1.998   3.773   2.913 -0.1348  0.0635 -0.0029
 5766W        W21575   4.789   2.341   5.206 -0.2657 -0.1603 -0.2360
 5767W        W21576  14.751  18.530  14.957 -0.0072 -0.0772 -0.1786
 5768W        W21577  13.328  16.981  11.391 -0.0298  0.2141  0.2098
 5769W        W21578   6.620   2.980  12.703 -0.0458  0.1655 -0.1614
 5770W        W21579   2.548  10.743  15.400  0.1425 -0.0620 -0.0609
 5771W        W21580  10.472  13.631   0.517  0.1427 -0.4606  0.0015
 5772W        W21581  15.611   2.849  14.811 -0.2297 -0.1986  0.0795
 5773W        W21582   2.759   2.239   4.395  0.2197  0.0935  0.0783
 5774W        W21583   9.464  15.753  12.196  0.0559  0.2983 -0.0644
 5775W        W21584   7.934  12.397  10.625 -0.0240 -0.1668  0.0182
 5776W        W21585  16.271  13.517  10.366  0.1779  0.2091  0.0835
 5777W        W21586   0.810   3.193   4.774 -0.0352  0.0582  0.2968
 5778W        W21587  16.219   1.052  14.731 -0.1633 -0.1139  0.1903
 5779W        W21588   7.097  17.162  13.468  0.5618  0.0108 -0.1439
 5780W        W21589  14.511  16.163   3.829  0.2678  0.0529  0.0580
 5781W        W21590  18.024  18.462  10.928 -0.0122 -0.2892  0.0743
 5782W        W21591   6.221  11.412   5.611 -0.0566 -0.0706 -0.0691
 5783W        W21592   3.116   4.483   3.213  0.2071  0.2105 -0.3081
 5784W        W21593  10.900   3.909   4.165  0.1078  0.1454 -0.4643
 5785W        W21594   4.603  16.541   3.124  0.2787 -0.2845  0.1802
 5786W        W21595  15.716  14.488  11.947  0.0384  0.0595 -0.2578
 5787W        W21596   8.907  18.751  12.156 -0.1091 -0.0807  0.2061
 5788W        W21597  11.027  13.177  12.541  0.0123  0.1063 -0.1302
 5789W        W21598  14.406  12.795  13.561 -0.3991  0.1869  0.1794
 5790W        W21599   7.073  15.549  10.522 -0.0989  0.0980  0.1328
 5791W        W21600  15.584  17.532   4.020 -0.0028 -0.0356  0.1444
 5792W        W21601   2.672  10.154  13.633 -0.3506 -0.0250  0.2706
 5793W        W21602   4.535  13.740  14.917  0.0502 -0.1643 -0.2834
 5794W        W21603   3.139  16.919   5.019  0.0067  0.3485 -0.1433
 5795W        W21604  11.396  17.290   0.843  0.0851 -0.3018  0.2292
 5796W        W21605  14.170  18.201  15.252 -0.1579  0.0734 -0.1457
 5797W        W21606   4.274   6.447   4.876  0.1619  0.0710  0.0460
 5798W        W21607   3.065   6.917  13.878  0.1758  0.0672  0.2505
 5799W        W21608  10.719   4.174  14.635  0.3761  0.2634 -0.1665
 5800W        W21609   9.746  14.310  14.388  0.0486  0.0573 -0.0895
 5801W        W21610   3.073   7.711   1.268  0.1570  0.0712 -0.1122
 5802W        W21611   4.545  15.950  12.575 -0.0708 -0.0331 -0.1055
 5803W        W21612   9.384   9.073  14.704 -0.0742  0.1712  0.0355
 5804W        W21613   4.802  17.113  10.689 -0.0313  0.0463  0.0759
 5805W        W21614  15.223  12.603  15.168 -0.1421  0.2212 -0.0370
 5806W        W21615  10.185   4.659   0.872  0.2024  0.0318 -0.2094
 5807W        W21616   4.031   5.024  10.785 -0.1031 -0.3382 -0.2509
 5808W        W21617   3.678  10.264   1.163 -0.1656 -0.1848  0.0049
 5809W        W21618  11.700  10.460  15.272 -0.0946  0.2103  0.3127
 5810W        W21619  17.506  18.092  14.223 -0.4816 -0.2673  0.1831
 5811W        W21620  10.775   9.369  11.705 -0.1123  0.2383 -0.1099
 5812W        W21621   6.351   2.030   2.435 -0.2020 -0.0808  0.3135
 5813W        W21622  17.431   6.316  10.192  0.1984 -0.1454 -0.2161
 5814W        W21623   4.610   8.214   3.773 -0.1114 -0.0501 -0.0107
 5815W        W21624   3.540   4.470   2.963 -0.0929 -0.1182  0.0286
 5816W        W21625   4.367   4.639   3.375 -0.3278  0.1823 -0.1216
 5817W        W21626   2.633  14.621  11.782  0.3281  0.0643  0.0550
 5818W        W21627  18.073   4.226   1.200 -0.0458  0.4101 -0.1697
 5819W        W21628   4.432   8.282   0.947 -0.1230  0.1099  0.2378
 5820W        W21629   0.594  15.474   2.299  0.1022  0.0770 -0.0442
 5821W        W21630   9.525  11.863   3.597 -0.3213 -0.2540 -0.1622
 5822W        W21631   4.719   3.491   4.669  0.1016  0.2009  0.3000
 5823W        W21632  10.649  14.597   4.276  0.1520  0.0337  0.2134
 5824W        W21633   7.761  14.868  11.971  0.0861 -0.2200  0.3503
 5825W        W21634  12.635   6.486  14.959  0.1672 -0.0629 -0.0530
 5826W        W21635   2.030  17.442  13.580 -0.0413 -0.1231  0.3052
 5827W        W21636   0.131   8.649  11.145  0.4523  0.1134 -0.1423
 5828W        W21637   7.855   7.204  14.195 -0.0356 -0.1396  0.0354
 5829W        W21638  12.483   3.919   3.768  0.1067 -0.0586  0.0319
 5830W        W21639  14.173  15.138   5.391 -0.4053 -0.2140  0.0125
 5831W        W21640  17.862   1.098  15.533 -0.1892  0.0464 -0.1355
 5832W        W21641  18.131   4.856   0.565  0.3423  0.0909  0.1201
 5833W        W21642  13.871  11.344  11.060  0.1762  0.0072 -0.1402
 5834W        W21643  18.772  10.802  13.147  0.0360 -0.1441 -0.1664
 5835W        W21644   0.380  12.406   1.841 -0.0906 -0.1457 -0.1093
 5836W        W21645   6.391  13.869  12.664  0.1084 -0.0146 -0.1115
 5837W        W21646   9.235   9.199   3.199 -0.0613  0.2871 -0.2733
 5838W        W21647  17.080   0.760   4.801 -0.1308  0.0518 -0.3676
 5839W        W21648  12.299  13.977   2.725 -0.3735 -0.0928  0.0671
 5840W        W21649  18.301  14.650   4.653 -0.0648 -0.2181 -0.0890
 5841W        W21650  15.822  10.151  12.108 -0.2078 -0.0067  0.1762
 5842W        W21651   6.671   1.997  10.832 -0.0395  0.3205 -0.0448
 5843W        W21652   5.710   3.835  14.402  0.0386 -0.4699 -0.0295
 5844W        W21653  11.456   9.427   3.665  0.0785 -0.0688  0.1868
 5845W        W21654   5.292  18.094   3.100  0.2213 -0.2017 -0.2080
 5846W        W21655   8.569   3.873   1.207 -0.1258 -0.3346  0.1393
 5847W        W21656   9.490  12.678   2.246  0.1828 -0.2412 -0.0560
 5848W        W21657  18.773  17.071   2.002 -0.0422  0.0539  0.0661
 5849W        W21658  11.059   9.330  12.578  0.2001  0.2337  0.1256
 5850W        W21659   6.628   3.173  11.165  0.2795  0.5054  0.1095
 5851W        W21660  11.550   2.464  14.356 -0.1635 -0.2026  0.0799
 5852W        W21661   0.559  12.826  10.118 -0.0779 -0.0408  0.2161
 5853W        W21662   3.172  12.668  15.234  0.1003  0.2865 -0.1773
 5854W        W21663  12.254  16.263   6.118  0.2557 -0.4194 -0.0628
 5855W        W21664  16.940  14.926  15.121 -0.1291 -0.0409  0.0182
 5856W        W21665   4.043  12.841  14.610  0.2144  0.1601  0.1102
 5857W        W21666   5.051  14.267  11.228 -0.0636  0.2817  0.0769
 5858W        W21667   2.095   7.828   4.808  0.2767 -0.2506  0.4051
 5859W        W21668   9.963   3.422  13.820  0.3241  0.0750  0.3238
 5860W        W21669   0.303   3.816  11.537 -0.3736 -0.0025 -0.0534
 5861W        W21670   6.805   4.148   0.348  0.0106 -0.0679  0.0863
 5862W        W21671  15.063  13.969   4.419  0.0284  0.1218  0.1454
 5863W        W21672   6.373   2.154   3.866  0.0026 -0.0794  0.1411
 5864W        W21673  17.649   9.627   3.920  0.1898 -0.3895  0.0094
 5865W        W21674   4.377  18.468  11.836 -0.2302 -0.0171 -0.0442
 5866W        W21675   8.066  15.318  14.531  0.0411  0.1267 -0.1388
 5867W        W21676  12.631  10.630  15.240  0.3001  0.1695  0.0701
 5868W        W21677  12.414   2.427  11.940  0.0743 -0.1385 -0.2231
 5869W        W21678   3.388   3.752   3.858 -0.0655  0.3718 -0.1647
 5870W        W21679   7.838   2.646  10.893  0.0427 -0.0219 -0.1856
 5871W        W21680   1.421  15.344   5.000  0.3485  0.0775 -0.1094
 5872W        W21681  15.847   1.988   4.869 -0.2628 -0.1450  0.0077
 5873W        W21682  12.356   8.519  12.933  0.0269 -0.0140  0.0517
 5874W        W21683   6.842   6.102  12.481  0.1251  0.0618 -0.2780
 5875W        W21684  14.714   7.118  14.409 -0.3382  0.0738  0.0937
 5876W        W21685  14.508  15.632   3.904 -0.0980 -0.0395  0.1683
 5877W        W21686   7.987  16.168   1.127  0.1259 -0.2660  0.0495
 5878W        W21687   0.698   8.639  11.010  0.1288  0.0732  0.1176
 5879W        W21688   0.489   2.772  12.385  0.0686 -0.0718 -0.3582
 5880W        W21689  12.069  17.194  12.495 -0.0422 -0.1295 -0.0827
 5881W        W21690  18.239  13.459  10.301  0.3158 -0.0791  0.0953
 5882W        W21691   4.441   3.840   0.761  0.1306  0.1105  0.0710
 5883W        W21692  14.334  12.158   4.675 -0.0013  0.2181  0.0390
 5884W        W21693   9.899  17.128   2.659  0.1699 -0.1618  0.0296
 5885W        W21694   9.922  15.874   1.157  0.0171  0.2442  0.0540
 5886W        W21695   0.533   5.563   0.575  0.0508  0.0083 -0.1685
 5887W        W21696  17.344   9.486   3.445 -0.1286 -0.0118 -0.0198
 5888W        W21697  15.184   7.920  14.369 -0.0353  0.3732 -0.3317
 5889W        W21698   3.956   6.789   2.242  0.2343  0.1515 -0.3818
 5890W        W21699   4.606   7.033   1.348 -0.1415  0.2553 -0.2963
 5891W        W21700  17.631   6.458   4.121  0.0356 -0.1250 -0.0646
 5892W        W21701  10.017   3.870  12.091  0.0365 -0.2454 -0.3044
 5893W        W21702   0.247   1.709  12.857 -0.4635  0.0987  0.1594
 5894W        W21703  10.545  17.672   4.213 -0.2485 -0.1127  0.0364
 5895W        W21704  16.474   6.554  14.363  0.1757 -0.0777 -0.1997
 5896W        W21705   1.636   1.604   3.360 -0.1620  0.1004  0.2068
 5897W        W21706  15.561   7.243  13.007  0.3334  0.0401  0.2671
 5898W        W21707  13.854   5.230   2.933  0.1795  0.0766 -0.2037
 5899W        W21708   2.744   4.954  11.383  0.0253  0.1553 -0.0998
 5900W        W21709  16.710  13.915  13.527  0.0045  0.0856  0.0087
 5901W        W21710   7.230   8.936   4.093 -0.1520 -0.3417 -0.0423
 5902W        W21711  11.988   5.942  12.924 -0.1349 -0.0437  0.2038
 5903W        W21712   9.680   0.500   4.518 -0.1000  0.1730 -0.2055
 5904W        W21713  10.039  13.077   4.488  0.0993 -0.4070  0.2280
 5905W        W21714  10.853  11.196   2.318 -0.1224 -0.0638  0.0389
 5906W        W21715   8.906  14.190  12.127 -0.3481  0.1084 -0.0926
 5907W        W21716   3.119   8.154   3.314 -0.3676 -0.1953  0.2148
 5908W        W21717   8.424  12.615   2.235  0.1217 -0.3923  0.0047
 5909W        W21718   5.276  12.113   0.710 -0.4265  0.1797 -0.0436
 5910W        W21719  10.154   5.567   0.505  0.0460 -0.0886 -0.1261
 5911W        W21720   9.792   2.912   2.564 -0.0740 -0.1771 -0.3193
 5912W        W21721  11.247  15.496  12.669 -0.0181  0.6086  0.2479
 5913W        W21722  18.232   7.470  14.276 -0.0907 -0.1039  0.0253
 5914W        W21723   7.665  14.112  10.921 -0.1775 -0.0329  0.1831
 5915W        W21724  18.263   2.584  11.471  0.0946 -0.2520  0.0969
 5916W        W21725  17.130  11.306   4.025  0.2218 -0.2155  0.0613
 5917W        W21726  12.747  18.777   3.539  0.0706 -0.1485 -0.2418
 5918W        W21727  18.200   3.763  12.463 -0.0110 -0.1076 -0.1899
 5919W        W21728   5.152  14.204  14.597  0.0666  0.1208  0.1498
 5920W        W21729  12.865   2.857   3.114  0.0938  0.1742  0.4437
 5921W        W21730  14.445  14.090   3.205 -0.4890  0.0241 -0.1500
 5922W        W21731   3.716  18.449   3.127 -0.1841  0.4969 -0.1386
 5923W        W21732  17.086  12.180   0.189  0.1983 -0.0676  0.3033
 5924W        W21733  10.794  11.564  13.944 -0.0108 -0.2269 -0.0041
 5925W        W21734  11.667   5.603  12.664 -0.3158 -0.0260 -0.0472
 5926W        W21735   2.358   0.794  14.497  0.1066  0.0572  0.0232
 5927W        W21736  17.370  14.829   4.136 -0.1447 -0.2022 -0.1912
 5928W        W21737   1.240   8.533  15.298 -0.0738  0.2164  0.1694
 5929W        W21738  14.994   9.528   0.226  0.2790 -0.0370 -0.0662
 5930W        W21739   2.793   9.577   0.316 -0.2896 -0.2321  0.3734
 5931W        W21740   8.425   8.362  13.851 -0.0178  0.0330  0.3223
 5932W        W21741   1.686   7.141  15.352 -0.0512  0.2597  0.1932
 5933W        W21742  12.026  14.695   0.859 -0.0965 -0.0343 -0.2942
 5934W        W21743   3.627  10.783  11.497 -0.1802 -0.1970 -0.2935
 5935W        W21744  14.028  16.567  12.965 -0.0907  0.1359  0.0141
 5936W        W21745   3.413  16.980  14.555 -0.1386 -0.0579  0.3505
 5937W        W21746   5.363  14.188  15.378 -0.2937  0.1297 -0.0453
 5938W        W21747   3.277  13.128  15.261 -0.3915  0.1611  0.1182
 5939W        W21748   6.463  10.433  10.858 -0.0883  0.0069  0.0971
 5940W        W21749   7.538   0.433  15.131  0.1983  0.0422 -0.0546
 5941W        W21750   8.627   3.182   0.558 -0.1947 -0.1647 -0.1432
 5942W        W21751  10.506  11.467   2.036  0.1103 -0.0100  0.5093
 5943W        W21752   8.059  12.935  14.750  0.1809 -0.1866  0.1253
 5944W        W21753  13.678   5.194   1.073  0.1149 -0.1318 -0.0001
 5945W        W21754  12.839   3.276   0.178 -0.2279 -0.0994  0.0306
 5946W        W21755   6.795   5.607  11.946 -0.0443 -0.0961 -0.0779
 5947W        W21756   8.606  11.146  11.908 -0.3710 -0.1681  0.2245
 5948W        W21757   3.880   4.748  13.559 -0.1750 -0.0331  0.0557
 5949W        W21758  12.078  18.376   2.855  0.0222  0.0660  0.0298
 5950W        W21759  10.137   2.677  11.656 -0.1216  0.0680 -0.2092
 5951W        W21760   6.412  13.802  13.747  0.1057 -0.2905 -0.1801
 5952W        W21761  14.277  11.705   3.584  0.0703 -0.1263 -0.1025
 5953W        W21762   6.582   6.481   1.168 -0.0967 -0.0991  0.0902
 5954W        W21763   4.661  14.999  11.402  0.1870 -0.1674 -0.1589
 5955W        W21764   1.238  16.829   1.260 -0.2329  0.0155  0.0753
 5956W        W21765  11.957  17.030  13.452 -0.1299  0.0018  0.2035
 5957W        W21766   6.561   7.391  11.427 -0.1098  0.3002 -0.1855
 5958W        W21767  15.790   5.726   4.289  0.2894 -0.1699  0.3214
 5959W        W21768   1.907   4.278  13.346 -0.2863  0.0100 -0.0625
 5960W        W21769  13.430   3.548   5.678 -0.0458 -0.0639  0.2022
 5961W        W21770   7.129   2.519   1.442  0.0186  0.0565  0.1595
 5962W        W21771   1.774   6.900  12.528  0.1907 -0.0524  0.1379
 5963W        W21772  16.000   4.794  15.448 -0.1391  0.1428  0.3419
 5964W        W21773   5.453   7.826   4.141 -0.1496 -0.2143  0.2302
 5965W        W21774  15.108  12.045  13.701  0.0871 -0.1708  0.1061
 5966W        W21775   5.624   6.682  13.723  0.0638  0.1924 -0.0085
 5967W        W21776  11.106   3.055  10.117 -0.0892 -0.1821  0.0455
 5968W        W21777  17.448  14.505  13.315 -0.3540 -0.3410 -0.2292
 5969W        W21778  11.632  12.542   3.853 -0.0026  0.1121  0.0062
 5970W        W21779  16.938   9.690   3.659 -0.2983 -0.0869 -0.2949
 5971W        W21780   7.226   3.030   2.622  0.1353  0.2288  0.2093
 5972W        W21781   3.596   1.862   4.108  0.0816  0.1464 -0.3393
 5973W        W21782   5.242  17.088  10.429 -0.2794  0.0326 -0.1295
 5974W        W21783   9.462  11.514   3.240 -0.0215  0.3407 -0.2782
 5975W        W21784   0.157   9.562  15.147  0.2389 -0.4552  0.0681
 5976W        W21785  14.732  12.093  13.997 -0.1960  0.0891  0.2969
 5977W        W21786   2.164  17.304   4.069  0.3769  0.4082 -0.2115
 5978W        W21787   6.379   0.119   1.033 -0.2418  0.1015  0.1488
 5979W        W21788  13.601  10.380  11.401 -0.1351  0.1569 -0.1275
 5980W        W21789   8.779   7.011   3.859  0.4477  0.1123  0.1854
 5981W        W21790  15.898  15.465  15.475  0.1843  0.2777  0.0610
 5982W        W21791  15.097  17.137  14.248  0.1799 -0.1502 -0.0979
 5983W        W21792  13.639   8.943   4.210  0.1580  0.3151 -0.0264
 5984W        W21793   1.258  10.279  11.988 -0.0377  0.0633 -0.2604
 5985W        W21794  14.926   5.268   0.918  0.0851  0.1049 -0.0942
 5986W        W21795  13.175   7.331   4.359  0.0881  0.1092 -0.1397
 5987W        W21796  11.491   7.331   1.653  0.2605  0.1916  0.0708
 5988W        W21797  14.371   4.546   0.030  0.0129 -0.1943  0.1255
 5989W        W21798   0.845   9.993  12.237 -0.0428  0.1391 -0.2146
 5990W        W21799   2.628   1.523  10.593  0.1001 -0.1219 -0.1367
 5991W        W21800  10.712  18.150   3.983  0.3507 -0.0360 -0.0713
 5992W        W21801   1.575  12.598  11.171  0.1979 -0.1333 -0.2390
 5993W        W21802   0.372   0.137  12.544  0.0022  0.0559 -0.2168
 5994W        W21803   5.745   6.376  13.186 -0.0980  0.0673 -0.0467
 5995W        W21804  17.964   2.411   1.321  0.1139  0.0530  0.3695
 5996W        W21805  14.564   2.303  11.814  0.1246  0.3840  0.0166
 5997W        W21806  16.659   0.228   5.401  0.1765 -0.0822  0.0990
 5998W        W21807   2.297   3.006   2.667  0.1566  0.4148  0.0777
 5999W        W21808  18.145   2.634   5.475 -0.2143 -0.2397  0.0674
 6000W        W21809   9.908   0.080   4.415 -0.2408  0.1591 -0.0023
 6001W        W21810   5.761   4.133   3.726 -0.0111 -0.0907  0.1897
 6002W        W21811  10.864   4.742   1.032 -0.1607  0.1316  0.2052
 6003W        W21812  12.117   1.395   4.175 -0.5092  0.4623  0.1443
 6004W        W21813  17.893   0.855   2.286  0.0642 -0.1556  0.1911
 6005W        W21814   1.787  17.779  14.962 -0.1721 -0.1272 -0.3363
 6006W        W21815  12.575   5.111  14.543 -0.0176  0.0810 -0.2638
 6007W        W21816   3.845   9.091   3.579  0.2270  0.0738 -0.3079
 6008W        W21817  12.948   5.738  13.621 -0.1277 -0.1254 -0.1698
 6009W        W21818   4.279   9.064   3.331 -0.1202 -0.1717 -0.3430
 6010W        W21819   8.885   0.335  10.756 -0.2930  0.0910 -0.0910
 6011W        W21820  18.311   1.409  13.542 -0.0789  0.0969  0.0648
 6012W        W21821  11.795  16.367   2.403 -0.0424 -0.1575  0.2617
 6013W        W21822   8.539  10.310   9.776  0.1035  0.0216  0.1179
 6014W        W21823  10.987  15.051   4.919 -0.2895 -0.0973 -0.0595
 6015W        W21824   3.470  17.541   0.393  0.0854 -0.2271  0.1731
 6016W        W21825   3.181  11.137  11.483  0.1158  0.3849 -0.2295
 6017W        W21826  14.466   1.886  14.835 -0.2610 -0.0167  0.1525
 6018W        W21827   8.019   0.692  12.309 -0.3082 -0.1120  0.2770
 6019W        W21828   0.833  12.943  12.853 -0.0553  0.0898 -0.0106
 6020W        W21829  14.820   5.654   2.828 -0.1519  0.2464  0.2018
 6021W        W21830  15.487   3.977  10.523 -0.1305 -0.1827  0.2130
 6022W        W21831  14.487  18.054  12.074  0.0613 -0.3673  0.2039
 6023W        W21832  12.274  10.095  12.793 -0.2495  0.0576 -0.1399
 6024W        W21833   8.056   3.992   5.074 -0.1506 -0.1123 -0.2284
 6025W        W21834  16.803   7.532  11.598  0.1739  0.0826 -0.0937
 6026W        W21835   4.413   1.025  11.204 -0.1467  0.2185 -0.3688
 6027W        W21836   5.439   8.445   3.450  0.2273 -0.2059 -0.1241
 6028W        W21837   8.820   5.005  12.566 -0.0913  0.0979  0.0449
 6029W        W21838   3.787  15.881  14.662  0.1175  0.1462 -0.4382
 6030W        W21839  10.057   9.762   2.907 -0.0221  0.0268  0.0985
 6031W        W21840   7.650   3.519   1.228 -0.1530  0.0260  0.2308
 6032W        W21841   1.295  13.213  13.794  0.0865 -0.2381  0.1753
 6033W        W21842   4.749   0.576   1.354 -0.0620 -0.0880  0.0386
 6034W        W21843   6.601   2.222   1.402  0.2177  0.0489 -0.0879
 6035W        W21844  11.423   1.775   3.669 -0.0467  0.1204 -0.0398
 6036W        W21845  10.333  14.867   2.881 -0.4975  0.2885  0.0408
 6037W        W21846   3.903  16.789   9.817 -0.1366 -0.0961 -0.0691
 6038W        W21847   8.061   3.100  10.866 -0.0171  0.1075  0.1003
 6039W        W21848  14.757   4.449   4.503  0.1536  0.3991 -0.1560
 6040W        W21849   2.953  12.182  15.085 -0.2928 -0.0408 -0.0096
 6041W        W21850  12.954  15.749  13.216  0.2289 -0.0510 -0.1232
 6042W        W21851   3.753  12.414  13.845 -0.4527 -0.0659 -0.0481
 6043W        W21852   4.858   3.376   5.190  0.1766 -0.0440  0.4160
 6044W        W21853   0.600  10.841   4.332  0.1016  0.1771  0.0424
 6045W        W21854  15.470   3.238  11.675 -0.0899 -0.0717  0.1563
 6046W        W21855   0.734   7.872  12.890 -0.0161  0.1474 -0.3330
 6047W        W21856  17.827   6.533  11.094  0.2073 -0.0054 -0.2281
 6048W        W21857  10.224  15.958  11.437 -0.2479 -0.2282  0.4513
 6049W        W21858  14.151   8.698  11.252  0.0525  0.0692  0.0084
 6050W        W21859  12.565  11.228   1.301  0.1703  0.0803 -0.2396
 6051W        W21860   1.756  13.959   5.009 -0.1263  0.3703 -0.2278
 6052W        W21861  12.643   7.330   3.544  0.1464 -0.2182 -0.0979
 6053W        W21862  10.514  14.042   1.373 -0.2299 -0.1258  0.0112
 6054W        W21863  10.872   3.281  15.095  0.1937 -0.1165  0.1518
 6055W        W21864   0.158   2.059   2.486 -0.2285 -0.2705 -0.1018
 6056W        W21865   7.502   2.225  14.657  0.0318 -0.3646  0.0122
 6057W        W21866   5.489   5.032  14.979 -0.1892 -0.0004 -0.1254
 6058W        W21867  17.408  11.933   5.174  0.2321  0.3310 -0.0227
 6059W        W21868   2.645   9.861   1.577  0.1129 -0.2222  0.0846
 6060W        W21869   8.955   6.339   2.153 -0.0210 -0.3152 -0.2045
 6061W        W21870  18.408   2.280  13.948 -0.1285  0.0475  0.0648
 6062W        W21871   3.569  18.208  12.085 -0.1393  0.1618 -0.3565
 6063W        W21872  18.581   2.487  15.274 -0.0738  0.0633 -0.0156
 6064W        W21873   0.701  16.099  12.105 -0.0833  0.2446  0.0240
 6065W        W21874   5.340  13.633   3.667 -0.2300  0.0902 -0.2644
 6066W        W21875  11.888  17.103  14.504 -0.0273  0.0440  0.0820
 6067W        W21876   7.974  16.008  15.267 -0.4166  0.0491  0.1800
 6068W        W21877  12.926  14.209   2.944  0.0611  0.0213 -0.0726
 6069W        W21878   6.531   3.617  12.681  0.1054 -0.4741 -0.1976
 6070W        W21879   0.337   2.514   2.609  0.1667  0.1026  0.3660
 6071W        W21880   6.113   2.795  14.391  0.0108 -0.2268 -0.0205
 6072W        W21881   4.340  17.919  11.388  0.0251 -0.0759  0.3908
 6073W        W21882  13.683  15.712   5.118 -0.1347  0.0088 -0.0137
 6074W        W21883  16.737  16.467  13.128 -0.2989 -0.0426 -0.2792
 6075W        W21884   8.469  17.738   4.343  0.0314  0.2037  0.3622
 6076W        W21885  15.161  14.783  11.198 -0.2298 -0.1445 -0.1238
 6077W        W21886  18.635   6.383   3.930  0.0976 -0.2308 -0.1198
 6078W        W21887   0.923  17.196  14.227 -0.1356 -0.0002  0.0769
 6079W        W21888   3.151   7.898   1.752  0.2698  0.0603  0.1197
 6080W        W21889  15.718   6.859  11.166 -0.2181 -0.2230  0.0134
 6081W        W21890  18.034  10.854  13.679 -0.3151  0.0542 -0.0172
 6082W        W21891   7.870  17.121   3.609 -0.1309  0.2451  0.1119
 6083W        W21892   6.762  11.521   0.860 -0.1778  0.1238 -0.3769
 6084W        W21893  11.637   9.427  14.404  0.1070 -0.1696 -0.2130
 6085W        W21894  10.348   5.202   4.123  0.1785  0.1057  0.0075
 6086W        W21895  10.952   1.040  14.221  0.1091 -0.0466 -0.2517
 6087W        W21896   3.362  16.378   3.837 -0.1346  0.0788  0.0866
 6088W        W21897   6.416  10.596  12.076  0.3120  0.1965  0.1338
 6089W        W21898  10.896  13.677   5.575 -0.1251 -0.0334 -0.0990
 6090W        W21899   5.213   2.222  13.885  0.2000  0.2212 -0.0099
 6091W        W21900  16.513  13.357  11.942  0.0495  0.0311 -0.0831
 6092W        W21901  14.155   5.756   2.135  0.3137 -0.3504 -0.1805
 6093W        W21902   3.581  13.649   4.557  0.0021 -0.0211 -0.1950
 6094W        W21903   9.586   3.416  14.790  0.0859 -0.0539 -0.0618
 6095W        W21904  17.469   2.109   3.978  0.1383  0.2196 -0.0702
 6096W        W21905   5.515   4.764  14.061 -0.1607  0.0921 -0.0530
 6097W        W21906   5.349  15.425   5.084 -0.2598  0.3255 -0.0624
 6098W        W21907   0.186  10.036  14.862  0.2104  0.0473  0.2875
 6099W        W21908   8.654  16.830  13.878  0.0554  0.2531 -0.0117
 6100W        W21909   2.459   4.110  13.431  0.3668  0.0710 -0.2365
 6101W        W21910  16.451   4.562  14.988  0.3644 -0.0180  0.3099
 6102W        W21911   8.203   1.867  10.338  0.2722  0.4508  0.0192
 6103W        W21912   8.717   5.090   0.259  0.0451 -0.4787 -0.1891
 6104W        W21913  17.617   8.896  10.341 -0.1126 -0.1912  0.1948
 6105W        W21914   1.311   3.129  13.523  0.0662 -0.2488 -0.2963
 6106W        W21915  14.064   1.076   4.214  0.1723  0.1308  0.1829
 6107W        W21916   7.267   3.712   0.062  0.0856 -0.3523  0.1882
 6108W        W21917  11.290   9.943  11.946 -0.0475 -0.2450 -0.2848
 6109W        W21918   4.942  18.396   2.291 -0.2408 -0.0740  0.1920
 6110W        W21919  17.127   3.329  14.099 -0.1510  0.1761 -0.0098
 6111W        W21920   0.894   8.148   0.740  0.1987 -0.1904 -0.0452
 6112W        W21921   1.728  16.633  15.023  0.1640 -0.2654 -0.1575
 6113W        W21922   1.244   6.476  15.403  0.2261  0.2677  0.2135
 6114W        W21923  13.204  11.846   5.313  0.2547  0.1473  0.1660
 6115W        W21924   7.772  13.666   3.608  0.0173 -0.0455 -0.0245
 6116W        W21925  12.595   2.386   1.617  0.3139 -0.1069 -0.2955
 6117W        W21926  12.955   9.412  10.477  0.1638 -0.0441  0.0334
 6118W        W21927   9.272  13.190   5.013  0.0888 -0.1220 -0.2489
 6119W        W21928   6.270   2.630  15.298 -0.3710  0.0628  0.1437
 6120W        W21929  12.311   6.728  12.769  0.0565  0.2638  0.3442
 6121W        W21930   6.323   9.336   0.887  0.1342 -0.1929  0.1308
 6122W        W21931   5.102  10.120   1.482  0.1415 -0.1450 -0.0887
 6123W        W21932   2.406  10.714   0.528 -0.3512 -0.0073  0.4831
 6124W        W21933  15.541   2.982   2.148 -0.1179  0.4204  0.2148
 6125W        W21934   8.348  16.909   3.786 -0.3918 -0.1604  0.1326
 6126W        W21935  15.554  13.211  11.962  0.0480  0.1637  0.1082
 6127W        W21936   2.964  13.884  11.362  0.0397 -0.0504  0.3478
 6128W        W21937   2.103  17.626  11.408 -0.0747  0.1806 -0.2230
 6129W        W21938   6.870   5.394  10.296 -0.3788 -0.1774  0.0693
 6130W        W21939  11.122  11.095   0.030  0.4407  0.2305  0.1448
 6131W        W21940  17.170   2.820  13.882 -0.0137 -0.0017 -0.1360
 6132W        W21941   2.592  14.938  12.257 -0.2246  0.0789 -0.0311
 6133W        W21942   0.544  13.690  11.252 -0.0544 -0.1615 -0.0554
 6134W        W21943  11.048  14.819  15.294 -0.2877 -0.1040  0.1638
 6135W        W21944   9.859   4.807  11.497 -0.2795  0.0112  0.0034
 6136W        W21945  10.454   7.145  11.534 -0.2980 -0.2520 -0.1813
 6137W        W21946  14.685   7.193  11.810  0.0130  0.0349 -0.0075
 6138W        W21947  10.072  15.496  11.777 -0.1505 -0.0131  0.1225
 6139W        W21948   2.241  17.612   2.735 -0.0324 -0.1172  0.3943
 6140W        W21949   6.397  10.672   3.972 -0.0475 -0.2694 -0.1624
 6141W        W21950   7.322   8.145   4.740  0.1792 -0.2797  0.4027
 6142W        W21951   7.243   9.601  11.095 -0.2939 -0.1974  0.0630
 6143W        W21952  13.382   1.720   3.872 -0.5268  0.3213  0.0629
 6144W        W21953  17.150  15.001  14.707 -0.0192 -0.0999  0.0854
 6145W        W21954   4.777   3.271  13.948  0.0324 -0.0650  0.1331
 6146W        W21955   0.736   1.348  13.982  0.0980 -0.1977  0.1493
 6147W        W21956  17.780   0.716   0.379 -0.1704  0.1704 -0.3881
 6148W        W21957  11.036   5.306   2.793 -0.1815 -0.3003 -0.0841
 6149W        W21958   8.696   3.662   1.963 -0.0244  0.2698 -0.0953
 6150W        W21959  13.709  15.148  15.318  0.2977 -0.0663  0.0727
 6151W        W21960   5.836  12.749  14.307 -0.2317  0.0322  0.0700
 6152W        W21961  17.227   4.164   3.764  0.2484 -0.1150  0.0337
 6153W        W21962  12.913  15.046  12.077  0.5046  0.0251  0.0233
 6154W        W21963   5.805   2.070  13.974 -0.0205 -0.3285 -0.0401
 6155W        W21964   3.283  10.144   4.529  0.0608 -0.1120  0.5037
 6156W        W21965   4.168   3.996   0.156 -0.0460  0.0716  0.2801
 6157W        W21966   6.419   0.692  14.686  0.1031 -0.1270 -0.0469
 6158W        W21967  10.201  12.055   3.376  0.0935 -0.2284  0.1074
 6159W        W21968   2.108   6.267  12.794 -0.1891 -0.1655  0.1505
 6160W        W21969   1.888   6.110  13.558 -0.0807  0.0974  0.1901
 6161W        W21970  12.438   4.244  11.411  0.0023 -0.3616 -0.5662
 6162W        W21971   0.114   2.106   1.826  0.1047  0.1427  0.0943
 6163W        W21972   2.147   5.993   3.181 -0.0980  0.3377 -0.0824
 6164W        W21973   3.018  15.655   1.245  0.1281  0.2322  0.2955
 6165W        W21974  17.695  11.611   4.583  0.1654  0.0060  0.1356
 6166W        W21975  13.955   8.670   2.767 -0.1602  0.3619 -0.0721
 6167W        W21976  18.330   0.601  11.292  0.1192  0.0604 -0.1028
 6168W        W21977  16.056  14.483   2.420 -0.0715  0.2174  0.1770
 6169W        W21978   7.384  11.677   1.493 -0.0749  0.0290  0.0464
 6170W        W21979   2.631   0.848  11.944 -0.1462 -0.2472  0.1417
 6171W        W21980   8.160   2.322  14.762 -0.1565  0.0029  0.1087
 6172W        W21981  16.525   6.386  13.482 -0.0794  0.0826 -0.1391
 6173W        W21982   6.033   8.411  12.260  0.1275 -0.2024  0.0272
 6174W        W21983   6.428  11.703  14.459  0.0814  0.2951 -0.2276
 6175W        W21984   8.649  18.152   1.725 -0.1816 -0.3681  0.0910
 6176W        W21985   6.375   2.939   4.962 -0.0159  0.1874 -0.1655
 6177W        W21986   1.677   6.653  15.544 -0.0955  0.2119 -0.0964
 6178W        W21987   0.542  11.921  13.844 -0.1019  0.2268 -0.0983
 6179W        W21988  18.609  13.452  14.353 -0.3082  0.0985  0.3911
 6180W        W21989   2.986   4.827  12.680  0.1375  0.1183  0.1077
 6181W        W21990  12.932   7.589   1.930 -0.0353  0.1189 -0.4583
 6182W        W21991   8.210   2.219  12.523 -0.0044  0.0019 -0.0951
 6183W        W21992  12.530  15.320  13.989  0.0121  0.1119  0.1711
 6184W        W21993   3.006   0.947   1.770  0.0947 -0.2343 -0.0261
 6185W        W21994  10.839   7.722   1.755 -0.2861 -0.2173  0.0693
 6186W        W21995  13.305  17.804  12.670  0.0349  0.2198 -0.0590
 6187W        W21996  16.355   3.400  14.170 -0.3172 -0.0986  0.1122
 6188W        W21997   1.219   4.369   3.613 -0.1539 -0.1614 -0.0273
 6189W        W21998  12.908  16.236  13.042  0.0482 -0.3326 -0.2367
 6190W        W21999   6.938  13.378   3.424  0.1587  0.0576 -0.1109
 6191W        W22000  15.866  15.933   3.469  0.1277  0.2194  0.2340
 6192W        W22001   9.662  13.998  12.778 -0.2546 -0.0535  0.0742
 6193W        W22002   2.441  13.355   1.497  0.1282 -0.0875  0.3259
 6194W        W22003  15.594   7.268   3.744  0.1457 -0.0295  0.0065
 6195W        W22004  13.923   2.695  12.297  0.1273 -0.1557 -0.1535
 6196W        W22005  13.523   4.273  10.945  0.1013 -0.1934  0.2023
 6197W        W22006  12.166   0.297   0.067  0.0239  0.1704 -0.0686
 6198W        W22007  11.406  12.817  14.725  0.0932  0.1457 -0.1393
 6199W        W22008   0.357   1.552   2.516 -0.1143 -0.1927 -0.2454
 6200W        W22009   3.313   8.575   2.459 -0.0401 -0.2220  0.1990
 6201W        W22010   7.075  11.007  12.511 -0.2219 -0.0797  0.2169
 6202W        W22011   2.376  18.078   2.772 -0.0123  0.1439 -0.0912
 6203W        W22012   2.652   6.780  11.397  0.0169  0.2107  0.1492
 6204W        W22013   1.045   5.207   3.111  0.2543  0.0329 -0.2409
 6205W        W22014   6.352   1.442   4.358 -0.1127  0.1121  0.1320
 6206W        W22015  11.058   2.364  14.558 -0.1338  0.0496 -0.1104
 6207W        W22016   7.547   4.868   0.721  0.0822  0.3131 -0.0603
 6208W        W22017   3.737  14.630  12.684 -0.1725  0.1755  0.2534
 6209W        W22018  17.549  16.850  13.100 -0.0469  0.0869  0.3256
 6210W        W22019  18.188   1.249   2.231 -0.2197  0.1926  0.3146
 6211W        W22020  16.679   8.918  15.077 -0.1209 -0.1006  0.0970
 6212W        W22021  13.170  12.849  13.334  0.3299  0.1996  0.0507
 6213W        W22022   2.741  15.747   3.370  0.0115 -0.0079 -0.2735
 6214W        W22023  13.675  13.749   5.181  0.1912  0.2124  0.0186
 6215W        W22024   6.268   3.886  13.675 -0.2461  0.1537 -0.1463
 6216W        W22025   6.880   4.996  11.581  0.4596  0.0933  0.0114
 6217W        W22026   2.464   5.736   0.061  0.2902  0.1352  0.1331
 6218W        W22027  17.496   7.068  11.378 -0.1864 -0.1099 -0.0091
 6219W        W22028  16.451   0.815   3.027 -0.2768 -0.2875 -0.0751
 6220W        W22029  12.828   4.620  15.048 -0.1203 -0.0382  0.1515
 6221W        W22030   2.440   3.361  12.173 -0.0929  0.3680  0.2094
 6222W        W22031   1.438  16.713   3.034  0.0776  0.0154  0.1457
 6223W        W22032   0.736   2.328  12.343  0.1329  0.1240  0.3984
 6224W        W22033   4.368   2.470  14.180  0.2311  0.3235  0.0287
 6225W        W22034  15.406   2.761  14.336 -0.2702  0.1089  0.0880
 6226W        W22035  16.426  14.271  14.371 -0.2427 -0.0131  0.2197
 6227W        W22036  10.516  18.267   0.655 -0.1075  0.2071 -0.0628
 6228W        W22037   8.557  10.125  14.445 -0.0052  0.1113  0.0359
 6229W        W22038   1.892   2.388   3.301 -0.0113 -0.2107 -0.3110
 6230W        W22039   7.546   0.530  13.937  0.1381 -0.3239 -0.1046
 6231W        W22040  10.733   1.896   5.685 -0.1314 -0.1729 -0.1601
 6232W        W22041  16.667   9.346  14.675  0.2423  0.2584  0.1914
 6233W        W22042   0.913  16.354  11.551 -0.2928 -0.0500 -0.1123
 6234W        W22043  16.062   7.412  13.126  0.2875  0.3473  0.1615
 6235W        W22044  17.738  10.638  14.019  0.0412 -0.3759  0.0861
 6236W        W22045   5.954   2.162   2.069  0.0879 -0.0927  0.3103
 6237W        W22046  12.851  16.336  13.590  0.0724 -0.0799 -0.0035
 6238W        W22047   8.742  17.317   4.056 -0.0225  0.0369 -0.1624
 6239W        W22048   5.374   7.348   0.769  0.3622  0.0016  0.2629
 6240W        W22049   4.315   6.803  14.972 -0.0096 -0.1001 -0.1071
 6241W        W22050   9.335   7.431  13.466 -0.1451  0.0067 -0.0309
 6242W        W22051   0.196  17.761   3.556 -0.2919  0.1067 -0.1151
 6243W        W22052   0.729   9.322   2.256 -0.2416  0.0885 -0.1636
 6244W        W22053  18.539  10.497   5.771  0.0711  0.1761  0.0119
 6245W        W22054   7.155   5.524   1.867 -0.0537  0.0076  0.0538
 6246W        W22055   3.388  16.000   2.043 -0.2492  0.0097 -0.2915
 6247W        W22056   0.492   1.667  13.653  0.2872 -0.1534 -0.0971
 6248W        W22057  11.141   6.900   3.561 -0.0025 -0.1487 -0.1206
 6249W        W22058  13.416   8.687  12.652 -0.0299 -0.0142 -0.2657
 6250W        W22059  12.875   9.036   1.692 -0.1729  0.0124 -0.0006
 6251W        W22060   0.831  17.521   0.350 -0.0176 -0.0812  0.0480
 6252W        W22061   5.886  10.145   1.342  0.1224  0.1529 -0.1645
 6253W        W22062  14.650  14.119  12.552 -0.0073  0.1560  0.2344
 6254W        W22063   8.224   1.234  14.642  0.1419 -0.0699 -0.1057
 6255W        W22064   8.866   1.834   0.151  0.0982  0.1813 -0.0518
 6256W        W22065   4.949  18.102   2.741 -0.2158 -0.4197  0.1765
 6257W        W22066   4.488  14.864   4.790  0.1447 -0.1934 -0.0102
 6258W        W22067  14.895  13.175   5.885  0.0571  0.0502  0.0112
 6259W        W22068   0.920  17.866   5.590  0.3598  0.1008  0.1190
 6260W        W22069   2.214   5.768  12.773  0.0269 -0.1950 -0.1012
 6261W        W22070   1.517   8.875   1.875 -0.0311 -0.1108 -0.1640
 6262W        W22071   4.866   1.652   1.149 -0.2863  0.1646 -0.1140
 6263W        W22072  18.650  11.063  15.302  0.0606  0.0052  0.1284
 6264W        W22073   0.407   5.463  13.725 -0.0925  0.3220  0.0013
 6265W        W22074  12.906   8.029   1.522  0.1189 -0.0643  0.2283
 6266W        W22075  15.661  10.805   3.081  0.1133  0.1262 -0.2503
 6267W        W22076  17.052   4.761  11.181 -0.3505  0.3285  0.0251
 6268W        W22077   6.419   0.909  11.535  0.1381 -0.3896  0.2887
 6269W        W22078   1.438   4.021  11.131  0.2157  0.0631  0.1146
 6270W        W22079  17.035  15.491   2.912  0.3321 -0.1023  0.0355
 6271W        W22080  13.104   3.815  13.646  0.0713 -0.0991  0.0118
 6272W        W22081   7.928  10.691  10.451 -0.2794 -0.2335 -0.1830
 6273W        W22082   6.144  15.129  15.097  0.1103 -0.6212 -0.1236
 6274W        W22083   3.625   2.140   5.433  0.1007 -0.0474  0.1437
 6275W        W22084   9.489   5.483   2.931 -0.0416 -0.0142  0.3546
 6276W        W22085  11.800  14.691   0.406 -0.0800 -0.1548 -0.1346
 6277W        W22086   0.023   5.154   1.890  0.0761 -0.1269 -0.0567
 6278W        W22087   2.870   2.578  12.461  0.1185  0.3457 -0.0448
 6279W        W22088  18.467  14.711   5.270 -0.1008  0.2546 -0.2224
 6280W        W22089   7.752   4.357   0.471  0.2665 -0.3907  0.2337
 6281W        W22090  14.368   1.030  12.534 -0.1985  0.0127  0.1063
 6282W        W22091  10.340  18.265   3.402  0.1769 -0.0143 -0.0486
 6283W        W22092  11.076  11.975   3.685  0.1157  0.0735 -0.1538
 6284W        W22093   7.394   7.097   2.179  0.2796 -0.0483  0.4101
 6285W        W22094  13.862   1.220   5.926 -0.0904 -0.0053 -0.0336
 6286W        W22095  12.043   5.156   0.105  0.1231  0.3840 -0.0026
 6287W        W22096   3.332   3.561  11.528 -0.0952  0.0247 -0.2078
 6288W        W22097   3.209   1.480   3.422  0.3324 -0.4578  0.2448
 6289W        W22098   7.311   5.946  13.055  0.2135 -0.0501 -0.2853
 6290W        W22099   2.775   2.541  12.982  0.1879  0.1143  0.1507
 6291W        W22100   0.982  11.305  12.780  0.1617  0.0313 -0.0276
 6292W        W22101  15.843  14.155   3.057 -0.0237  0.2743  0.1933
 6293W        W22102   6.372   1.903  12.249 -0.0984  0.1080  0.2526
 6294W        W22103   2.172  10.775   3.753 -0.2576  0.2024  0.0219
 6295W        W22104  11.440  10.406   0.763  0.0356  0.1120 -0.0007
 6296W        W22105  12.068   2.861  12.319 -0.0554  0.0666  0.3517
 6297W        W22106   1.693   5.762   3.234 -0.2475 -0.1978  0.2607
 6298W        W22107  10.050   7.217  11.279  0.2641  0.1456 -0.2213
 6299W        W22108  14.636   1.853   4.558 -0.0186 -0.1099  0.1039
 6300W        W22109  10.358  17.027   1.517  0.1658  0.1556  0.3371
 6301W        W22110  13.814  18.483  13.232 -0.1590 -0.0538  0.0599
 6302W        W22111  16.322  14.767   2.032 -0.1412 -0.1456  0.1718
 6303W        W22112   4.594  16.282   0.973 -0.0647  0.4061 -0.0432
 6304W        W22113  12.744  17.278  13.967 -0.0106  0.0213  0.1326
 6305W        W22114   9.174   1.138   4.875  0.0271 -0.3093  0.1462
 6306W        W22115  17.674   1.837  12.955 -0.0649 -0.1249  0.1731
 6307W        W22116  16.737  14.689  11.942  0.0186  0.0226  0.0215
 6308W        W22117   9.634   6.664   5.862  0.0385  0.0657 -0.2575
 6309W        W22118   6.000   5.968   3.214  0.0075  0.4898  0.0520
 6310W        W22119  14.861   9.914  12.461  0.0908 -0.3346  0.2320
 6311W        W22120  10.880  10.136   4.479  0.0560 -0.1379  0.0523
 6312W        W22121  10.168   0.465  12.120 -0.0200  0.2011 -0.0941
 6313W        W22122   2.477  13.090  10.795 -0.1986 -0.0558 -0.2091
 6314W        W22123   2.069   7.365  11.312  0.3685  0.0371  0.0145
 6315W        W22124  18.414   8.229  12.171  0.1725  0.1267 -0.0141
 6316W        W22125  11.357   8.461   4.263 -0.0631  0.1663 -0.3734
 6317W        W22126   4.465  10.730  11.172  0.1868 -0.0686 -0.1575
 6318W        W22127  15.650  12.825  12.294  0.3812 -0.0161 -0.3928
 6319W        W22128  17.515   4.599   2.006 -0.1346 -0.1241 -0.1560
 6320W        W22129   7.929   4.159   5.857 -0.1753 -0.3051  0.0595
 6321W        W22130   0.847   1.154  15.388  0.0897 -0.0325  0.1308
 6322W        W22131   1.467   8.458  12.736 -0.4607 -0.1674  0.0473
 6323W        W22132   9.690   6.028  15.196  0.0182  0.1985 -0.0652
 6324W        W22133   6.782   3.740   4.998 -0.3779 -0.1421 -0.2504
 6325W        W22134  16.699   2.828   0.873 -0.0429 -0.3876  0.1074
 6326W        W22135  10.947   1.212   5.215  0.0709 -0.0836  0.1417
 6327W        W22136  14.402   9.565   4.407  0.1490 -0.1466  0.1488
 6328W        W22137  14.683   6.293  13.891 -0.0381 -0.3679  0.0213
 6329W        W22138  10.029   2.541   2.958  0.2437 -0.1104  0.0079
 6330W        W22139   2.361  14.600   5.069 -0.0850  0.0319  0.1383
 6331W        W22140   2.379   7.997   1.372 -0.1541  0.0640 -0.2270
 6332W        W22141   1.522  13.662   0.821  0.0255  0.2493  0.1119
 6333W        W22142   6.835   1.503   5.107  0.4528 -0.4460  0.0647
 6334W        W22143  15.104  10.688  15.145  0.0759 -0.1254  0.0411
 6335W        W22144  13.347  17.218   2.934 -0.3895  0.0776 -0.0720
 6336W        W22145  18.448   7.480   0.593 -0.1954  0.0442  0.0066
 6337W        W22146   1.200   7.798   0.875 -0.2514 -0.1648 -0.0816
 6338W        W22147   2.212   9.887  10.623 -0.2698  0.4153 -0.1624
 6339W        W22148   2.875  17.414  13.856 -0.2683  0.0930 -0.0142
 6340W        W22149   2.519   0.444   4.565  0.1599  0.3017 -0.0585
 6341W        W22150   0.146  10.146   9.770  0.0723  0.2151  0.1403
 6342W        W22151   4.617  12.101  11.452  0.1255 -0.2294  0.0059
 6343W        W22152  10.160   1.785   4.223  0.0818  0.2658  0.4222
 6344W        W22153  13.040  13.841  12.394 -0.1670 -0.1570  0.2409
 6345W        W22154  12.925   0.511   3.367 -0.2264 -0.2026 -0.2136
 6346W        W22155   0.273   0.561  13.995 -0.0805  0.2088  0.0243
 6347W        W22156   6.695   1.798   0.660  0.2176 -0.4317  0.1097
 6348W        W22157  11.651   6.942   3.755 -0.0446 -0.2934  0.0917
 6349W        W22158   0.070   4.784  13.018  0.1174  0.0838  0.0322
 6350W        W22159  13.094   9.254  12.094  0.2087 -0.0674 -0.1596
 6351W        W22160  12.536  16.952   3.099  0.1488 -0.0815  0.0102
 6352W        W22161   7.966   1.072  11.985  0.0823  0.4711 -0.0578
 6353W        W22162   6.346   6.657  11.227  0.2204 -0.0142 -0.0641
 6354W        W22163   3.788   7.343   3.366  0.3369  0.1464  0.0031
 6355W        W22164  16.033   8.073   4.305  0.0440  0.0250  0.1337
 6356W        W22165   2.113   5.141   1.142  0.0665  0.0390  0.2864
 6357W        W22166   3.677   8.130   2.340  0.3728 -0.1820  0.0030
 6358W        W22167  14.334   1.017   1.453 -0.0008 -0.2330 -0.2123
 6359W        W22168   1.206  13.140   2.696 -0.1002 -0.0636 -0.1236
 6360W        W22169  15.321   5.591   2.167  0.3205  0.0814 -0.0727
 6361W        W22170  16.848   5.467  11.692  0.1503  0.1820 -0.0414
 6362W        W22171   3.043  16.158   1.390 -0.0928  0.0989 -0.3439
 6363W        W22172   5.560  10.505   4.207  0.0141  0.3012  0.2006
 6364W        W22173   1.770  18.567   4.691  0.1808  0.0330  0.1451
 6365W        W22174   6.866   6.992  14.545  0.1401  0.0073  0.0230
 6366W        W22175   4.835   5.936   4.472  0.2175  0.1367 -0.2830
 6367W        W22176  17.530   8.773   4.342  0.0636  0.1411  0.2374
 6368W        W22177  16.592   9.305   0.116  0.2046  0.1055 -0.0645
 6369W        W22178   2.131   2.455   2.814  0.0536 -0.0952  0.0612
 6370W        W22179   2.123  15.178   2.865 -0.0652  0.1423 -0.1091
 6371W        W22180  11.809  14.646  10.512  0.0515  0.0576 -0.2103
 6372W        W22181  14.118   8.233  11.113 -0.4331  0.2958 -0.2188
 6373W        W22182   0.339   0.636   4.318  0.0667 -0.0436  0.1667
 6374W        W22183   1.698  17.597   2.745  0.1138  0.4203 -0.3930
 6375W        W22184  16.294  17.440   5.230  0.0133 -0.0383 -0.1495
 6376W        W22185  17.409   0.606  12.487  0.1564  0.3164 -0.1147
 6377W        W22186  11.048  16.052  13.334 -0.1053 -0.2389  0.0816
 6378W        W22187  15.932  10.195  13.059 -0.1725 -0.1823 -0.1112
 6379W        W22188  11.338  13.020  15.216 -0.0305 -0.1269 -0.2373
 6380W        W22189  11.809  16.810  10.787  0.0471 -0.0989  0.0887
 6381W        W22190  16.517   0.565   3.515 -0.1408 -0.3422  0.2291
 6382W        W22191  11.614  18.069  10.779  0.2825 -0.0790  0.1418
 6383W        W22192   3.656  15.738  10.259  0.1473 -0.1504  0.0927
 6384W        W22193  15.458  15.948   2.363  0.0227  0.2552 -0.1439
 6385W        W22194  12.933   9.390   4.215 -0.0194 -0.0124 -0.1276
 6386W        W22195  10.895  15.330  11.477 -0.0213 -0.1600  0.1484
 6387W        W22196  15.468  14.245   4.230  0.1124  0.2032 -0.2803
 6388W        W22197  14.204  15.741  12.964 -0.0245  0.0249 -0.2923
 6389W        W22198  18.065  16.057   2.360 -0.0918  0.3794  0.2168
 6390W        W22199  17.137   6.992   3.200 -0.1459 -0.0291 -0.2571
 6391W        W22200  18.368   6.570  13.739  0.1407  0.2958 -0.2334
 6392W        W22201  13.260  10.125   3.544  0.3077 -0.0124 -0.2216
 6393W        W22202   0.692   2.350   5.686  0.1560 -0.1309 -0.1188
 6394W        W22203  11.836   3.676  13.357 -0.4063 -0.1619  0.0742
 6395W        W22204  17.438   6.040  15.047 -0.0100 -0.0409 -0.0464
 6396W        W22205  16.283  14.349  11.862  0.0285  0.2409 -0.0355
 6397W        W22206   0.326   9.069   1.665 -0.1596  0.2120 -0.4279
 6398W        W22207   6.528  13.615  12.197 -0.0867  0.2830  0.0244
 6399W        W22208  12.900  10.315   1.210  0.0894  0.1444  0.0929
 6400W        W22209   6.334   4.751  13.125 -0.1143 -0.0976 -0.1160
 6401W        W22210   4.087   4.360   3.765 -0.1809  0.1217  0.2779
 6402W        W22211  15.082  15.819  12.958  0.0932 -0.1263  0.0079
 6403W        W22212   0.915  12.809   2.058 -0.2886 -0.0124 -0.0302
 6404W        W22213   4.080  17.677  13.368 -0.0805 -0.3812 -0.0986
 6405W        W22214   0.248   7.762   2.595 -0.0884  0.2748 -0.0172
 6406W        W22215   3.993  11.610  11.134  0.1166 -0.0999  0.0036
 6407W        W22216  15.913  12.046  13.211  0.0309 -0.2892  0.0759
 6408W        W22217  13.445   1.576   2.738  0.0213 -0.0128  0.1257
 6409W        W22218   6.920   8.988   4.545 -0.1098 -0.0974 -0.4258
 6410W        W22219   8.027   0.199  14.256  0.5143  0.0456  0.0170
 6411W        W22220  14.164   5.363   1.203 -0.0763  0.0060 -0.0220
 6412W        W22221   5.150   9.073  11.600 -0.1545 -0.0286 -0.0513
 6413W        W22222  14.828  13.182  14.784  0.0350 -0.1823  0.0293
 6414W        W22223   2.108  17.277   3.149 -0.0109  0.2167  0.0464
 6415W        W22224   4.481  11.338   2.892 -0.0598  0.1318  0.1186
 6416W        W22225  14.427   7.772  12.603 -0.0888  0.0671 -0.1466
 6417W        W22226   9.976  10.783   0.906  0.1234  0.0284 -0.0703
 6418W        W22227  12.310  17.557  12.275  0.2680  0.1737 -0.2443
 6419W        W22228   6.832   6.425   3.989 -0.0703  0.0533 -0.1942
 6420W        W22229   0.859  16.911  15.108  0.0654  0.4154  0.0638
 6421W        W22230   2.253  10.698  11.395 -0.0609  0.1072 -0.0885
 6422W        W22231  10.409  15.984   3.581 -0.1854 -0.1144 -0.1434
 6423W        W22232  11.716  17.712  13.052  0.2829 -0.4220  0.1622
 6424W        W22233  14.658   8.452   5.907  0.0186  0.0509 -0.2254
 6425W        W22234   9.283  12.773  10.940 -0.0576 -0.2887  0.1769
 6426W        W22235  13.123   6.665  15.139 -0.0107 -0.0461  0.2721
 6427W        W22236  17.894   6.965  14.163 -0.1936 -0.0798  0.0764
 6428W        W22237   0.974   1.217   1.712 -0.1442  0.0928 -0.1769
 6429W        W22238  10.563   5.790   0.307 -0.1046  0.1412 -0.3335
 6430W        W22239   9.956   1.344  15.493 -0.1109  0.0801  0.0833
 6431W        W22240   6.403  13.597   0.853 -0.4080 -0.3958 -0.0506
 6432W        W22241   6.345   8.482   1.483  0.0133 -0.1275 -0.1402
 6433W        W22242   3.843  15.285  10.989 -0.0071 -0.1545 -0.0930
 6434W        W22243  12.585  13.013   0.230  0.0452  0.0086  0.0158
 6435W        W22244   6.398   5.446   2.687  0.3505  0.0981  0.0328
 6436W        W22245   5.812   5.939  11.547  0.1757 -0.2486 -0.3351
 6437W        W22246   5.958   3.723   4.420 -0.0809  0.1312 -0.0470
 6438W        W22247   2.674  13.207  14.127  0.1596  0.1459  0.2308
 6439W        W22248   4.734   5.029   2.700  0.0834 -0.0798  0.1826
 6440W        W22249  15.702   1.492   5.702  0.0299  0.2213 -0.0908
 6441W        W22250  18.687   4.079   4.118  0.1995 -0.2541 -0.1080
 6442W        W22251   9.036  10.751   3.315 -0.0314 -0.0869  0.0456
 6443W        W22252   9.771  10.161   3.198 -0.1346 -0.1186 -0.1927
 6444W        W22253  10.586   7.588   1.308  0.0342 -0.1238  0.0190
 6445W        W22254   0.742   8.529   5.804 -0.4485  0.0197  0.5018
 6446W        W22255  15.338  18.049  13.895  0.5003 -0.2884 -0.1142
 6447W        W22256  13.070   6.068  12.189 -0.1529  0.0292 -0.0637
 6448W        W22257   9.541  17.653  15.253 -0.1622  0.0447 -0.0666
 6449W        W22258  13.987  16.879   6.292 -0.2142  0.0608 -0.0343
 6450W        W22259   0.666  15.002  11.780  0.0148  0.0022 -0.0330
 6451W        W22260   0.467  11.987   0.935  0.0411 -0.1586  0.2428
 6452W        W22261  13.583  12.155   2.788  0.1694  0.1118  0.1955
 6453W        W22262  10.974  13.250   1.069 -0.0788 -0.0054  0.0656
 6454W        W22263   8.273   1.612  14.984  0.0783 -0.0252  0.2919
 6455W        W22264   6.621  13.842  13.164  0.0932  0.0757  0.2745
 6456W        W22265  15.524   5.751  14.233 -0.1341 -0.3357  0.2730
 6457W        W22266  11.529   3.645  11.119  0.3237 -0.2269  0.1504
 6458W        W22267   6.807  18.108  11.072  0.0103 -0.4811 -0.1550
 6459W        W22268   4.815   1.435  12.744  0.3146  0.0645 -0.1056
 6460W        W22269  11.059   7.086   5.776  0.1913 -0.1320  0.2266
 6461W        W22270  18.077  16.688  12.646  0.0177 -0.4959 -0.0003
 6462W        W22271   9.402   5.159   5.025 -0.3133  0.5919  0.0876
 6463W        W22272  12.889  13.590   2.686 -0.0097 -0.1664 -0.1450
 6464W        W22273   9.012   7.175   5.275  0.0449  0.0702 -0.0788
 6465W        W22274  14.591   0.661   2.247 -0.0197 -0.1615 -0.1059
 6466W        W22275  16.875  17.452   0.621  0.0562 -0.0454  0.0350
 6467W        W22276  17.222  18.378   0.395 -0.0949 -0.0043  0.0291
 6468W        W22277   2.460   4.731   0.870 -0.3008 -0.1439 -0.2636
 6469W        W22278   1.545  17.443   2.303  0.0568 -0.1481  0.2586
 6470W        W22279  13.586   0.883  12.874  0.3728 -0.1315  0.0900
 6471W        W22280  11.811  12.507   1.079 -0.2233 -0.1819 -0.1586
 6472W        W22281  17.201  13.262   0.052 -0.2508  0.0347 -0.0951
 6473W        W22282   2.327  11.150  13.243 -0.2579  0.2560 -0.0034
 6474W        W22283   6.731   6.975  13.327 -0.0633  0.0264  0.1685
 6475W        W22284   1.973   4.478  12.704  0.0217  0.2182  0.0213
 6476W        W22285   9.752   6.225   0.855 -0.1380 -0.1271 -0.1395
 6477W        W22286   3.152   9.853   3.630  0.1360  0.0903  0.0754
 6478W        W22287   7.901   7.710   2.835  0.1338 -0.2084 -0.0842
 6479W        W22288  11.420   7.032  11.085 -0.3294 -0.2499 -0.3099
 6480W        W22289  14.303   7.500  11.829  0.2423  0.1426  0.0706
 6481W        W22290  10.091  17.327  11.067 -0.0426  0.2033 -0.1154
 6482W        W22291   8.676   4.774  13.024 -0.1698  0.0458  0.3282
 6483W        W22292  14.332  15.795  15.425  0.0218  0.3718  0.2760
 6484W        W22293  10.767   7.434  12.346  0.2168 -0.1984 -0.0286
 6485W        W22294  16.060   5.682  12.831 -0.2305  0.1439  0.1437
 6486W        W22295  13.034  18.194   4.001  0.1398  0.0541 -0.1917
 6487W        W22296   9.657   2.831  10.971  0.0572  0.0402 -0.0572
 6488W        W22297  10.890   1.848  14.023 -0.2180 -0.0077 -0.1294
 6489W        W22298  14.195  13.545   4.369  0.2031  0.0051 -0.2327
 6490W        W22299  12.352   4.430  10.886 -0.0001 -0.1014 -0.0339
 6491W        W22300  11.456   2.007   2.643 -0.0666 -0.0867  0.0075
 6492W        W22301   2.194   7.780  15.516 -0.0114  0.0760  0.0798
 6493W        W22302   6.872   8.021   0.476 -0.0335 -0.2673  0.0660
 6494W        W22303   9.444   0.909  13.424  0.1815 -0.3183 -0.2759
 6495W        W22304   2.290   2.293   0.121  0.0057  0.2112 -0.3019
 6496W        W22305   4.403   3.142  13.512 -0.0208 -0.1535  0.0550
 6497W        W22306   6.350   4.445  14.366 -0.4549  0.1390 -0.1371
 6498W        W22307  12.056   3.771  11.542 -0.1105  0.2836 -0.0909
 6499W        W22308  10.950   5.867   5.050 -0.1500 -0.0678  0.4122
 6500W        W22309   5.749   7.946   1.487 -0.1529 -0.2550  0.0144
 6501W        W22310  17.087  18.651  14.536  0.1407  0.0535  0.2072
 6502W        W22311   2.287  17.213   4.518 -0.0500  0.0360 -0.1583
 6503W        W22312   6.168  14.941   2.764 -0.2010  0.1963 -0.2600
 6504W        W22313  13.941  12.862  15.092 -0.0677 -0.1194  0.2729
 6505W        W22314   6.610   1.198  14.736  0.0086 -0.0928  0.1475
 6506W        W22315  17.592   5.478  15.461  0.0177 -0.2019 -0.0253
 6507W        W22316  13.594  17.975   4.043 -0.1749 -0.0188  0.0289
 6508W        W22317  15.782   5.635  10.590 -0.0104 -0.2014 -0.0765
 6509W        W22318   2.480  18.780   0.586  0.0630  0.1356  0.0087
 6510W        W22319   0.430  14.743   2.246  0.1262  0.2764 -0.0278
 6511W        W22320   3.022  14.696   4.833  0.1778  0.2053 -0.0685
 6512W        W22321  15.157   9.136   5.545  0.1213  0.0158 -0.3808
 6513W        W22322   1.733   8.335  11.596 -0.0628 -0.0753 -0.0855
 6514W        W22323  18.027  12.346   4.219 -0.4224 -0.2354  0.3002
 6515W        W22324   0.546   2.185   3.837  0.0489  0.1349 -0.2734
 6516W        W22325   6.162   8.859  12.899 -0.0644 -0.2099  0.0471
 6517W        W22326  13.263   2.492   5.266 -0.0519  0.1734  0.3916
 6518W        W22327   7.257   6.800   0.574 -0.2892 -0.0537  0.4222
 6519W        W22328   3.088  10.129  11.124  0.1481 -0.3754  0.0338
 6520W        W22329   3.181   8.991   4.935 -0.3116 -0.1059 -0.0017
 6521W        W22330  12.134  13.634  11.205  0.1999  0.2901 -0.3786
 6522W        W22331   5.924   9.130   4.080  0.4688 -0.4070 -0.1275
 6523W        W22332  11.399   9.382   0.959  0.0237  0.2599 -0.0707
 6524W        W22333   4.265  12.076   2.203  0.0545 -0.3274 -0.0174
 6525W        W22334   5.750   5.162  13.503  0.0203 -0.2329  0.1104
 6526W        W22335  14.006   1.218   4.977  0.0339  0.0339 -0.0698
 6527W        W22336   4.983  14.857   4.172  0.0061 -0.1295 -0.3309
 6528W        W22337  12.472   7.607  12.589 -0.0863  0.1321 -0.3561
 6529W        W22338  13.097  18.012  14.241 -0.1743  0.1074  0.3361
 6530W        W22339   5.597  15.020   4.894  0.1916 -0.1559  0.0025
 6531W        W22340  15.869   3.753   3.722 -0.0332  0.0354  0.3789
 6532W        W22341   8.107  12.741   0.969 -0.0047 -0.0160  0.1940
 6533W        W22342   3.093   8.822  12.077  0.1523  0.0421 -0.1389
 6534W        W22343  15.000   1.072  13.631  0.0151  0.0355 -0.0026
 6535W        W22344  14.801  12.931  15.234  0.0413  0.0491 -0.0033
 6536W        W22345  11.743   5.508  14.917 -0.2848  0.1364 -0.2876
 6537W        W22346   5.321   7.378  14.877 -0.0710  0.1261  0.1360
 6538W        W22347   7.725   9.714  11.112 -0.0854 -0.4677  0.1306
 6539W        W22348  10.443   8.332  15.339  0.2660  0.1684 -0.0326
 6540W        W22349   1.626   0.916  15.506  0.1811  0.1004 -0.1358
 6541W        W22350   8.395   2.999  14.356  0.0882  0.1755 -0.0233
 6542W        W22351   6.948  16.486   9.543 -0.5238 -0.0601 -0.1729
 6543W        W22352   7.120  18.585  13.563  0.4921 -0.3526 -0.0191
 6544W        W22353  16.262   6.620   2.677 -0.0579  0.1144  0.0891
 6545W        W22354   1.404  12.769   4.850  0.2006 -0.2186  0.0574
 6546W        W22355  15.609   0.543   4.608  0.2076  0.0298  0.0070
 6547W        W22356   4.057  17.530   2.764  0.0429 -0.1367  0.1020
 6548W        W22357   5.662  12.137  15.434 -0.2047  0.1743  0.1419
 6549W        W22358  17.832  11.232   2.433 -0.0493  0.0721  0.2015
 6550W        W22359  12.368  12.096  13.040  0.0372 -0.1332  0.2497
 6551W        W22360   7.723  16.948   0.903  0.0001  0.0650  0.2917
 6552W        W22361   1.749   6.240   0.626  0.1790  0.1124  0.2158
 6553W        W22362   0.558  14.562   0.232 -0.1254 -0.4372  0.1200
 6554W        W22363  18.066  13.629   1.516  0.0186  0.4973  0.2085
 6555W        W22364  17.012   3.684  15.459 -0.0478  0.2524  0.1130
 6556W        W22365  17.576   8.882  10.847  0.1378  0.1660 -0.0065
 6557W        W22366  11.481  12.047   3.963 -0.3464  0.2291 -0.2847
 6558W        W22367   3.857  16.584   1.537  0.0791  0.1146  0.0486
 6559W        W22368  13.957   2.900   5.513  0.0677  0.0326  0.0428
 6560W        W22369   8.488  18.015   0.626 -0.1708 -0.2043 -0.1643
 6561W        W22370   7.153   4.218  13.116 -0.0802  0.1571  0.2303
 6562W        W22371   7.423   5.236  10.150 -0.1188 -0.0359  0.0197
 6563W        W22372   2.230  13.001  12.817  0.1810  0.2877  0.2786
 6564W        W22373   7.570   9.183   4.410 -0.3078 -0.3217  0.0399
 6565W        W22374  15.831   9.713  13.303 -0.4096  0.2454  0.4018
 6566W        W22375   9.645  18.606   2.507  0.3552  0.0828 -0.0304
 6567W        W22376   4.589   5.325  13.002  0.0869 -0.1869  0.1042
 6568W        W22377  11.903   6.529   3.904 -0.0628 -0.1776  0.1667
 6569W        W22378  10.412   8.597   4.542 -0.0941  0.1998 -0.1828
 6570W        W22379  15.810  17.773   1.446 -0.0360  0.0359 -0.1203
 6571W        W22380  12.019  17.420   5.095 -0.1406  0.0612 -0.4756
 6572W        W22381  11.293   0.192   6.005  0.1318  0.0566 -0.2983
 6573W        W22382  18.596   8.937   0.402 -0.0063 -0.1688 -0.1047
 6574W        W22383   4.506   9.620   2.161 -0.0234 -0.1227  0.1058
 6575W        W22384   1.568   8.212   0.698  0.0001 -0.2697 -0.1795
 6576W        W22385  13.437  18.533   3.987  0.1355 -0.0024 -0.1390
 6577W        W22386  16.195  12.034   0.801  0.0177 -0.0741 -0.2520
 6578W        W22387  13.649   3.338  12.749 -0.0355  0.0749  0.0672
 6579W        W22388   5.444   0.534  11.193  0.0772 -0.2396  0.5023
 6580W        W22389  17.927   4.208  12.515  0.1366  0.0240  0.1926
 6581W        W22390  18.716   3.163   1.422  0.2365 -0.2487 -0.0641
 6582W        W22391  10.535   3.690   2.308  0.1117  0.1534 -0.4194
 6583W        W22392   7.158   3.127  12.283 -0.0192  0.3566 -0.2134
 6584W        W22393  13.615  13.943   3.264  0.1076  0.0348 -0.1741
 6585W        W22394  14.240  15.643  14.161 -0.1443  0.0620 -0.3019
 6586W        W22395  10.591   8.590  12.825  0.1500  0.0608  0.1352
 6587W        W22396  16.332  10.973  11.234 -0.1015 -0.0852 -0.2130
 6588W        W22397   2.163   7.081   2.237 -0.1604  0.0267 -0.0390
 6589W        W22398   4.530  10.522   5.124  0.0209 -0.0868  0.1987
 6590W        W22399   6.901   6.631   0.064  0.1968  0.0849 -0.0169
 6591W        W22400  13.765   0.603   4.251  0.0692  0.1918 -0.1267
 6592W        W22401  17.136  13.988  13.087  0.1672  0.1549 -0.0431
 6593W        W22402   2.610   3.803   2.798  0.1525 -0.1321 -0.0501
 6594W        W22403   3.436  15.777  13.360  0.1747 -0.0297 -0.1182
 6595W        W22404  17.872  11.157  14.039 -0.0319  0.1419  0.0895
 6596W        W22405   1.448   4.068   2.166 -0.1462  0.0452 -0.0689
 6597W        W22406  11.384  14.190   5.404 -0.1879 -0.0129  0.0826
 6598W        W22407   0.117  17.234  12.884  0.1423  0.1433 -0.1271
 6599W        W22408  10.124  13.099   2.669 -0.0653  0.3813 -0.2474
 6600W        W22409   1.888   7.831  11.572  0.1817 -0.1894  0.0425
 6601W        W22410   4.942   9.163   1.365  0.0731 -0.1513  0.1857
 6602W        W22411   4.602  17.675  14.134 -0.1899  0.1134  0.0562
 6603W        W22412   6.604  11.463   2.702 -0.0695  0.3000 -0.2400
 6604W        W22413   6.282  16.837  13.279 -0.1407 -0.0067 -0.2134
 6605W        W22414   0.879  14.717   4.644  0.0140  0.0481  0.2505
 6606W        W22415  14.027   4.105  14.893 -0.0877 -0.0341 -0.1661
 6607W        W22416   7.598   2.880   3.019 -0.0905 -0.2395  0.0909
 6608W        W22417   1.064   6.986  13.602  0.1041  0.2456 -0.0372
 6609W        W22418  15.742  10.677   3.612 -0.3115  0.0171  0.0890
 6610W        W22419  15.594   9.178  10.893 -0.1676  0.1952  0.1294
 6611W        W22420  13.412   0.361  13.204 -0.1451  0.2702 -0.2167
 6612W        W22421  10.523   2.671  11.288  0.3438  0.0937  0.1196
 6613W        W22422  15.042   0.863   3.446 -0.0960  0.1764 -0.0805
 6614W        W22423   9.802   7.918   3.474 -0.1398  0.0633 -0.1264
 6615W        W22424   1.922   0.074   0.602 -0.0666 -0.1478  0.0974
 6616W        W22425   4.646   9.910  13.130  0.1348 -0.0105 -0.1263
 6617W        W22426  11.793  15.112   1.074  0.2585  0.1743  0.0634
 6618W        W22427  11.390  12.848  10.384  0.1934 -0.0287 -0.1098
 6619W        W22428   2.207   1.457  11.701 -0.1800  0.2660  0.0873
 6620W        W22429   0.055   3.047  15.303  0.0746 -0.0680  0.2899
 6621W        W22430  15.273  13.398   3.939 -0.0769  0.2924 -0.3040
 6622W        W22431   6.564  16.156  12.701  0.0101 -0.1158  0.0080
 6623W        W22432  12.308   0.373  12.542  0.0015 -0.0982 -0.3195
 6624W        W22433   8.252   5.292  10.738  0.1130  0.2121  0.1046
 6625W        W22434  17.411  10.771   1.157  0.1365 -0.1231  0.0571
 6626W        W22435   7.604   6.324  13.132  0.2395  0.0980 -0.0626
 6627W        W22436   9.889  10.363   1.141  0.1722 -0.0363 -0.4151
 6628W        W22437   6.050   1.041  15.474 -0.0057 -0.0048  0.2596
 6629W        W22438  11.037  10.110   5.800  0.1419  0.2085  0.1387
 6630W        W22439   4.194   8.314  15.064 -0.3828  0.1596  0.1602
 6631W        W22440   7.106   5.862  13.593 -0.1324 -0.2568  0.1580
 6632W        W22441   4.790   5.958  13.341 -0.1518 -0.0801 -0.1586
 6633W        W22442   2.767   5.358   2.114  0.2070 -0.0684 -0.2225
 6634W        W22443   7.734  17.256  14.504  0.0280  0.0158  0.1292
 6635W        W22444  16.301  15.966   4.241 -0.3288  0.0272 -0.0583
 6636W        W22445  14.859   4.288   4.019  0.0872  0.1141 -0.3170
 6637W        W22446  12.485  11.755   1.413  0.1208  0.0513 -0.1260
 6638W        W22447   7.404  16.626  12.659 -0.1361  0.3609  0.0196
 6639W        W22448  15.007   9.973  13.389  0.0796 -0.3193  0.3754
 6640W        W22449  10.388   3.116   3.823  0.3005  0.2753 -0.2065
 6641W        W22450  13.799   2.667   3.390  0.2575  0.2543  0.0582
 6642W        W22451  14.420  11.373  15.183  0.1584 -0.1108 -0.0931
 6643W        W22452  15.067   3.030   5.303  0.4544 -0.1314 -0.4005
 6644W        W22453  14.401   6.801   4.771  0.0333 -0.1788  0.0714
 6645W        W22454   2.331  13.038   0.454 -0.1773 -0.0870  0.0369
 6646W        W22455  12.957   6.828  14.543  0.1191  0.1376 -0.0539
 6647W        W22456  17.269  12.718  12.469 -0.2350  0.2343  0.3554
 6648W        W22457   6.370   3.422   3.622 -0.0145  0.1071 -0.2483
 6649W        W22458  17.342  18.765  14.984 -0.1158  0.3138 -0.0972
 6650W        W22459   4.990   0.878  11.839 -0.0791  0.0406  0.3739
 6651W        W22460   5.025   6.364  11.123 -0.1952 -0.1670  0.0949
 6652W        W22461  16.827  15.274  13.864  0.4503  0.2255 -0.0048
 6653W        W22462  17.044   8.110  12.393  0.0349  0.2905 -0.0471
 6654W        W22463  11.787  11.260  15.204 -0.0720 -0.1497  0.2921
 6655W        W22464  10.088  18.053   1.961  0.2577  0.0492  0.0877
 6656W        W22465  16.797   5.843   3.883  0.0909 -0.1973  0.0183
 6657W        W22466  16.239   9.927  10.622  0.2173  0.0697  0.1085
 6658W        W22467   2.180  15.009   4.207 -0.3324  0.2059 -0.1834
 6659W        W22468   1.607  16.388   2.080 -0.0163  0.1421 -0.1728
 6660W        W22469  14.226   1.208   3.175  0.3338 -0.2470  0.3070
 6661W        W22470   5.873   1.439  13.685  0.0215 -0.1261  0.0727
 6662W        W22471   7.783   8.452  14.078  0.1689 -0.2020 -0.0514
 6663W        W22472   8.486  10.550   4.087 -0.3693 -0.1309  0.0127
 6664W        W22473   4.200   0.913   0.765 -0.2489  0.0936  0.1940
 6665W        W22474  18.476  13.768   5.555 -0.2363  0.1797 -0.1873
 6666W        W22475   8.022  16.188   4.637 -0.2349 -0.0120  0.0365
 6667W        W22476  17.564   8.808   2.919  0.1106  0.0235  0.1282
 6668W        W22477  18.640  14.680   0.541  0.1470 -0.1288 -0.2139
 6669W        W22478  18.416   3.663  14.166  0.0405 -0.0014 -0.1031
 6670W        W22479  14.668  14.369   4.510  0.0291  0.1298  0.0268
 6671W        W22480   0.757   8.527  11.614  0.1091 -0.3331  0.3457
 6672W        W22481  10.165  17.816  15.325 -0.0025 -0.3171  0.0321
 6673W        W22482   4.897  14.557   1.797  0.1980  0.0958 -0.3055
 6674W        W22483  18.054   1.583   0.907  0.2079  0.0920  0.0205
 6675W        W22484  14.864  10.206  12.027  0.2911 -0.3266 -0.0995
 6676W        W22485   1.523   0.468  13.333  0.0111  0.3291  0.1021
 6677W        W22486   9.039  14.649   3.237  0.1656  0.0727  0.2143
 6678W        W22487   8.964   5.881  11.941 -0.1353 -0.1468  0.0163
 6679W        W22488  14.386   3.646   1.950  0.1896 -0.2336 -0.0385
 6680W        W22489   0.951   0.745  10.432  0.1038 -0.2684  0.1378
 6681W        W22490   1.997   1.732  11.277 -0.1323 -0.2540  0.4036
 6682W        W22491   8.085   2.626  13.354  0.3049 -0.3832  0.1784
 6683W        W22492  11.265   8.041  13.813 -0.0595 -0.0228 -0.2040
 6684W        W22493  16.552   0.121  12.219 -0.0993  0.1595 -0.0676
 6685W        W22494   1.561   7.182  14.863  0.4049 -0.1732  0.4839
 6686W        W22495   1.427  18.005   1.477 -0.1443  0.2658 -0.0294
 6687W        W22496  16.853   1.758   1.194  0.0424  0.1274 -0.2348
 6688W        W22497  11.934   2.719   4.730 -0.0092  0.0398 -0.1027
 6689W        W22498   3.770  16.905   4.150 -0.1533 -0.2087 -0.2120
 6690W        W22499  17.266  13.212   2.520 -0.1036 -0.0746 -0.1788
 6691W        W22500  18.548  16.121  15.483 -0.0127 -0.1426  0.2683
 6692W        W22501  13.379   1.430  14.839  0.2055  0.0371 -0.1437
 6693W        W22502   1.024   5.377   4.909  0.0220  0.0371  0.1198
 6694W        W22503  15.402   1.332  13.658 -0.0502 -0.0953 -0.0122
 6695W        W22504   0.746   8.306  15.199 -0.1349 -0.0008  0.3981
 6696W        W22505   0.360   2.667  15.205  0.1977 -0.3325 -0.3148
 6697W        W22506  17.540   0.001  11.051  0.0674 -0.2367  0.2029
 6698W        W22507   6.239   8.881   0.227 -0.2244  0.0443 -0.1636
 6699W        W22508  14.773   6.426  12.985 -0.0218 -0.0043  0.1748
 6700W        W22509  11.904  18.577   1.742  0.0232 -0.1252 -0.0418
 6701W        W22510  14.617   2.754   9.820 -0.1151 -0.0351  0.1548
 6702W        W22511  11.489   9.754   5.182  0.0706 -0.0608 -0.1410
 6703W        W22512   3.423  14.731   2.793 -0.0756 -0.1569  0.3018
 6704W        W22513   2.162  15.948   4.679  0.1364  0.0989  0.1550
 6705W        W22514  16.977  13.194  11.447  0.2392 -0.0948  0.0074
 6706W        W22515  14.272  13.842  14.148 -0.0665  0.3165  0.0557
 6707W        W22516  16.065   0.961   0.548 -0.2146  0.1270 -0.3241
 6708W        W22517  15.321  17.721  11.061  0.0828  0.2819 -0.0533
 6709W        W22518  13.215   9.158  12.654  0.0837  0.3892  0.1083
 6710W        W22519  16.934   8.520  15.290 -0.3060 -0.0332  0.2555
 6711W        W22520  17.864  10.623   4.301 -0.0148  0.0149 -0.0374
 6712W        W22521  14.408   5.381   2.167  0.0882  0.2025 -0.2258
 6713W        W22522   9.324  13.516  14.590  0.2108 -0.0523 -0.0591
 6714W        W22523  17.346   3.622  12.410  0.0259  0.0894  0.0733
 6715W        W22524  17.077  11.227  11.662 -0.0609 -0.1596 -0.0918
 6716W        W22525   3.515  11.218  12.670 -0.0836  0.0064 -0.1537
 6717W        W22526   5.971  10.265   0.439  0.2077 -0.0260 -0.2219
 6718W        W22527   1.928   4.385   0.780 -0.0570  0.1777  0.2183
 6719W        W22528  10.752   1.335   5.644  0.0448  0.1919  0.0568
 6720W        W22529   2.554   3.321  14.917 -0.0109  0.0825  0.1519
 6721W        W22530   8.860   3.312  12.966  0.0031  0.3644 -0.1256
 6722W        W22531  17.592   5.823   1.741 -0.1349  0.2983  0.1115
 6723W        W22532  16.617   6.787   0.527 -0.3025 -0.1363 -0.1633
 6724W        W22533  11.698  11.461   2.225  0.2541  0.1035  0.1092
 6725W        W22534  11.906   6.566   5.574 -0.0671  0.1050 -0.2215
 6726W        W22535  13.442  13.757  12.669 -0.1580  0.2371 -0.0087
 6727W        W22536  15.928  15.882  12.105  0.1478  0.0081 -0.0831
 6728W        W22537   4.946  14.154  13.686 -0.1592  0.1070 -0.0218
 6729W        W22538   2.074   0.188   4.383 -0.3731  0.0429  0.0797
 6730W        W22539   7.238  13.505  13.969  0.2290 -0.0818 -0.2230
 6731W        W22540  14.178  15.564   5.169 -0.0141  0.2224 -0.0354
 6732W        W22541  11.205  17.095   0.384 -0.0422 -0.2877  0.0830
 6733W        W22542   7.865  17.701   2.455  0.1091  0.0760 -0.0221
 6734W        W22543   5.615  15.850  11.904 -0.0795 -0.0683  0.1342
 6735W        W22544  10.171  17.513  11.997 -0.2055  0.1152  0.2199
 6736W        W22545  18.301   7.267  13.204  0.0285  0.1146  0.1470
 6737W        W22546  16.028   8.759  14.669  0.0415 -0.0387  0.0540
 6738W        W22547  15.893  14.901  13.180 -0.4445 -0.2021  0.1476
 6739W        W22548   2.342   8.815   3.427  0.3488  0.0135  0.1737
 6740W        W22549  13.013  12.722   0.373 -0.2427 -0.0179  0.0802
 6741W        W22550  17.438  17.097   1.341 -0.0273 -0.2396 -0.1850
 6742W        W22551   3.430  13.352  13.809 -0.1137 -0.0703 -0.2639
 6743W        W22552  17.886  15.024  14.223 -0.1091 -0.0157 -0.1792
 6744W        W22553   7.579  14.313   2.734  0.1308 -0.0185 -0.2447
 6745W        W22554   0.576   7.771   0.045 -0.1661 -0.1871 -0.1170
 6746W        W22555  18.572   0.307  10.388  0.0804 -0.0532 -0.1866
 6747W        W22556  18.260   9.511  10.733  0.1414 -0.1071 -0.0525
 6748W        W22557  14.976  13.042   5.367  0.0813 -0.1966 -0.1266
 6749W        W22558   8.224  15.264   1.566  0.1474 -0.2655 -0.1628
 6750W        W22559   0.968   6.753  12.314  0.0916  0.4280  0.2170
 6751W        W22560  15.694   5.082   1.535 -0.0024 -0.1022  0.2748
 6752W        W22561   7.327   9.411  10.365  0.2314 -0.0029  0.1997
 6753W        W22562   7.503   0.753  12.057  0.2065 -0.0171  0.4152
 6754W        W22563   2.562  17.207   3.794 -0.0517  0.0619  0.0565
 6755W        W22564   1.151   9.836   5.011  0.0412 -0.0420  0.1508
 6756W        W22565   0.413   1.281  13.253  0.2251 -0.3770  0.0858
 6757W        W22566  12.581  11.056   4.965  0.2545 -0.0939 -0.2284
 6758W        W22567   9.784   9.651  14.906  0.3555  0.3817 -0.1453
 6759W        W22568   9.213  11.584  15.325  0.0715 -0.2263  0.2518
 6760W        W22569   3.875   6.673   4.607 -0.3251  0.0501  0.0991
 6761W        W22570  10.366   5.773  11.484  0.0633  0.3256  0.0780
 6762W        W22571   7.739  17.236  10.913  0.0168  0.0803 -0.0890
 6763W        W22572   9.726   3.504  14.295 -0.0136 -0.1546 -0.0628
 6764W        W22573  15.537  13.321   3.124  0.2466  0.1950 -0.1216
 6765W        W22574  15.292   8.404   5.576  0.0233  0.3135  0.1372
 6766W        W22575  13.489   8.263   3.648  0.0299  0.0807 -0.2746
 6767W        W22576   6.545   0.458   0.374 -0.0227 -0.1183  0.3143
 6768W        W22577   8.140  13.140  13.860 -0.3888 -0.1166  0.1487
 6769W        W22578   6.990  10.490   3.419  0.0959 -0.0479  0.1282
 6770W        W22579   9.644   8.432  13.123 -0.2067 -0.0263  0.0863
 6771W        W22580   9.406   1.821  11.520  0.0012  0.2282 -0.1563
 6772W        W22581  18.729  12.798   1.849  0.0020  0.0432 -0.0418
 6773W        W22582   4.050  17.292   5.364  0.1393  0.1191  0.0303
 6774W        W22583  16.375  10.175   1.005 -0.0431 -0.3288  0.0696
 6775W        W22584   6.728   8.882  14.518  0.1465 -0.0047 -0.2062
 6776W        W22585  10.208   9.601   3.829 -0.0590 -0.0084 -0.2415
 6777W        W22586  18.737  17.869   5.857  0.0195 -0.4472 -0.3055
 6778W        W22587   8.977   6.011   4.161 -0.0405  0.2542 -0.3944
 6779W        W22588  15.823   0.836  14.462 -0.0156  0.0956 -0.3467
 6780W        W22589  11.586   0.603   3.179  0.0420  0.1341  0.0998
 6781W        W22590  12.993  15.643   2.831 -0.2723 -0.1963  0.0631
 6782W        W22591   2.028   5.076  12.697 -0.0238  0.2156  0.1425
 6783W        W22592  11.721  12.627  12.594  0.1229 -0.2497  0.0836
 6784W        W22593  10.012  16.358  10.585 -0.4096 -0.1491 -0.3824
 6785W        W22594   3.195  11.190   3.125 -0.2949  0.0478  0.3082
 6786W        W22595   7.766   0.095   0.478 -0.0099  0.0478 -0.0051
 6787W        W22596  16.754   9.150  14.229 -0.0621  0.0412 -0.2525
 6788W        W22597   9.745   9.005   1.421 -0.0981 -0.1795  0.2765
 6789W        W22598   5.148   4.190   0.045  0.3557  0.1140  0.1388
 6790W        W22599   6.374  14.751  14.107 -0.1569  0.0627 -0.2684
 6791W        W22600   3.470  16.572  13.019  0.1313 -0.0574  0.0819
 6792W        W22601   6.362   1.480   4.933 -0.2716 -0.2067 -0.0618
 6793W        W22602  12.606  10.736  12.071 -0.0413 -0.2794  0.0968
 6794W        W22603   8.807   9.871   4.535  0.3178  0.0617  0.2361
 6795W        W22604  13.805   3.676   4.764  0.1237 -0.2677 -0.2733
 6796W        W22605  12.307   3.834   0.450  0.0478  0.1263  0.1471
 6797W        W22606   7.752  12.362  14.741 -0.1114  0.0223 -0.0221
 6798W        W22607  13.342   6.706  11.656  0.0011  0.0406  0.0504
 6799W        W22608   3.776   1.024  10.572 -0.0891  0.0463 -0.2983
 6800W        W22609   3.850   7.069   1.040 -0.1179  0.0678  0.0866
 6801W        W22610   8.682  18.512   0.152  0.1164  0.1009  0.0134
 6802W        W22611  14.703   7.752   1.584  0.2197 -0.6031 -0.0763
 6803W        W22612  16.675  18.618   2.974 -0.0163 -0.1782  0.2265
 6804W        W22613  10.199  15.020  14.603 -0.1865 -0.2796 -0.1100
 6805W        W22614  13.161   2.172  11.559 -0.0010  0.2645 -0.2889
 6806W        W22615   8.037  12.126  13.955 -0.0265  0.1553 -0.2281
 6807W        W22616  13.725  18.430   0.766 -0.0335 -0.0738  0.0490
 6808W        W22617   0.592   9.739   5.170  0.0157 -0.2102 -0.0447
 6809W        W22618   3.839   5.427  14.303 -0.1167 -0.4095  0.1846
 6810W        W22619   1.762   5.903  12.937 -0.1255  0.2915  0.1460
 6811W        W22620   7.635   8.976  13.269 -0.0022 -0.0567 -0.0964
 6812W        W22621  14.790  15.272   1.323 -0.1701 -0.3534 -0.2049
 6813W        W22622  16.602  14.004   3.603  0.0317 -0.0067  0.3776
 6814W        W22623   3.745   2.230  12.880 -0.2128  0.3811  0.0721
 6815W        W22624   6.917   2.989   0.699  0.1761  0.0635 -0.3610
 6816W        W22625  18.092   4.771  11.217 -0.2998 -0.0133 -0.4082
 6817W        W22626   9.927   4.741  15.503  0.0865  0.1624 -0.0290
 6818W        W22627   9.280   3.046   1.353 -0.1998  0.0364 -0.1285
 6819W        W22628   7.010   2.177  10.491 -0.0693  0.0773  0.2591
 6820W        W22629  17.752   5.611  12.636 -0.0051  0.0299  0.0943
 6821W        W22630   0.130  14.062   1.439  0.1988 -0.0673  0.4066
 6822W        W22631   9.139  15.137  10.684 -0.1634 -0.1035 -0.0641
 6823W        W22632   7.226  10.683   4.880 -0.1239 -0.0906 -0.0530
 6824W        W22633   1.233   3.157   1.897 -0.2692  0.0165  0.1971
 6825W        W22634  17.907  18.092   2.367  0.2801 -0.0665  0.1933
 6826W        W22635  12.437   0.564   4.161 -0.2014  0.1921  0.4372
 6827W        W22636   0.396  15.645   4.390  0.0648  0.3062  0.0840
 6828W        W22637   6.856  15.951   9.570 -0.2869  0.2002 -0.2718
 6829W        W22638  13.223   8.769   4.728 -0.0633  0.1029  0.0716
 6830W        W22639   7.521   2.865   0.009  0.3180 -0.1287  0.0093
 6831W        W22640  12.018   6.758   2.319  0.0909 -0.0550 -0.0882
 6832W        W22641  11.575  15.371  11.972  0.2161  0.0487 -0.1795
 6833W        W22642   9.889   6.170  14.664  0.1644 -0.3481 -0.3789
 6834W        W22643  10.435   8.037  14.534  0.0996 -0.3835 -0.0295
 6835W        W22644  18.171   3.143   5.143 -0.0203  0.0524 -0.2780
 6836W        W22645  18.125   5.039   3.175  0.0255  0.2390 -0.2128
 6837W        W22646   2.785  12.021  10.380 -0.1987  0.0778 -0.2297
 6838W        W22647  13.523   9.686   0.994  0.3030  0.1077 -0.0794
 6839W        W22648   0.572   0.162   4.108  0.0728 -0.1072 -0.0459
 6840W        W22649  15.024   2.260  15.531  0.3178  0.1006  0.0764
 6841W        W22650  14.387  11.324   2.244 -0.0089  0.0080  0.1247
 6842W        W22651  13.216  13.535   1.853 -0.0597 -0.1579 -0.0410
 6843W        W22652   0.162   1.554   3.018  0.2691 -0.0514  0.1540
 6844W        W22653   9.134  15.345   0.797  0.1045 -0.0904  0.0404
 6845W        W22654   8.105  17.858   5.289  0.0458  0.2112  0.3940
 6846W        W22655  14.869  12.559   3.485  0.0361 -0.1255 -0.5126
 6847W        W22656   2.546  11.805  11.719 -0.0854 -0.0194 -0.1665
 6848W        W22657   4.320   6.051   1.056 -0.2405  0.0759  0.0823
 6849W        W22658  17.995  18.750   1.376 -0.3157  0.0549 -0.3566
 6850W        W22659   2.243   6.900  12.441 -0.1551  0.0845 -0.5430
 6851W        W22660   2.641   9.500  13.684  0.4007 -0.0501  0.2007
 6852W        W22661   7.477   9.926   2.634  0.1607  0.0377 -0.2825
 6853W        W22662   7.944   9.650  11.709  0.0711  0.0118 -0.1205
 6854W        W22663   1.657  10.615   2.015 -0.1887 -0.0559  0.0682
 6855W        W22664   7.887   3.736  12.055 -0.1133  0.1063  0.1357
 6856W        W22665   6.467   4.241   4.926  0.1680 -0.1999  0.1596
 6857W        W22666   6.918  14.467  11.222 -0.0592 -0.0731  0.0001
 6858W        W22667  10.670   9.108   3.130 -0.0915 -0.3275 -0.0642
 6859W        W22668  18.219   2.353  14.926 -0.1918  0.1460  0.1869
 6860W        W22669   4.351   2.131   5.242  0.1176  0.5906 -0.2730
 6861W        W22670   5.662  13.903   0.101 -0.0135 -0.2680 -0.1235
 6862W        W22671  17.104   4.639   3.694  0.2294 -0.2004  0.2582
 6863W        W22672  16.741   3.004   5.168  0.0924  0.0457 -0.2099
 6864W        W22673  12.977  15.412  15.403  0.3025  0.2000 -0.2417
 6865W        W22674  15.879   7.395   5.205  0.1161  0.2596  0.2775
 6866W        W22675  18.083   8.007   3.095 -0.0041  0.1687 -0.0498
 6867W        W22676  15.239  16.503   0.306  0.1121 -0.1248 -0.1255
 6868W        W22677   7.179   4.653  11.800 -0.3622 -0.0915  0.1123
 6869W        W22678   7.756  17.289   3.160 -0.2332 -0.1949 -0.1490
 6870W        W22679  17.156   6.268  15.384 -0.3323  0.1438 -0.0703
 6871W        W22680   5.159   1.036  10.884  0.3003  0.0152 -0.1326
 6872W        W22681  16.440  11.976   5.180  0.1463  0.1213  0.3142
 6873W        W22682   9.909  10.782  12.866  0.0086  0.2339  0.0786
 6874W        W22683  10.599  15.775   2.666  0.1186  0.2700 -0.2309
 6875W        W22684   4.770   9.654   5.358  0.4013  0.1163 -0.1718
 6876W        W22685   9.839  14.863   2.721  0.1613 -0.0437 -0.0965
 6877W        W22686   1.792   8.876   3.348 -0.3426  0.2249  0.1073
 6878W        W22687   1.563  12.493  15.456  0.1202 -0.0665  0.1312
 6879W        W22688   4.455  13.725   2.237 -0.1778  0.1207  0.0848
 6880W        W22689   7.546   2.577   5.596 -0.0385  0.4517  0.3677
 6881W        W22690   7.251   2.364  12.489 -0.0983  0.2147 -0.0089
 6882W        W22691  10.594   8.595   3.603  0.1022 -0.1055  0.1980
 6883W        W22692   5.950  14.677  10.338  0.1983 -0.0790 -0.0907
 6884W        W22693   2.764  14.110   1.303 -0.5636 -0.1384 -0.0518
 6885W        W22694   8.125   5.790   0.920 -0.0659 -0.0201  0.1112
 6886W        W22695  14.800  17.637   0.766  0.1318 -0.2509 -0.2244
 6887W        W22696   4.289   1.744   0.335  0.3425 -0.5501  0.2055
 6888W        W22697   6.941   7.109   0.885 -0.0773  0.2632 -0.0067
 6889W        W22698  12.744   9.406   5.646  0.1364  0.0100 -0.1110
 6890W        W22699  13.734   1.651  12.198  0.2052 -0.0550  0.3656
 6891W        W22700  14.034   6.941  13.529  0.0412 -0.0741  0.1296
 6892W        W22701   1.194  10.636  13.936  0.1091  0.0514  0.3742
 6893W        W22702   7.787   4.879   5.150 -0.1126  0.1856 -0.3037
 6894W        W22703   9.723  12.841  15.328  0.0680  0.2153  0.1266
 6895W        W22704  14.272  11.871  13.853 -0.1649 -0.1922 -0.2019
 6896W        W22705   7.210  12.760  12.525 -0.1876 -0.1234  0.1121
 6897W        W22706  11.091  14.263   4.330  0.1443 -0.1271 -0.2070
 6898W        W22707   6.702  16.094   4.251  0.2454  0.1662 -0.0586
 6899W        W22708   2.176   0.567  13.832 -0.5899 -0.1159  0.2174
 6900W        W22709   8.047  10.344  10.926 -0.0410  0.0992 -0.0016
 6901W        W22710  17.773   3.488  11.146 -0.3370 -0.2270  0.2358
 6902W        W22711   2.244  13.064  14.521 -0.3281  0.3149  0.0408
 6903W        W22712  12.751   6.348  14.482 -0.1563 -0.2941  0.0668
 6904W        W22713  12.098   8.709   4.695 -0.1371 -0.2190 -0.0617
 6905W        W22714  12.359  12.548  14.976  0.1445  0.1670 -0.0443
 6906W        W22715  12.036   6.416   0.070  0.1111 -0.0620 -0.0565
 6907W        W22716  16.785  16.123   4.166  0.0445 -0.0000  0.5798
 6908W        W22717   5.804  18.134  14.476 -0.4189 -0.3432  0.2929
 6909W        W22718  14.118  14.396  15.532  0.1459  0.3477  0.1920
 6910W        W22719   4.551   5.007   0.998 -0.1223 -0.0371 -0.1821
 6911W        W22720  17.800   6.867  11.757  0.0724 -0.0938  0.2145
 6912W        W22721   5.791  13.412  14.383 -0.1361  0.1885 -0.0855
 6913W        W22722   0.838  10.554  12.109 -0.1189 -0.0227 -0.1336
 6914W        W22723  17.924   1.933   0.100 -0.1341 -0.0929  0.1823
 6915W        W22724  17.387   4.951   1.290  0.0740 -0.2116 -0.1270
 6916W        W22725   4.723  11.213  13.958 -0.3272  0.0708 -0.0147
 6917W        W22726  16.000  13.206  12.158 -0.2920  0.4384  0.3590
 6918W        W22727  14.016   3.738  15.349  0.0343  0.0505 -0.2399
 6919W        W22728   1.925  10.467   0.517  0.1982 -0.4021  0.1620
 6920W        W22729  17.372  10.205  12.076  0.3432 -0.2103  0.2041
 6921W        W22730  13.882  16.093  12.785  0.3432  0.2556  0.1399
 6922W        W22731   4.238   1.300   4.451  0.4192  0.1145 -0.1824
 6923W        W22732  14.698  12.909   2.251  0.0429  0.0337 -0.2124
 6924W        W22733  16.581  15.097   4.890  0.1359 -0.0513 -0.3484
 6925W        W22734   9.137   8.795  11.509  0.1974 -0.1535 -0.1098
 6926W        W22735   5.075  12.773  15.394 -0.0564 -0.1792  0.0951
 6927W        W22736  13.875   0.900  12.440  0.5110 -0.2923 -0.0610
 6928W        W22737   8.786   0.534   0.721 -0.0473 -0.0923  0.0733
 6929W        W22738  11.460   2.889   4.798 -0.1108 -0.1656 -0.0766
 6930W        W22739   7.116  13.087   1.045 -0.4498  0.0415  0.2732
 6931W        W22740  17.617   9.588   1.823  0.0175  0.2687 -0.0533
 6932W        W22741   9.645   1.929  14.064 -0.4510 -0.3701 -0.4567
 6933W        W22742  17.015   7.940  11.908 -0.3359 -0.0837  0.1893
 6934W        W22743  11.846  13.167  15.385 -0.3103  0.0007  0.1534
 6935W        W22744  12.374  14.221  11.817  0.1156 -0.0562 -0.1854
 6936W        W22745  11.969  17.486  11.526  0.0360 -0.1111  0.0251
 6937W        W22746  16.446  15.268   2.292  0.2305  0.1407  0.2036
 6938W        W22747  12.496  15.268  14.540  0.1193  0.0597  0.1148
 6939W        W22748  12.793   1.034  12.961 -0.1834 -0.1968  0.2186
 6940W        W22749  12.046   5.119  12.684  0.0565  0.2403  0.1831
 6941W        W22750  14.565  13.974  15.032  0.1251  0.0975 -0.0447
 6942W        W22751  12.796   9.368   3.336 -0.1097  0.0221  0.0729
 6943W        W22752   7.813   0.267   4.517  0.2530  0.3127  0.2655
 6944W        W22753  14.265   0.952  14.213  0.2619  0.0706 -0.2598
 6945W        W22754  13.055  13.162  14.662  0.0460 -0.0572 -0.0180
 6946W        W22755  12.988  10.528  11.835 -0.1275 -0.2289  0.2727
 6947W        W22756   1.259   8.404  11.519  0.0775  0.0735  0.1281
 6948W        W22757   5.715   9.434  13.206  0.1723  0.2795 -0.2290
 6949W        W22758  10.699   9.818  15.241  0.0144  0.1275 -0.2251
 6950W        W22759  14.688   8.719   3.188  0.2217 -0.2376  0.3961
 6951W        W22760   1.081   0.714   1.695 -0.0478  0.1668  0.2069
 6952W        W22761  13.121  16.124   5.708  0.0168 -0.0200 -0.0057
 6953W        W22762   9.143   1.982   2.997 -0.0543 -0.2216 -0.1950
 6954W        W22763  10.209   7.188   1.995  0.2299  0.2364 -0.2842
 6955W        W22764  16.538  13.378   1.793 -0.0727 -0.2255 -0.0945
 6956W        W22765  14.734  16.349   3.235 -0.3210 -0.0415  0.0993
 6957W        W22766   7.083  14.771   4.421 -0.0583  0.1613  0.0568
 6958W        W22767  11.173  14.997   3.566 -0.0546 -0.1593  0.2299
 6959W        W22768   0.464  13.891   1.772  0.1031  0.2087  0.1252
 6960W        W22769  11.928   9.575   4.813 -0.3000 -0.1897  0.3346
 6961W        W22770   9.856  13.696  13.225  0.2943 -0.3566 -0.0877
 6962W        W22771  10.279  13.242  11.945 -0.0762  0.1289 -0.0139
 6963W        W22772   6.958  11.852   0.471  0.0395  0.2324  0.1734
 6964W        W22773  11.694   6.804  15.265 -0.0180  0.1317  0.2641
 6965W        W22774  16.708   6.876  12.859 -0.0860  0.3250 -0.1361
 6966W        W22775   0.636  15.193   4.442  0.4515  0.2192  0.1241
 6967W        W22776  15.559   4.219   1.046  0.3329 -0.0804  0.1644
 6968W        W22777  10.466   7.129   3.150  0.1509 -0.0159  0.0971
 6969W        W22778  18.368   5.041  11.621 -0.2724  0.3106  0.3435
 6970W        W22779  10.196   3.962  11.205  0.1120 -0.1443  0.1815
 6971W        W22780  15.546   0.709   5.802 -0.0063 -0.0772  0.0318
 6972W        W22781  13.607   1.330   0.870  0.0528 -0.2485 -0.1289
 6973W        W22782   4.604   2.746  13.826  0.1477  0.0902  0.4071
 6974W        W22783  13.902  12.033   3.808 -0.0901  0.2263  0.2112
 6975W        W22784  15.427  17.983   4.248  0.1832 -0.2087  0.1979
 6976W        W22785  14.260   9.421   1.306  0.1965  0.1881  0.0099
 6977W        W22786   5.314  11.969  12.986  0.0568  0.0297  0.0255
 6978W        W22787  12.731  16.346   4.463 -0.0115 -0.2630  0.2709
 6979W        W22788   4.758   2.033   2.347  0.2019 -0.1376  0.1620
 6980W        W22789  17.275   4.313  11.223  0.0158  0.2800 -0.3261
 6981W        W22790   1.740  15.341   9.164  0.0250 -0.2042 -0.1799
 6982W        W22791  12.553   1.148   0.309  0.1534 -0.1007  0.2598
 6983W        W22792   5.033  18.483  13.938  0.1634  0.7312 -0.1859
 6984W        W22793   8.993   8.815   2.581  0.0679 -0.0336  0.1741
 6985W        W22794  12.102  11.394   1.263 -0.1005  0.0264 -0.0897
 6986W        W22795  10.368  12.412   0.005  0.0632 -0.0334 -0.3661
 6987W        W22796   1.588  13.284   2.971 -0.2834 -0.0940  0.1960
 6988W        W22797  15.700  13.242  10.980  0.2200  0.1808  0.2093
 6989W        W22798  13.613   5.051   2.503  0.0079 -0.2490  0.1001
 6990W        W22799   0.589   2.418   4.413 -0.6348 -0.0673  0.1392
 6991W        W22800  13.995  14.810   0.794  0.0842 -0.1229 -0.1302
 6992W        W22801   8.137   7.472  12.479  0.0694  0.4630 -0.0678
 6993W        W22802   6.844  15.837  11.396  0.2735  0.3010 -0.2850
 6994W        W22803  11.715  18.373   3.929 -0.0074  0.0305 -0.1197
 6995W        W22804   9.952  17.819  11.381 -0.1411 -0.2142 -0.0372
 6996W        W22805  10.233   1.840   4.702  0.0247 -0.0826 -0.4757
 6997W        W22806   6.022   7.545   3.971  0.0938 -0.0769  0.3902
 6998W        W22807  13.527  16.092   3.800  0.2411 -0.2462 -0.2365
 6999W        W22808   3.210  16.189  11.581 -0.1659 -0.0636  0.2884
 7000W        W22809  11.782  17.901   5.305 -0.3621 -0.2852  0.1530
 7001W        W22810  11.168   7.660  11.581 -0.1157 -0.3801 -0.1659
 7002W        W22811   3.319  12.131  13.785 -0.0718 -0.4598 -0.2247
 7003W        W22812   1.674   4.269  10.815 -0.5168 -0.2545  0.0924
 7004W        W22813   0.842   2.454  11.264 -0.2569  0.1685 -0.2884
 7005W        W22814  16.079  13.349  13.305  0.1506  0.1932 -0.0188
 7006W        W22815   1.314   9.054   0.467  0.3282  0.2203  0.2867
 7007W        W22816  18.105   4.341   5.905  0.1797 -0.1771  0.4059
 7008W        W22817  14.437  10.011  14.423 -0.2723 -0.1360 -0.2905
 7009W        W22818   8.696  17.720   2.079  0.0009  0.2553  0.2262
 7010W        W22819   5.142  10.439  12.301 -0.2192 -0.3027  0.1846
 7011W        W22820  14.833  13.296   3.777  0.1905 -0.0428 -0.2520
 7012W        W22821   4.282   2.543  15.270 -0.1621  0.2120  0.1360
 7013W        W22822   7.974  11.444   3.495  0.0982 -0.1880 -0.2543
 7014W        W22823   3.283   4.813  11.351 -0.2892 -0.1824  0.0393
 7015W        W22824   9.172   7.438   0.859  0.2182 -0.0597 -0.0161
 7016W        W22825   3.859  12.808  13.550 -0.0845  0.2417  0.1152
 7017W        W22826   2.261   4.331   4.532  0.0939  0.2117 -0.1588
 7018W        W22827   1.354  18.328   0.195  0.1529 -0.0039 -0.0358
 7019W        W22828   7.417  11.569  13.167 -0.2241  0.0315 -0.1998
 7020W        W22829   3.556  17.350   4.042  0.1675 -0.0116 -0.1484
 7021W        W22830  18.514  11.977  14.822 -0.0407 -0.2194  0.0043
 7022W        W22831   6.438  11.574  15.263  0.1526 -0.0160  0.1107
 7023W        W22832  14.609   5.444   0.544  0.0022  0.1310 -0.2685
 7024W        W22833   3.229  13.518   3.640  0.0728  0.0696 -0.1187
 7025W        W22834   0.623  14.256   2.116 -0.1657  0.1121  0.0467
 7026W        W22835   7.614  17.839  12.729  0.1305  0.2741  0.0852
 7027W        W22836  10.025   2.715  13.639 -0.2341 -0.1484 -0.2311
 7028W        W22837  18.486   8.518   0.678  0.2806 -0.1807  0.3934
 7029W        W22838   9.696   3.186  11.439 -0.0049  0.0559 -0.0907
 7030W        W22839   3.931  17.388   0.406 -0.1089 -0.1432  0.0684
 7031W        W22840   9.219   8.164  14.364  0.1378  0.0979  0.1734
 7032W        W22841  12.790  11.243   0.845  0.0389 -0.3981  0.0057
 7033W        W22842   1.908  11.869  12.654 -0.3765 -0.0075 -0.0422
 7034W        W22843   6.345   2.003   1.798  0.2628 -0.2097 -0.1098
 7035W        W22844  18.623   1.944   0.882 -0.2548 -0.0729 -0.0959
 7036W        W22845  10.003  15.556   0.108  0.1819 -0.2483  0.0901
 7037W        W22846   5.606  17.581   4.118 -0.2607  0.0183 -0.2887
 7038W        W22847  15.007   2.027  12.785 -0.0171 -0.0756 -0.1052
 7039W        W22848  16.500  13.360   4.678 -0.0078  0.0643  0.0023
 7040W        W22849   3.945  15.429   0.777  0.1445  0.1647 -0.1304
 7041W        W22850   9.515   0.984  15.175 -0.1064  0.0362  0.3285
 7042W        W22851   6.940   7.737   4.551  0.1189 -0.0345 -0.0732
 7043W        W22852  18.027  16.775  14.267 -0.2679 -0.4326 -0.3615
 7044W        W22853  14.687  10.318  13.650 -0.2779 -0.0707  0.0126
 7045W        W22854   1.484  14.075  13.744 -0.2329 -0.0355 -0.2050
 7046W        W22855   7.115  11.315   2.316 -0.2051  0.0157 -0.1813
 7047W        W22856   5.086   2.368   0.564  0.1417 -0.0754  0.0642
 7048W        W22857   3.078   8.841   0.671  0.0222  0.1506  0.2696
 7049W        W22858  17.047  10.127   4.539 -0.3220  0.0237 -0.1477
 7050W        W22859   8.601  10.115  11.134  0.1964 -0.0620 -0.1974
 7051W        W22860   9.599  12.503  11.359 -0.3296 -0.3318 -0.0910
 7052W        W22861   2.017  16.666  14.173  0.0265  0.2448  0.0608
 7053W        W22862   2.219  18.459   0.309 -0.0174  0.0681 -0.0196
 7054W        W22863   9.614  11.172   0.668  0.0380 -0.1091  0.1451
 7055W        W22864   5.923  16.414  14.192  0.0260  0.2936 -0.2265
 7056W        W22865   8.045  16.679  11.905  0.1290  0.0620  0.2478
 7057W        W22866   9.255   0.664   0.808  0.0163  0.4791  0.1814
 7058W        W22867   2.725   2.282   5.045 -0.1567 -0.3175 -0.0635
 7059W        W22868   0.232   3.289   1.045  0.2881 -0.0842  0.0574
 7060W        W22869   7.253  14.647   9.659 -0.0291  0.0405  0.2845
 7061W        W22870  11.179  10.203  14.481 -0.1050  0.2274 -0.1362
 7062W        W22871   2.496   1.905  13.571 -0.0124  0.1811 -0.1294
 7063W        W22872   0.530   8.514   0.041  0.0390  0.1373 -0.1408
 7064W        W22873  16.971  13.642  13.857  0.1961  0.1324 -0.2593
 7065W        W22874   2.624   7.438   0.529  0.0654 -0.4453  0.0453
 7066W        W22875   3.953   5.298  14.784 -0.0151  0.2934 -0.2157
 7067W        W22876  11.344   5.111   3.760  0.3198  0.1142 -0.0447
 7068W        W22877   1.678   8.956   5.767  0.0145  0.0499  0.0387
 7069W        W22878  16.946   6.038  14.973  0.2117  0.0156 -0.0237
 7070W        W22879  12.372   8.627   0.996  0.0608  0.1766 -0.1649
 7071W        W22880   6.208   4.993  10.829  0.2335 -0.2127 -0.0758
 7072W        W22881  14.536  11.383  10.454 -0.0134 -0.1903 -0.0231
 7073W        W22882  15.720   9.297   1.477  0.0100  0.1901  0.0893
 7074W        W22883   8.134  17.892  11.302 -0.0593  0.1584  0.2860
 7075W        W22884  14.326   4.899   3.837  0.1867 -0.4662  0.0886
 7076W        W22885   2.339   9.323   0.271 -0.1631 -0.2004  0.0350
 7077W        W22886   1.544  13.483  10.909 -0.3839  0.4992 -0.2140
 7078W        W22887  12.125   4.370  13.798  0.2561 -0.2671 -0.0230
 7079W        W22888  15.645  12.457   4.484 -0.2448 -0.4001  0.3496
 7080W        W22889   8.757  12.805   0.313  0.1246 -0.0658 -0.1045
 7081W        W22890   7.929  11.857   2.243 -0.1290 -0.0532  0.0798
 7082W        W22891  11.138  11.631  12.815 -0.1853 -0.0544 -0.3356
 7083W        W22892   6.705  14.373  14.860 -0.4387 -0.0340  0.2516
 7084W        W22893  15.493   5.243  10.846 -0.2037 -0.3655  0.0436
 7085W        W22894   9.629  14.036   3.093  0.1907 -0.3520  0.3469
 7086W        W22895   4.192   4.509  14.266 -0.0673  0.0986 -0.0623
 7087W        W22896  14.823  13.971  13.357 -0.0216 -0.1055 -0.0886
 7088W        W22897   7.143   5.046   2.158 -0.1798 -0.0044 -0.0903
 7089W        W22898  12.758   5.898  14.250 -0.0865 -0.5798 -0.3286
 7090W        W22899  10.280  12.768   3.986 -0.1488  0.2674 -0.0612
 7091W        W22900   8.232   1.464  11.981 -0.3056  0.0616 -0.2661
 7092W        W22901   2.473   0.556  10.747  0.0038 -0.1497  0.1667
 7093W        W22902   9.627   7.181  12.242 -0.0991 -0.3467 -0.2008
 7094W        W22903   9.181   9.503  14.096 -0.0703  0.0936 -0.2768
 7095W        W22904  11.919  13.685   3.679  0.0710  0.2799  0.0011
 7096W        W22905  15.864  15.219  14.218 -0.0774 -0.1511  0.0888
 7097W        W22906   8.975  17.600  14.700 -0.4118 -0.4144  0.4695
 7098W        W22907   2.075  10.704   0.957 -0.0827  0.1515 -0.0449
 7099W        W22908   3.537   0.663   5.387 -0.0390 -0.1116  0.0256
 7100W        W22909  16.071   4.840  13.420 -0.0506  0.3343  0.2934
 7101W        W22910   8.904   3.336  13.954 -0.2093  0.0932 -0.2073
 7102W        W22911   7.072   9.776  10.698  0.2364  0.0285  0.0678
 7103W        W22912   0.826   5.811  11.271  0.2492  0.1103 -0.4110
 7104W        W22913   9.312  12.386   3.603 -0.1994 -0.3180 -0.0934
 7105W        W22914   7.005   8.131  13.743  0.1493  0.1370  0.1520
 7106W        W22915   9.859   4.784   2.790 -0.2163 -0.2243 -0.0900
 7107W        W22916  16.919  14.179   0.814  0.4276 -0.5161 -0.1077
 7108W        W22917  16.773   6.237   2.707  0.1913 -0.0165  0.0335
 7109W        W22918  16.210  14.102  15.188 -0.2966  0.1299  0.1843
 7110W        W22919  14.315  10.789  14.312  0.0412 -0.1888 -0.3946
 7111W        W22920   8.432  14.520  12.835 -0.0738 -0.2611 -0.0092
 7112W        W22921  10.302   1.298   4.545  0.2094 -0.0602  0.2176
 7113W        W22922  11.882   8.645  14.404 -0.1060  0.0006  0.1446
 7114W        W22923   4.116  16.341   0.617 -0.0708 -0.0766  0.2085
 7115W        W22924  11.371  16.138   1.640 -0.1725  0.2193 -0.3418
 7116W        W22925   7.820  13.710   0.516  0.3087  0.1372  0.2292
 7117W        W22926   8.759   4.402  14.710 -0.2047 -0.1087 -0.0440
 7118W        W22927   3.992   2.928   0.421  0.0683 -0.0418  0.1923
 7119W        W22928  13.954   9.978  13.105  0.0393 -0.1201  0.0295
 7120W        W22929  14.889  11.326   2.066  0.1933 -0.4561  0.0329
 7121W        W22930   1.621   0.105   4.193 -0.0461  0.1954  0.5339
 7122W        W22931   8.813   3.359  15.175  0.2791  0.1902  0.2209
 7123W        W22932   7.068   3.914  13.927 -0.1929  0.2807 -0.2272
 7124W        W22933   3.746  12.209   4.371 -0.1480  0.1395 -0.4073
 7125W        W22934   9.334  16.327  12.667  0.2996 -0.2950 -0.1620
 7126W        W22935  14.977   9.131   4.481  0.1028 -0.0444  0.0560
 7127W        W22936   0.996   2.195   3.526 -0.1675 -0.1082  0.3936
 7128W        W22937  18.231   1.195   3.744  0.2673  0.2059 -0.0215
 7129W        W22938   8.260   8.149   2.689  0.1382 -0.2058 -0.0440
 7130W        W22939   0.064   2.793   1.083  0.1099 -0.2604 -0.0181
 7131W        W22940   7.094   6.155  10.983  0.2427  0.0353  0.0749
 7132W        W22941  13.125   1.809  11.986 -0.0624  0.0457 -0.1606
 7133W        W22942   0.456  11.061  14.343 -0.4648  0.3418 -0.1793
 7134W        W22943   6.217  18.725   1.813 -0.1304 -0.2459  0.1211
 7135W        W22944  12.864   0.765  15.302  0.0133 -0.2637  0.1236
 7136W        W22945  17.003  13.038   1.344  0.0286  0.1298  0.0078
 7137W        W22946   3.024  10.694   2.576 -0.3388  0.3769  0.0679
 7138W        W22947  11.618   7.269  12.503 -0.0432  0.1513 -0.2487
 7139W        W22948   9.419  14.907   2.445  0.1145  0.3382 -0.1589
 7140W        W22949   6.096   5.430   5.180 -0.0454 -0.4192 -0.2032
 7141W        W22950   5.165   0.708   0.441 -0.1407 -0.0625  0.3641
 7142W        W22951  16.343   0.259  14.787  0.1180  0.2749  0.1275
 7143W        W22952   1.542   6.996  10.677  0.0324 -0.1477 -0.2993
 7144W        W22953   6.901  16.290   0.532 -0.3828  0.3504  0.0554
 7145W        W22954   4.146   8.411   2.901  0.1486 -0.0910  0.2210
 7146W        W22955   9.099   8.523   4.178 -0.2806 -0.2520 -0.3291
 7147W        W22956   9.388  14.291  13.744  0.2602 -0.0498  0.2008
 7148W        W22957  14.490   2.542   4.957 -0.0335 -0.0035  0.0459
 7149W        W22958   6.803  13.368   3.884 -0.0719 -0.0272  0.0795
 7150W        W22959  14.658   9.366  12.838 -0.0888 -0.2227 -0.0396
 7151W        W22960  15.469  16.528  10.441  0.4872  0.0019 -0.3923
 7152W        W22961   0.483  10.504   1.526  0.3584 -0.1192  0.1098
 7153W        W22962   6.541   7.363  13.648 -0.1479  0.2546 -0.1128
 7154W        W22963  11.613  18.754  12.272 -0.0120  0.0746 -0.0656
 7155W        W22964  17.740  14.902   2.678 -0.1789 -0.0011  0.2312
 7156W        W22965  11.022   1.986   3.400 -0.1142  0.2480 -0.3355
 7157W        W22966  12.814  12.928   1.999 -0.2933 -0.2673 -0.0232
 7158W        W22967   8.446   1.553  15.481  0.2590 -0.2883 -0.1735
 7159W        W22968   7.344  14.746   0.961 -0.6674  0.1678  0.0746
 7160W        W22969   4.817  16.771  10.295  0.2958  0.3841  0.3020
 7161W        W22970  18.054   6.168  15.019 -0.0097 -0.0330  0.0248
 7162W        W22971   1.249   3.979  15.146 -0.0477 -0.0355 -0.0432
 7163W        W22972   2.475  13.708   1.065  0.0335  0.1631  0.4647
 7164W        W22973  11.309  12.503   1.058 -0.0394 -0.0488  0.2545
 7165W        W22974   4.153   5.054   0.284  0.3079  0.0755  0.1974
 7166W        W22975  10.949   1.534  12.047  0.2144 -0.2143 -0.1878
 7167W        W22976  16.524   1.211   0.686 -0.1754  0.2797  0.1137
 7168W        W22977  12.351   2.452  14.465  0.2505  0.0585 -0.0776
 7169W        W22978   7.072   4.224  15.438  0.0799  0.0421 -0.1340
 7170W        W22979  16.464   9.854  12.728 -0.1390  0.3747 -0.2847
 7171W        W22980   3.707   1.301   4.239 -0.0450  0.0328  0.0598
 7172W        W22981  17.297   7.456  14.089 -0.0117 -0.0312  0.1374
 7173W        W22982  15.207   3.706   3.269  0.1715  0.1830 -0.0268
 7174W        W22983  15.503  14.053  13.199  0.3342 -0.1574 -0.2209
 7175W        W22984   5.040  17.038  15.309 -0.2622  0.1017 -0.3817
 7176W        W22985   5.308   3.276  13.265  0.2050  0.0271 -0.1261
 7177W        W22986   5.046  17.493  11.395 -0.1389 -0.0654  0.1285
 7178W        W22987   7.589  15.548  10.353  0.0361  0.2078 -0.1439
 7179W        W22988  18.561   5.303  15.288  0.2030 -0.0026  0.0654
 7180W        W22989  14.229   8.922   1.532  0.1299 -0.0795 -0.3529
 7181W        W22990   4.046   2.005  12.561  0.2070  0.3646  0.0417
 7182W        W22991   0.500  17.770   1.760 -0.0729  0.2519  0.2391
 7183W        W22992  10.145  11.760  12.237  0.0645 -0.3101  0.0609
 7184W        W22993  10.819  12.720   1.876  0.1013 -0.0947 -0.0620
 7185W        W22994  14.723   3.057   0.552  0.0504 -0.0521 -0.0510
 7186W        W22995   6.740   1.681  14.760 -0.2704  0.2114  0.0078
 7187W        W22996  11.127   8.359  12.763 -0.0860 -0.2255  0.1296
 7188W        W22997   7.274   0.072  13.148 -0.1551 -0.0067 -0.0274
 7189W        W22998  17.598   6.996   3.326  0.1591 -0.1421 -0.2146
 7190W        W22999  16.303   7.583  11.479 -0.2747 -0.1408 -0.3283
 7191W        W23000  11.647  13.129   3.466 -0.1828  0.4115 -0.2095
 7192W        W23001  13.489  12.035  15.003  0.1229 -0.1750  0.1183
 7193W        W23002  15.763   2.713   1.158  0.0377  0.1096 -0.1181
 7194W        W23003   1.706   3.028   4.080  0.0930 -0.0542 -0.2524
 7195W        W23004  11.504   5.142   1.373  0.0939 -0.5023  0.0290
 7196W        W23005   3.183   9.005  13.882  0.0013  0.0956  0.0854
 7197W        W23006  13.330  14.006   1.014  0.0103 -0.0183 -0.0671
 7198W        W23007  13.426   5.925  15.248  0.0053 -0.0832 -0.0384
 7199W        W23008  11.616   1.933  13.409  0.2730  0.0825 -0.1786
 7200W        W23009   7.404   3.771  12.875  0.0687 -0.1891 -0.3506
 7201W        W23010   4.493   6.575   3.701  0.1989  0.1115 -0.2304
 7202W        W23011  15.134   0.761  12.879  0.2358 -0.5284  0.2955
 7203W        W23012   9.688  15.066   4.861  0.0198  0.3610  0.0549
 7204W        W23013   4.704   3.096   5.647 -0.1746  0.3049  0.0332
 7205W        W23014   0.911   2.052   4.169  0.0756  0.0379 -0.0582
 7206W        W23015   9.851   5.504   2.010  0.2334 -0.0815 -0.0601
 7207W        W23016   8.804  18.642   3.468  0.2051  0.0894 -0.0026
 7208W        W23017  11.278   0.369   5.583  0.2878  0.0105 -0.0105
 7209W        W23018   6.429   1.274  12.938  0.1915 -0.0922 -0.1532
 7210W        W23019  11.617   3.269   5.280  0.1971 -0.0955 -0.1245
 7211W        W23020  15.240  18.734   3.750  0.0579 -0.0606 -0.1582
 7212W        W23021   5.156  12.068   2.054  0.0688 -0.1182 -0.1877
 7213W        W23022  16.144  13.103   0.029  0.1099  0.0841  0.1716
 7214W        W23023  18.721  10.041   0.820 -0.2415  0.0516 -0.3498
 7215W        W23024   2.021  18.366   2.624 -0.0462 -0.1320  0.1201
 7216W        W23025  14.087  13.954   4.860  0.1059 -0.1825 -0.1298
 7217W        W23026  12.825  12.654   0.880 -0.1706  0.2253  0.2647
 7218W        W23027   5.637  16.224   2.259  0.0268 -0.2234  0.1308
 7219W        W23028   2.965  11.979   1.399 -0.2077  0.1899 -0.2687
 7220W        W23029  13.458  12.844  13.835 -0.3073 -0.0844  0.1428
 7221W        W23030   0.019  17.113  14.037 -0.0366  0.1969 -0.1143
 7222W        W23031   1.338  16.932   3.488  0.0150 -0.1771 -0.1242
 7223W        W23032  13.467  12.518  15.078  0.0516 -0.0764 -0.2483
 7224W        W23033   2.562   6.365   1.620  0.0903 -0.2573  0.2410
 7225W        W23034   1.311   2.459  11.417 -0.0098  0.1241  0.1348
 7226W        W23035   7.188  18.643  14.562 -0.1164 -0.0230 -0.1250
 7227W        W23036  15.776   2.745  11.521  0.1224 -0.2679  0.0027
 7228W        W23037   8.168  15.375   2.822 -0.2453 -0.1560 -0.2210
 7229W        W23038   6.982  15.229   3.682 -0.0143  0.0426 -0.2874
 7230W        W23039   8.414   2.883   4.309  0.0470 -0.0135  0.0228
 7231W        W23040   5.938  17.910   3.828  0.0523 -0.1362  0.0264
 7232W        W23041   4.712   8.423  12.850 -0.3252  0.2723 -0.1575
 7233W        W23042   9.850  11.845  15.111 -0.0029 -0.0733  0.0100
 7234W        W23043  14.572  18.538  13.236 -0.1879 -0.0778 -0.1447
 7235W        W23044   7.180   5.504  12.731  0.5641 -0.1718 -0.1290
 7236W        W23045  13.462  13.383   3.878  0.0487  0.0245 -0.3083
 7237W        W23046  16.611   5.325   1.418 -0.1898  0.0805 -0.2121
 7238W        W23047   3.279   4.055  15.543 -0.3108 -0.1887  0.1337
 7239W        W23048   6.432  15.909   4.610 -0.0286 -0.3082  0.0083
 7240W        W23049   0.309  10.154  14.102 -0.0225 -0.1862 -0.0991
 7241W        W23050   1.110   1.475  11.281  0.1587  0.3253 -0.2488
 7242W        W23051   2.269  16.795  11.099  0.1441 -0.1001  0.0653
 7243W        W23052  18.405  14.503  14.413  0.2255  0.0712  0.0581
 7244W        W23053  10.183  16.506   3.633 -0.1812 -0.0413 -0.0835
 7245W        W23054  16.880   2.242  11.075  0.1362 -0.0070 -0.2509
 7246W        W23055   2.890   6.007   4.415 -0.0453  0.0975 -0.5797
 7247W        W23056   8.830  18.766  11.140  0.3427 -0.1012  0.2452
 7248W        W23057  10.007   8.544  12.744  0.3594 -0.1894  0.0019
 7249W        W23058  15.186  15.150   4.295 -0.0788  0.0843  0.1912
 7250W        W23059   0.470   7.474  14.307 -0.0848 -0.0755 -0.1669
 7251W        W23060   2.305   4.925  15.490 -0.1231  0.1281 -0.0500
 7252W        W23061   6.893   8.861  11.698 -0.3349  0.1179  0.2942
 7253W        W23062  15.966   6.417   3.415  0.1238  0.1832  0.3704
 7254W        W23063  10.878   1.949   2.027 -0.1692 -0.0019 -0.0629
 7255W        W23064   7.614  16.280   4.322  0.1437  0.0338 -0.0271
 7256W        W23065  14.700   5.583  13.249  0.0749  0.1261  0.2259
 7257W        W23066  10.598  14.791  14.444 -0.0793 -0.2937 -0.2146
 7258W        W23067  17.195   0.776  11.587 -0.3698 -0.0932 -0.4835
 7259W        W23068   5.996   4.100  14.010  0.0604 -0.0204 -0.0906
 7260W        W23069   7.470  14.669  10.243  0.1555 -0.0400  0.0108
 7261W        W23070   2.562   8.264  13.601  0.5001 -0.0021 -0.1571
 7262W        W23071   3.092  10.686  13.206  0.0880 -0.0826 -0.2228
 7263W        W23072   4.562  16.963  15.474 -0.0131  0.0480 -0.4733
 7264W        W23073  10.525   1.412   2.018  0.3605  0.1410  0.1879
 7265W        W23074   1.838  11.041   3.342 -0.1926 -0.3338 -0.1496
 7266W        W23075  11.323  18.470   6.018  0.4136  0.1453  0.2451
 7267W        W23076   7.369  17.552   1.073  0.0279  0.2090  0.0263
 7268W        W23077   4.814  12.337  11.983  0.1462 -0.4310  0.1140
 7269W        W23078  11.411   5.320  11.036 -0.1991 -0.2173  0.0497
 7270W        W23079   8.338   2.331  11.048 -0.0445  0.0183  0.3444
 7271W        W23080  17.893   3.072   1.872 -0.0596  0.3134  0.0278
 7272W        W23081   8.741  12.756   0.785 -0.0835  0.2894 -0.3453
 7273W        W23082  17.221   6.439  14.853  0.1349  0.1007 -0.1200
 7274W        W23083  11.649   1.172  11.316  0.2348  0.0208 -0.0397
 7275W        W23084  17.820  11.072   4.791  0.0433 -0.1318 -0.0924
 7276W        W23085   0.475   9.608   1.441 -0.1141 -0.0482 -0.1201
 7277W        W23086  15.774   8.613   0.806  0.1581  0.1766  0.1479
 7278W        W23087   1.052   9.110  13.032 -0.1449  0.1980  0.4492
 7279W        W23088  11.815  14.904   4.185  0.1658  0.1313  0.0148
 7280W        W23089  13.865   4.875  11.966 -0.0002 -0.0212  0.2104
 7281W        W23090  16.436  12.916   5.572  0.2811  0.0346  0.3579
 7282W        W23091  15.434   3.468  13.880 -0.1668 -0.2521 -0.0740
 7283W        W23092  12.920   0.982  11.319  0.1375 -0.0134 -0.0639
 7284W        W23093   5.018   5.136   4.567 -0.1938  0.0564  0.2424
 7285W        W23094  11.819  17.332   3.879 -0.0996 -0.1328 -0.1926
 7286W        W23095  16.394   8.283   3.075 -0.2392  0.3438  0.1853
 7287W        W23096   8.425   9.045  14.554 -0.1420 -0.1632  0.1634
 7288W        W23097   4.873  12.794   0.328  0.3066  0.2729 -0.5818
 7289W        W23098   3.176  11.964  11.146 -0.0620  0.1285 -0.2286
 7290W        W23099   0.785  12.540   1.618 -0.0641 -0.0231  0.0721
 7291W        W23100   3.039   7.508   0.754 -0.0193 -0.3141 -0.2675
 7292W        W23101  12.814  10.074  11.934  0.1382  0.1670 -0.1978
 7293W        W23102  12.617  10.943  14.463  0.0821 -0.1962  0.0333
 7294W        W23103   7.302  14.279  15.216  0.0317 -0.2136  0.0433
 7295W        W23104  17.589  18.415   0.857 -0.2827 -0.3751  0.1828
 7296W        W23105   1.634   9.990  13.481 -0.1994  0.0237  0.1000
 7297W        W23106   5.003   2.471   2.142  0.3344 -0.1921  0.3610
 7298W        W23107   8.806   0.571   5.739 -0.1260 -0.1830  0.1048
 7299W        W23108   0.655  12.259   5.565 -0.1924 -0.3140 -0.0720
 7300W        W23109   8.784   3.942   4.933  0.4082  0.1136  0.0711
 7301W        W23110   1.559   4.500  15.377 -0.3629 -0.1866  0.1171
 7302W        W23111  12.242  10.833  12.590 -0.2184  0.2407 -0.2448
 7303W        W23112   7.692  14.923  14.389  0.2136  0.2770 -0.1574
 7304W        W23113  10.588   3.480   5.116 -0.1083 -0.1651 -0.0595
 7305W        W23114  10.433   4.133   1.487  0.3917 -0.3249 -0.3366
 7306W        W23115   0.527   8.225   1.247 -0.0549  0.0839 -0.0839
 7307W        W23116   9.318  18.467  13.948  0.1979  0.0374  0.1720
 7308W        W23117   0.124   2.145   4.215 -0.0840  0.2306 -0.1394
 7309W        W23118  14.230   1.537   1.422 -0.5756 -0.2307 -0.1211
 7310W        W23119  16.885  14.274  13.938 -0.0323  0.0846  0.0692
 7311W        W23120  10.633   6.707   1.079 -0.1202 -0.1906  0.1696
 7312W        W23121  13.000   8.877   4.265 -0.3204  0.0870  0.1386
 7313W        W23122  15.798  17.584   1.945  0.2295 -0.2721  0.1093
 7314W        W23123  18.653   8.674  15.490  0.0419  0.1095  0.1546
 7315W        W23124   1.397  10.292  14.736 -0.0072 -0.5095  0.0348
 7316W        W23125  15.451   8.714   1.208 -0.2107  0.1378  0.1297
 7317W        W23126   3.744   9.951  12.137 -0.2029 -0.1971  0.1176
 7318W        W23127  15.103   6.904  14.638 -0.1446 -0.2567  0.0539
 7319W        W23128  17.595   4.925   0.457  0.0960 -0.1935  0.0564
 7320W        W23129   7.011  12.925   3.638 -0.2322  0.1663  0.0723
 7321W        W23130  15.938   0.213  14.526 -0.0850  0.2383  0.1126
 7322W        W23131  11.227  16.475  14.299  0.0088 -0.0493  0.0561
 7323W        W23132  13.607   0.508   5.835  0.1968  0.0512 -0.0113
 7324W        W23133  17.571   6.206  11.897 -0.2016  0.1319  0.0101
 7325W        W23134  12.703   1.964   0.663 -0.0292  0.0864 -0.2615
 7326W        W23135  14.123  10.080  11.168  0.1005  0.0441  0.3581
 7327W        W23136   9.517  14.955  12.890 -0.0155  0.0381 -0.1417
 7328W        W23137   7.596  11.408   2.621 -0.2754  0.1777 -0.1482
 7329W        W23138  17.949  11.283   0.403 -0.0568 -0.0119 -0.0415
 7330W        W23139  12.090  15.268   2.168 -0.3041  0.0112  0.0604
 7331W        W23140  15.103   6.557   3.296 -0.0137  0.0778  0.1487
 7332W        W23141   7.651   5.564   3.469  0.1871 -0.1072 -0.1535
 7333W        W23142   0.224   6.417   2.441  0.0300  0.0463 -0.0138
 7334W        W23143   6.795   1.317  11.817 -0.0353  0.0261 -0.0704
 7335W        W23144   9.887  15.693  14.211  0.2397 -0.0032 -0.2705
 7336W        W23145  12.494   8.920   1.416  0.1539 -0.1531 -0.2215
 7337W        W23146  15.713  14.175   0.839  0.0652  0.2702 -0.1302
 7338W        W23147   9.973   2.803   2.103 -0.0469  0.3942  0.1604
 7339W        W23148   7.070  14.051   2.946 -0.2276  0.2013 -0.0375
 7340W        W23149   1.017   3.067  14.368 -0.1844  0.1690  0.3066
 7341W        W23150  12.342   3.847  15.117  0.0225 -0.1429  0.1827
 7342W        W23151   7.565  13.135   0.795  0.1167  0.0773 -0.2667
 7343W        W23152  11.207   2.953   2.506  0.2220 -0.1184  0.0075
 7344W        W23153   4.122   1.638   2.867  0.0385 -0.0012 -0.2709
 7345W        W23154  14.533   1.350   1.085 -0.2475  0.1761  0.0008
 7346W        W23155   0.183   2.014  11.819  0.2496 -0.0530  0.1435
 7347W        W23156  10.898  18.397  13.605  0.3905  0.2052  0.0613
 7348W        W23157   7.045   6.318  12.853 -0.1331 -0.2109 -0.1783
 7349W        W23158  18.777   5.528  13.474 -0.1290  0.0446  0.0936
 7350W        W23159   7.369   4.656   3.339 -0.1942 -0.0320  0.1683
 7351W        W23160  10.202  11.429  12.636  0.1278  0.2486  0.1063
 7352W        W23161   9.496  16.714  14.307 -0.1036 -0.0233  0.2266
 7353W        W23162   1.833  18.359  15.151 -0.3072 -0.1572  0.2272
 7354W        W23163  12.963   5.952   3.363  0.4282  0.3936 -0.0129
 7355W        W23164   0.358   5.138  13.294  0.0680  0.1306 -0.1192
 7356W        W23165   9.412  10.527   5.183  0.0153 -0.1995  0.0138
 7357W        W23166   7.859  10.926   5.030  0.1287  0.0113  0.0918
 7358W        W23167   5.907  17.523   3.301 -0.2323  0.0223  0.1726
 7359W        W23168  14.799   8.348  14.814  0.3714  0.2880  0.0479
 7360W        W23169   5.031  11.468  11.236 -0.0062 -0.1295 -0.2030
 7361W        W23170   9.840   5.494   1.375 -0.1176 -0.0137 -0.1096
 7362W        W23171   3.241   5.637   2.313  0.0686 -0.2922  0.3231
 7363W        W23172  14.461  10.542  11.969  0.1666  0.0377  0.3976
 7364W        W23173   1.416   9.920   4.220 -0.0338 -0.5520 -0.2395
 7365W        W23174  12.933   3.353   1.810  0.1140  0.0347 -0.0941
 7366W        W23175   1.709   2.813   2.805  0.1316 -0.4979  0.2758
 7367W        W23176  14.676   5.525   5.138 -0.0119  0.2131 -0.1477
 7368W        W23177  18.475  14.080   2.368  0.0069  0.0414 -0.0067
 7369W        W23178  18.443   9.151   1.425  0.0127  0.0955 -0.1551
 7370W        W23179  17.292   5.903   1.352  0.0217  0.0679  0.3168
 7371W        W23180  16.709  17.926  13.358  0.1856 -0.1440  0.1127
 7372W        W23181   9.839  13.684   2.767  0.0078  0.3193  0.1797
 7373W        W23182  11.787  16.520  12.517 -0.1274 -0.0126  0.0379
 7374W        W23183  13.735  17.582   2.730 -0.1959 -0.1423 -0.1800
 7375W        W23184   7.049   3.552  12.007  0.2008 -0.0400 -0.0768
 7376W        W23185   2.601  13.164   0.994 -0.1867 -0.0143 -0.0383
 7377W        W23186   1.500  12.079  14.553 -0.1210 -0.1187 -0.2380
 7378W        W23187   0.923  15.429  11.582 -0.0238  0.3356  0.1876
 7379W        W23188  10.153   0.041   4.913  0.0322 -0.0389  0.2188
 7380W        W23189   6.962   6.447   1.509  0.1172 -0.0515 -0.0772
 7381W        W23190  17.467  18.375  14.685  0.1807  0.5577 -0.2134
 7382W        W23191   6.096   3.158   1.895  0.0610 -0.2988 -0.3718
 7383W        W23192   7.502  10.515   1.925  0.0564 -0.1466 -0.0802
 7384W        W23193   2.172  10.794  12.820 -0.1918  0.1881  0.0133
 7385W        W23194  15.667   3.734   9.669  0.0750  0.1774 -0.2310
 7386W        W23195  16.619   8.305   2.163  0.3243  0.1682 -0.1499
 7387W        W23196  16.463  11.432   1.274  0.0468  0.1230 -0.0959
 7388W        W23197  10.823   0.239   3.287  0.1631 -0.1634  0.3126
 7389W        W23198   5.206   6.646   2.674  0.2328  0.0191 -0.1199
 7390W        W23199   9.169   4.158   4.611 -0.1556  0.1071  0.2548
 7391W        W23200  17.253  11.358  13.504 -0.1178  0.2650  0.3023
 7392W        W23201  12.994  10.707   3.149 -0.4541 -0.1553  0.0823
 7393W        W23202   0.481   9.144  10.322 -0.2100 -0.1736  0.0014
 7394W        W23203  11.803  18.313   5.661 -0.0663 -0.1494  0.1288
 7395W        W23204   7.678   3.069   3.620 -0.0220 -0.0403 -0.3518
 7396W        W23205  12.072  15.203  12.257 -0.0147 -0.0193 -0.1975
 7397W        W23206   1.797  12.779  13.075 -0.2906 -0.0899  0.2736
 7398W        W23207  17.421  15.050   1.814  0.0592  0.0578 -0.0817
 7399W        W23208   9.650   2.743   1.624 -0.0529 -0.2491  0.2259
 7400W        W23209  15.463   5.534   3.533 -0.0938 -0.0190 -0.0952
 7401W        W23210   0.036  18.758  15.513  0.1258 -0.1911 -0.3079
 7402W        W23211   9.204   2.183   4.575  0.2082  0.1315 -0.3591
 7403W        W23212   8.687   4.317  14.220  0.2123 -0.0851 -0.0524
 7404W        W23213   1.078  17.999  11.651 -0.3293  0.0780 -0.1057
 7405W        W23214  10.121   6.723   2.037  0.0221  0.3177 -0.0130
 7406W        W23215  14.204   9.606  14.224 -0.1071  0.1482 -0.2027
 7407W        W23216   0.207   7.864   4.709 -0.2088 -0.1004 -0.2271
 7408W        W23217   3.981   6.182   0.698  0.1202  0.1011 -0.2171
 7409W        W23218   2.060  11.464   4.788 -0.1133  0.3306  0.1377
 7410W        W23219   6.594   5.987   4.479  0.1521 -0.4197 -0.1728
 7411W        W23220  11.605  12.707   0.701 -0.1210 -0.0384 -0.0566
 7412W        W23221  10.968  11.003   9.804 -0.4490  0.1305  0.1411
 7413W        W23222   1.542   2.253  13.280 -0.3586  0.0224  0.3415
 7414W        W23223  16.956  10.847  12.594 -0.0759  0.1482  0.0494
 7415W        W23224   9.962   5.725  15.512  0.0358  0.2174  0.0097
 7416W        W23225   9.282  15.321   4.959  0.0114 -0.0978  0.0878
 7417W        W23226  18.381  16.362  15.016  0.3764  0.2068  0.1447
 7418W        W23227   7.555   5.025  14.702 -0.0137  0.4402 -0.1222
 7419W        W23228   3.326  12.397  11.418 -0.0666 -0.2913 -0.2630
 7420W        W23229   2.526  13.229  13.097 -0.0508  0.1085 -0.2914
 7421W        W23230   4.719  10.339  12.001 -0.3158  0.0992 -0.0109
 7422W        W23231  16.950  17.952   5.392 -0.1148  0.0601 -0.1263
 7423W        W23232   6.250   8.139   1.868  0.0855 -0.3922 -0.0146
 7424W        W23233  16.139   3.250  15.547  0.0069  0.0812  0.5098
 7425W        W23234  18.739   9.088  13.389  0.2027  0.2180  0.0478
 7426W        W23235   6.937  18.507  13.019 -0.0872  0.2003 -0.0566
 7427W        W23236   2.952   6.609   4.201  0.0334 -0.3516 -0.0028
 7428W        W23237   5.445   6.097  14.609 -0.1292 -0.0713  0.1063
 7429W        W23238   5.437  13.434  13.482 -0.1571 -0.1260  0.2059
 7430W        W23239  11.760   3.126   0.686  0.1911  0.2081 -0.0184
 7431W        W23240  16.248   2.644   2.636 -0.0264  0.3391  0.2027
 7432W        W23241   5.461   3.600  14.783 -0.0261 -0.2665  0.2230
 7433W        W23242  17.342   0.551   0.659 -0.0055 -0.3085 -0.1777
 7434W        W23243   1.206  10.022  15.087 -0.3127 -0.3203  0.0746
 7435W        W23244   3.422  15.474   1.005 -0.1433 -0.1426 -0.2209
 7436W        W23245  14.686  11.959  10.798  0.0488 -0.0436  0.1555
 7437W        W23246   4.928   8.506   2.849 -0.2161 -0.1180 -0.1076
 7438W        W23247  17.646   0.018  13.143 -0.3319 -0.3179 -0.1042
 7439W        W23248  14.482   6.953   3.147  0.1542  0.2946 -0.0180
 7440W        W23249  13.281   8.193   2.596  0.2474 -0.0035  0.0822
 7441W        W23250  18.688   9.016  13.948 -0.1505 -0.1363  0.2238
 7442W        W23251   4.800  16.989   3.266  0.1179  0.1093 -0.0841
 7443W        W23252   8.464   0.713   2.163  0.0991 -0.0175  0.3495
 7444W        W23253   2.908   3.746   3.662 -0.1260  0.0814  0.0508
 7445W        W23254   9.088  15.658   4.444 -0.0048 -0.2202 -0.2413
 7446W        W23255  10.078  11.175  11.060 -0.4637  0.1426 -0.0230
 7447W        W23256   8.378   9.715   4.719 -0.1277 -0.0185 -0.1650
 7448W        W23257  15.333   2.183   6.276 -0.1418  0.0914  0.0351
 7449W        W23258  12.507   9.809   0.924 -0.0288 -0.3248 -0.1636
 7450W        W23259   8.951   5.374   2.953 -0.1762  0.0378 -0.1313
 7451W        W23260   1.122   0.730  13.792 -0.0617 -0.2177 -0.2708
 7452W        W23261   6.992  16.862   3.969 -0.0021 -0.0788  0.0383
 7453W        W23262  13.079   1.766  10.790  0.2035  0.1949  0.0433
 7454W        W23263  18.210  17.034   1.773  0.0188  0.0692  0.0956
 7455W        W23264   9.876  18.350   5.429  0.1349 -0.0017  0.2942
 7456W        W23265  14.416   1.532   3.497 -0.3097 -0.0785 -0.0476
 7457W        W23266   0.311  15.597   1.784  0.0012  0.1786 -0.1161
 7458W        W23267  12.391  11.531  15.307  0.2391 -0.1252 -0.0474
 7459W        W23268  16.304   4.724  12.487  0.1906  0.0175  0.1695
 7460W        W23269   4.481  14.566   2.829  0.1197 -0.1448 -0.3051
 7461W        W23270   3.775   3.959   3.575 -0.3111  0.1582  0.0692
 7462W        W23271  16.528  10.248  13.052 -0.0700  0.4527 -0.0616
 7463W        W23272  11.137  13.631  14.323  0.0558 -0.1150  0.0933
 7464W        W23273  10.833   2.608   2.357 -0.0954 -0.1315 -0.0723
 7465W        W23274   7.106  16.973  14.695  0.2809 -0.0274 -0.0618
 7466W        W23275  15.049   7.410   1.786  0.0375 -0.4786  0.4708
 7467W        W23276   6.461   8.417  11.840 -0.2600  0.2714 -0.2893
 7468W        W23277  10.596   2.717  15.160  0.1419  0.0109 -0.0257
 7469W        W23278   1.371  13.455  12.335 -0.1056  0.0835  0.0218
 7470W        W23279  11.136  13.691  11.457 -0.0450 -0.0598  0.1822
 7471W        W23280   6.811   5.242  15.377  0.2129 -0.2132  0.2000
 7472W        W23281   7.509   2.236   0.603 -0.2011  0.0081 -0.0793
 7473W        W23282   9.001   4.912  11.607  0.0847  0.1405  0.3662
 7474W        W23283   1.898   8.748   4.395  0.2031  0.0149 -0.2242
 7475W        W23284   5.989   1.776  10.848  0.4082 -0.2513  0.1259
 7476W        W23285  16.957   8.412   9.735  0.1864 -0.2280 -0.0097
 7477W        W23286   5.428   1.748   4.611  0.1397 -0.0799  0.1164
 7478W        W23287   7.387   4.923   3.864 -0.1759  0.1988  0.1907
 7479W        W23288  12.208   2.334  10.870 -0.0625  0.1237 -0.1128
 7480W        W23289   6.430   1.380  12.240  0.0057  0.2962 -0.0136
 7481W        W23290   3.614   1.684   2.721  0.2819 -0.1777 -0.4785
 7482W        W23291   4.627   9.673  15.042  0.2652  0.1355  0.1384
 7483W        W23292   0.602  14.585   3.681 -0.0741  0.2493  0.0243
 7484W        W23293  16.108  10.163   4.574  0.1756 -0.2236  0.0491
 7485W        W23294  12.094   9.496  14.045  0.2453 -0.3604 -0.0815
 7486W        W23295   2.354   0.340  10.294  0.0263 -0.1589 -0.0280
 7487W        W23296  14.647   3.555  14.053  0.0938 -0.2358  0.2917
 7488W        W23297   7.666  15.695   5.268 -0.1410 -0.2612 -0.2482
 7489W        W23298   4.502   2.831   2.776  0.1654 -0.0345 -0.0223
 7490W        W23299  13.466   8.364  12.280 -0.4153  0.1022 -0.2141
 7491W        W23300   0.043  13.482   4.102 -0.1357 -0.0314  0.0546
 7492W        W23301  14.593   3.282  12.921  0.1297 -0.1628  0.1256
 7493W        W23302  15.111   8.589  14.266  0.2118 -0.0312 -0.3110
 7494W        W23303   1.972   9.110  14.272 -0.0718  0.2058 -0.2820
 7495W        W23304   6.063  13.916   0.503  0.1549 -0.1451 -0.2926
 7496W        W23305   1.344   7.870   3.288 -0.2942 -0.5052  0.1463
 7497W        W23306   4.856  15.283   0.845 -0.0660 -0.0305  0.2222
 7498W        W23307   2.125   9.390  12.151 -0.2005  0.0439  0.1134
 7499W        W23308  10.451  17.973   2.384 -0.0896  0.0845 -0.1322
 7500W        W23309   0.856  18.645  13.714 -0.4308  0.0114 -0.0366
 7501W        W23310  15.648  13.079  13.393  0.0148  0.2853 -0.2620
 7502W        W23311  11.744   6.383  14.995  0.3669  0.1077  0.0627
 7503W        W23312   0.050  14.309  11.736  0.1803 -0.1806  0.0549
 7504W        W23313   0.095  13.726  13.172 -0.3182 -0.0198  0.2553
 7505W        W23314  10.121   6.790   4.486  0.1430  0.0183 -0.0208
 7506W        W23315   6.011   6.045   2.260 -0.0750 -0.0862 -0.0299
 7507W        W23316   3.653  13.272  14.691  0.1651 -0.1556 -0.0774
 7508W        W23317   0.378  10.949  10.894 -0.0646 -0.3161 -0.1530
 7509W        W23318   5.273  17.486  12.414 -0.0799 -0.1260 -0.2303
 7510W        W23319  13.672  18.621   1.680 -0.0821  0.2385 -0.6166
 7511W        W23320   0.290   0.811  12.418 -0.0093 -0.1674 -0.3182
 7512W        W23321   5.480   4.669   0.782  0.2774 -0.1052  0.1302
 7513W        W23322   5.649   8.851   1.784 -0.1779  0.1328  0.0197
 7514W        W23323   3.618   2.430  10.842 -0.2240 -0.0045 -0.1299
 7515W        W23324   1.217   3.784  11.538  0.1506  0.1880  0.0561
 7516W        W23325   3.090  14.722   3.741  0.4000 -0.1399  0.1454
 7517W        W23326   7.925  13.321   1.680 -0.1665  0.0046 -0.1519
 7518W        W23327  14.340  18.647   0.183  0.1771 -0.0014  0.3867
 7519W        W23328   2.805   9.069   3.171 -0.2387  0.1833  0.0454
 7520W        W23329   5.197  16.545  12.894 -0.3020 -0.2386 -0.2176
 7521W        W23330   9.751  16.141  12.391  0.1015 -0.4105 -0.1972
 7522W        W23331   5.811  14.247   3.960  0.1090 -0.0941  0.0253
 7523W        W23332  17.818   2.689  13.426  0.0666 -0.0405 -0.0433
 7524W        W23333  13.963   9.628  12.358  0.0328 -0.1708  0.0164
 7525W        W23334  10.659  10.351   1.633 -0.0845 -0.2780  0.4754
 7526W        W23335   1.869   9.185   4.845 -0.0924  0.1845  0.0764
 7527W        W23336  18.310  15.469  15.451 -0.5648  0.2447  0.1965
 7528W        W23337   1.909   5.850  15.443 -0.0165 -0.2164 -0.0586
 7529W        W23338  11.083  12.925   1.495 -0.3851 -0.0722 -0.1011
 7530W        W23339  14.625   6.622   5.207  0.1150 -0.1402 -0.1727
 7531W        W23340  18.508   3.001  11.682 -0.1231  0.0246 -0.1239
 7532W        W23341  15.392  18.172   0.594 -0.0861 -0.1253 -0.2820
 7533W        W23342  12.249  17.123   3.533 -0.0581  0.0913 -0.2581
 7534W        W23343   3.532  14.472   0.037  0.2648  0.1379 -0.2366
 7535W        W23344   7.281   6.213  11.501 -0.2018 -0.0905 -0.2253
 7536W        W23345  15.760  16.763   1.604  0.1704 -0.0131 -0.0457
 7537W        W23346   8.949   5.464  12.231 -0.2527 -0.0230 -0.0816
 7538W        W23347   1.006   6.714  10.942  0.1776 -0.1939  0.4314
 7539W        W23348   1.859  13.237   3.480 -0.1365  0.0610 -0.0688
 7540W        W23349   9.927  13.948   2.222 -0.0681  0.1780 -0.0326
 7541W        W23350   8.891   9.645  14.499 -0.2968  0.0496 -0.3456
 7542W        W23351   8.546  11.364  12.733  0.1385  0.0018  0.0227
 7543W        W23352  18.742  13.357   0.954 -0.2298 -0.1914  0.3607
 7544W        W23353   9.890  15.736  12.769 -0.0435  0.0638  0.0884
 7545W        W23354   1.396   5.906  12.487 -0.0544 -0.0340  0.1797
 7546W        W23355  14.273   1.000  15.424 -0.0203 -0.0194 -0.1292
 7547W        W23356  10.114   7.389   1.072  0.0961  0.0705  0.2137
 7548W        W23357  14.454   3.859  12.357 -0.0365 -0.0066 -0.2976
 7549W        W23358  15.945  18.254  11.406 -0.0087  0.1548  0.1988
 7550W        W23359  17.446   3.996   4.269 -0.0687  0.1354 -0.1590
 7551W        W23360  13.850   7.898  13.320 -0.3876 -0.0125  0.2316
 7552W        W23361  14.415  11.907  14.338 -0.0441  0.0052 -0.3190
 7553W        W23362   7.278  15.036  13.150  0.1885  0.0069 -0.0194
 7554W        W23363  16.020  16.810   2.443  0.1205 -0.0504  0.1293
 7555W        W23364   2.774   8.567   3.349  0.4208 -0.1952  0.1469
 7556W        W23365  10.928  11.422  10.545 -0.2376 -0.0299  0.0892
 7557W        W23366  14.520   2.353   4.407  0.1278 -0.2077  0.1467
 7558W        W23367   8.665   8.779  12.401 -0.0512 -0.0755 -0.0839
 7559W        W23368   0.737  17.521   1.362  0.0177  0.2234  0.0799
 7560W        W23369   8.600   5.120  15.303 -0.2009  0.2475  0.0833
 7561W        W23370  12.427  13.096  13.012  0.0239 -0.0744 -0.0320
 7562W        W23371  14.823  14.070   0.289  0.0925 -0.2227  0.1179
 7563W        W23372  15.685  10.907   2.395 -0.3864 -0.1624  0.1245
 7564W        W23373   4.864   4.868   1.654 -0.0824  0.1417  0.1227
 7565W        W23374  10.693   5.221   0.847 -0.2482  0.3156  0.1280
 7566W        W23375  14.343   2.078  11.198 -0.0689 -0.2305 -0.0246
 7567W        W23376  17.419  18.471  13.468 -0.0987  0.0422 -0.2429
 7568W        W23377   4.612   1.537   2.639 -0.0096 -0.1721  0.3669
 7569W        W23378  12.055   1.102  11.691  0.2319 -0.0531  0.3416
 7570W        W23379  16.518   7.813   0.303 -0.0526  0.0000 -0.0022
 7571W        W23380  18.208   9.910   0.813  0.0432 -0.0794 -0.0668
 7572W        W23381  15.965  10.973   0.089  0.0649 -0.0506  0.3272
 7573W        W23382  12.174   8.954   0.493  0.1357  0.2241  0.1882
 7574W        W23383   9.858  11.156   3.947  0.1479  0.3531 -0.3100
 7575W        W23384  11.488  16.308   4.192  0.0910 -0.0600 -0.1965
 7576W        W23385  11.857  14.550   3.299  0.2082  0.0900 -0.1521
 7577W        W23386  13.622   7.003   5.295 -0.0658  0.0664 -0.1983
 7578W        W23387   5.729   2.667   4.290  0.0355  0.1011 -0.1379
 7579W        W23388  14.869   6.995  10.819 -0.0004 -0.1600  0.2039
 7580W        W23389  18.237  10.042   1.480 -0.1153 -0.1976  0.0392
 7581W        W23390   9.013  12.278   1.009  0.0177 -0.1461  0.0364
 7582W        W23391  14.370   2.977  12.271  0.0510  0.1419  0.0147
 7583W        W23392  13.144  15.789   6.442  0.1179  0.2304  0.2388
 7584W        W23393   2.313  12.042   3.384  0.1995 -0.1163  0.2917
 7585W        W23394  13.984   4.645  12.893 -0.2911 -0.0435  0.1553
 7586W        W23395  15.605   6.090  11.411 -0.1923 -0.2333 -0.1098
 7587W        W23396  16.194  11.356   2.099  0.0292 -0.0459 -0.2680
 7588W        W23397  17.517  10.816  12.819  0.1324  0.4416 -0.1893
 7589W        W23398   2.533  11.657   4.723 -0.1963  0.0337  0.0684
 7590W        W23399   7.645   6.788   3.641  0.0065 -0.2014 -0.1890
 7591W        W23400  11.610  11.742  11.965 -0.2519  0.0702  0.1487
 7592W        W23401   6.183   9.015   4.613 -0.0647  0.1348  0.0502
 7593W        W23402  15.888   4.035   4.143 -0.2101  0.3015 -0.0505
 7594W        W23403  15.872  18.193   3.561 -0.0015  0.2859  0.4164
 7595W        W23404   6.835   8.245   2.707 -0.0336 -0.0721 -0.1412
 7596W        W23405  14.286  12.223   1.785  0.0740  0.0515  0.1818
 7597W        W23406   6.885  12.136   0.908 -0.2790  0.0855 -0.1841
 7598W        W23407   8.556  15.881  11.192 -0.0175 -0.0280 -0.1905
 7599W        W23408  17.116   4.688  14.384 -0.0560  0.0502 -0.1334
 7600W        W23409  10.875   0.417   5.328  0.1460 -0.0116 -0.1408
 7601W        W23410   0.139  10.946  12.688  0.2283  0.0019  0.2388
 7602W        W23411  18.305   4.878   1.245  0.3890 -0.5114 -0.1838
 7603W        W23412  16.926   2.141   0.012  0.0562 -0.1231 -0.0931
 7604W        W23413  18.160  13.081  12.351 -0.2313 -0.2291  0.3930
 7605W        W23414  16.638  17.499   1.474 -0.0527 -0.0387 -0.2523
 7606W        W23415   0.260  11.597  12.061 -0.0669  0.3401  0.1084
 7607W        W23416   5.210  17.920   2.400  0.0560  0.1268 -0.0072
 7608W        W23417   9.892   1.506   4.544 -0.0366 -0.0179  0.0539
 7609W        W23418  10.403  13.029   2.239 -0.1622 -0.3365  0.3969
 7610W        W23419  16.787  11.924  12.439 -0.1089  0.2392 -0.1850
 7611W        W23420   2.431  15.785  13.457  0.2207 -0.0256  0.2330
 7612W        W23421  17.265  14.816   0.915 -0.3167 -0.1889  0.1990
 7613W        W23422   9.096   1.865  12.573  0.1023  0.0201  0.1855
 7614W        W23423  16.173  10.040  13.505 -0.3224 -0.3532  0.0197
 7615W        W23424  16.336   8.402   4.509  0.1872  0.3470 -0.1879
 7616W        W23425  14.383  11.801   5.035  0.2430  0.1175  0.1489
 7617W        W23426   1.674  15.708   3.936 -0.0973  0.1540  0.2496
 7618W        W23427   7.087  10.344   3.915 -0.0189 -0.1070 -0.4717
 7619W        W23428   6.973   6.533  11.948 -0.1225  0.0350  0.0931
 7620W        W23429  18.091  12.286   5.455 -0.1293  0.3510  0.1293
 7621W        W23430  12.058  10.805  10.384  0.1191  0.0279  0.0277
 7622W        W23431   5.472   3.297  12.122 -0.1620 -0.1973 -0.3886
 7623W        W23432   9.093  13.157  12.320  0.1727 -0.0677  0.1762
 7624W        W23433   5.684   6.513  12.582 -0.1967  0.2557 -0.2648
 7625W        W23434  12.397   5.609   2.600  0.2864  0.1210  0.0410
 7626W        W23435   0.531  17.527  15.474 -0.2915  0.0016 -0.0035
 7627W        W23436  10.648  13.600  14.272 -0.0178  0.1132 -0.2794
 7628W        W23437   1.814  13.667   3.911  0.1313  0.0533 -0.4266
 7629W        W23438  17.405  12.858   1.674  0.1242 -0.1144  0.0460
 7630W        W23439   1.034   9.174   4.723  0.1316 -0.0737 -0.1799
 7631W        W23440   2.273   7.038  13.220 -0.1033 -0.2052 -0.1464
 7632W        W23441   1.086  14.953  10.810  0.0175  0.1701 -0.3509
 7633W        W23442   6.177   4.577   0.743  0.1152 -0.0862  0.1405
 7634W        W23443  13.714   5.495   3.670  0.0039  0.1169 -0.1180
 7635W        W23444   8.431   1.799   3.480 -0.0235  0.1183  0.2002
 7636W        W23445   0.868  14.781  14.964 -0.1820 -0.0657  0.3476
 7637W        W23446  11.758  18.447  10.215  0.0630 -0.0120 -0.0614
 7638W        W23447   6.247   9.344  10.064  0.3153 -0.0363  0.0828
 7639W        W23448   8.661   9.513   3.754  0.2916  0.2163  0.1286
 7640W        W23449   8.993   8.313   1.121  0.0084  0.1680 -0.2295
 7641W        W23450   9.353   3.862  10.686  0.3832  0.3240 -0.1585
 7642W        W23451   7.723   7.285  12.258  0.2325  0.2037 -0.1228
 7643W        W23452  15.572   8.193   3.284 -0.0897 -0.1526 -0.4083
 7644W        W23453   7.384   6.443   5.455 -0.1352  0.2107  0.1664
 7645W        W23454  12.830   4.939  13.191 -0.1497  0.1133 -0.0570
 7646W        W23455   4.242  11.258  11.378 -0.3735 -0.2952 -0.2193
 7647W        W23456  16.200   9.424  11.500 -0.0438 -0.1011 -0.2946
 7648W        W23457  16.363  16.672  15.444 -0.1027 -0.0434  0.2939
 7649W        W23458   2.687  14.545  15.339  0.3156 -0.2861 -0.0499
 7650W        W23459  15.760   0.042  12.529 -0.0281 -0.0865  0.1469
 7651W        W23460   1.595  15.979  14.991 -0.1054  0.1707  0.1563
 7652W        W23461   9.983   7.428   0.053  0.0631 -0.0375  0.1046
 7653W        W23462   9.261   0.872   1.489 -0.2059  0.1915 -0.1899
 7654W        W23463   4.153   2.939  14.983  0.1150  0.0281  0.0288
 7655W        W23464   6.957   4.515  12.306 -0.2832 -0.2816 -0.1147
 7656W        W23465  18.755   9.634   1.546 -0.1171 -0.2674 -0.1100
 7657W        W23466  17.112  10.616  13.714  0.1412  0.1741 -0.2273
 7658W        W23467  18.478  12.279   4.529 -0.0403 -0.0118  0.1221
 7659W        W23468   0.784  15.905   5.375  0.1223  0.3709 -0.1259
 7660W        W23469   3.268   5.494   5.346  0.2440  0.2838  0.2277
 7661W        W23470   0.912  11.072  14.088 -0.3376  0.0969  0.1296
 7662W        W23471  17.062   3.582   0.974 -0.2494 -0.0686  0.1716
 7663W        W23472   7.139  10.714   4.289  0.1430 -0.0879 -0.1028
 7664W        W23473   5.026  16.056  15.141 -0.0613 -0.1269 -0.1318
 7665W        W23474   6.582   0.586   3.770  0.1744  0.1785  0.0102
 7666W        W23475   7.247   3.433  15.166 -0.1288  0.1021  0.1732
 7667W        W23476  10.051   4.395   1.934  0.1612 -0.0096  0.1040
 7668W        W23477   1.044   1.740   1.583 -0.0209  0.0494 -0.2821
 7669W        W23478   8.385  11.648   0.048 -0.0073  0.1111  0.1654
 7670W        W23479   3.829   5.740  15.183  0.0490 -0.0899 -0.0820
 7671W        W23480   6.090   4.194  14.760 -0.0450  0.1967  0.0945
 7672W        W23481   7.536   0.386   2.299 -0.0253 -0.0571  0.1425
 7673W        W23482  16.245  11.804   3.047 -0.1764 -0.1969  0.3320
 7674W        W23483   9.004  15.643  15.562 -0.1594  0.0684 -0.0880
 7675W        W23484   7.235   1.250   4.766  0.0170  0.0612 -0.0512
 7676W        W23485  17.471   6.001  11.463 -0.1799 -0.3767  0.0959
 7677W        W23486   4.409   9.368   5.018  0.0585 -0.2249 -0.0076
 7678W        W23487   7.151   5.021  13.625  0.3870  0.3059 -0.3208
 7679W        W23488   1.248   2.885   4.783  0.1676 -0.0885 -0.2119
 7680W        W23489   2.056   9.868   3.334 -0.0602 -0.0922  0.0902
 7681W        W23490  18.395  15.718   5.073 -0.1558  0.0965  0.1596
 7682W        W23491  12.772  11.258  11.944 -0.1071  0.2823  0.1372
 7683W        W23492   3.933  14.841  11.873  0.1871  0.1188  0.0372
 7684W        W23493   5.344   6.761  14.136 -0.0515  0.0138  0.0624
 7685W        W23494   5.772  12.555  11.640 -0.0897  0.0665 -0.0129
 7686W        W23495   4.279  13.916   0.686 -0.1399 -0.2706  0.0162
 7687W        W23496   6.885   2.716  12.357 -0.1075 -0.2008  0.3800
 7688W        W23497  13.585  10.283  15.310 -0.0410 -0.1558 -0.0224
 7689W        W23498  16.680   8.575   4.186 -0.1852  0.2335  0.2641
 7690W        W23499   2.979  16.430  11.170 -0.1724 -0.1736  0.2844
 7691W        W23500  15.473  10.177   4.129  0.0697 -0.1844  0.0040
 7692W        W23501   7.656   4.226  13.377  0.2014 -0.2983  0.2212
 7693W        W23502   5.744   7.372  15.165  0.5068  0.2757 -0.0754
 7694W        W23503   5.310   4.492   1.206  0.1597  0.0984  0.0180
 7695W        W23504  14.194  15.855  11.941  0.0467 -0.0396 -0.1215
 7696W        W23505  10.062   9.891   1.035  0.1471 -0.2197  0.0218
 7697W        W23506  16.559  14.651   4.702  0.1104  0.0480 -0.4002
 7698W        W23507   6.084   6.595   1.590  0.0035 -0.2372 -0.3844
 7699W        W23508  14.743  15.929   0.223 -0.1876 -0.3105 -0.0286
 7700W        W23509  14.394   0.256   3.760  0.1193  0.0848 -0.2208
 7701W        W23510   8.595  10.596   3.589  0.1389 -0.2465  0.0416
 7702W        W23511  11.536  11.374   0.105 -0.0991  0.0423 -0.3014
 7703W        W23512   4.548  12.372   2.996 -0.1636 -0.2305 -0.2146
 7704W        W23513  14.126  11.562   3.108 -0.1052  0.2799 -0.1943
 7705W        W23514  15.008  13.680  14.822 -0.1249  0.1325 -0.1863
 7706W        W23515   8.343   7.172   0.802  0.0441  0.1388  0.0140
 7707W        W23516   6.843   2.038   4.984  0.1094  0.1240  0.1292
 7708W        W23517   0.650   0.545   5.515 -0.1496  0.2018  0.3502
 7709W        W23518   3.367   9.459   4.914  0.1097  0.1135  0.1376
 7710W        W23519   9.977   8.214  14.883  0.0094 -0.1348 -0.3325
 7711W        W23520   6.062  18.568  14.771  0.1413  0.3487 -0.1332
 7712W        W23521  11.819  18.145   4.369 -0.2256  0.3540  0.0035
 7713W        W23522   2.482   0.748   1.874 -0.1542 -0.2678  0.0360
 7714W        W23523   7.752   5.359  11.946  0.1375  0.0136 -0.0866
 7715W        W23524   4.352   3.372   5.248 -0.0264  0.0243 -0.1855
 7716W        W23525   1.060   1.215  11.834  0.0028  0.0602 -0.0360
 7717W        W23526   8.631  14.784  10.943  0.1937  0.2010  0.1680
 7718W        W23527   0.799   1.859   1.130  0.3310 -0.4284 -0.1054
 7719W        W23528  15.668  10.566  12.355  0.3401  0.0621  0.1475
 7720W        W23529   8.716  11.781  12.526 -0.0886 -0.3818 -0.0165
 7721W        W23530  10.348  12.874  13.152  0.0912 -0.0076  0.2640
 7722W        W23531   1.051  12.359  15.382  0.0168 -0.0321 -0.0165
 7723W        W23532  15.730  11.452  14.342 -0.0402 -0.0765 -0.1154
 7724W        W23533   7.779  16.405  10.576 -0.2406 -0.1003 -0.3584
 7725W        W23534  16.770   4.253  10.500 -0.0157  0.0774  0.1982
 7726W        W23535   8.887  14.795  14.172  0.3527 -0.0353 -0.0773
 7727W        W23536   1.216  14.960  11.345  0.0507  0.0409  0.3744
 7728W        W23537   1.636   7.473   0.203 -0.0310  0.0709  0.0951
 7729W        W23538   0.527  11.507  14.168 -0.4939 -0.0261 -0.3554
 7730W        W23539  14.714   2.422   1.870 -0.1798 -0.5564 -0.1444
 7731W        W23540   0.874   3.389   1.680  0.3080 -0.3900 -0.0238
 7732W        W23541  16.724   1.508   3.415  0.1019  0.0864  0.1496
 7733W        W23542   8.786   2.251   3.439 -0.0158  0.1723 -0.2261
 7734W        W23543  10.931   7.086   4.102 -0.1706  0.3414  0.0131
 7735W        W23544  16.224   1.177   1.370  0.0556 -0.2012 -0.1286
 7736W        W23545  13.988  17.979  12.384  0.3474 -0.2014  0.1744
 7737W        W23546  13.738  12.943   4.909 -0.0833  0.2472  0.0190
 7738W        W23547  17.931   7.744  14.725 -0.5318 -0.2049 -0.1580
 7739W        W23548  13.796   4.185   1.347  0.0786 -0.3126 -0.0567
 7740W        W23549  16.120  14.577   0.454 -0.2235 -0.0103 -0.3945
 7741W        W23550  17.005  12.046  14.362 -0.0546 -0.3270  0.3616
 7742W        W23551   9.823  15.943  11.857  0.0302  0.0493 -0.0432
 7743W        W23552   1.559  18.164   2.635 -0.0209  0.1053  0.5056
 7744W        W23553   6.937  15.614   4.550  0.2471 -0.0150 -0.0515
 7745W        W23554   9.509   8.559   1.027  0.3867  0.1510 -0.1919
 7746W        W23555  12.794  17.320   1.061 -0.0349  0.2286 -0.1242
 7747W        W23556  13.265   2.849   2.836 -0.2579 -0.3233  0.0310
 7748W        W23557   4.707   9.216   0.946 -0.0580 -0.4655  0.4025
 7749W        W23558  12.324   7.307   3.153 -0.3831 -0.0041 -0.0732
 7750W        W23559   4.846  12.200   0.395 -0.0335  0.1589 -0.1554
 7751W        W23560   4.986  15.191  11.807 -0.0187  0.1733  0.2091
 7752W        W23561  15.067   7.741   4.367  0.0398 -0.2005  0.5309
 7753W        W23562  15.564   3.432  12.143 -0.1458  0.0330 -0.2187
 7754W        W23563   5.139   5.676   4.250 -0.1952  0.0589 -0.2355
 7755W        W23564  15.845  15.628   1.057 -0.2021 -0.1776 -0.2816
 7756W        W23565  15.566   4.472  15.357 -0.1867  0.0972 -0.0445
 7757W        W23566   7.447   1.547   3.266 -0.0887 -0.0893 -0.1879
 7758W        W23567  10.412  17.794   1.540  0.0046 -0.2357  0.1585
 7759W        W23568  16.050  16.726  14.397  0.1811 -0.2534  0.3972
 7760W        W23569   7.759   9.905   5.159 -0.3094 -0.1628  0.0582
 7761W        W23570   5.137  12.275  13.810  0.0063 -0.4223  0.0496
 7762W        W23571  12.469  14.323   4.028  0.2049  0.1616  0.0540
 7763W        W23572  16.469   7.983  12.760 -0.4684 -0.0006  0.0090
 7764W        W23573  12.100   0.530  13.483 -0.1065  0.3689 -0.2868
 7765W        W23574   5.484  11.545   2.672  0.1072 -0.1612 -0.2502
 7766W        W23575   4.493   0.790   3.239 -0.0777  0.2128  0.3514
 7767W        W23576   8.325  11.713   4.845  0.1176  0.1801 -0.0857
 7768W        W23577  13.563   7.563  11.127  0.1325 -0.1523  0.2712
 7769W        W23578  11.060   4.971  13.070  0.0708  0.0963 -0.0048
 7770W        W23579  10.666  12.590  10.470 -0.1602  0.1155  0.1126
 7771W        W23580  10.332   4.593  11.363 -0.0696  0.1082 -0.1164
 7772W        W23581  10.423   1.218   0.787  0.3167  0.0428  0.2030
 7773W        W23582   3.472   1.005   1.501  0.1587  0.0242  0.0858
 7774W        W23583  14.324  10.238   3.598  0.0483 -0.2798  0.1788
 7775W        W23584   3.352   0.362   0.340 -0.1783  0.4141  0.1082
 7776W        W23585   2.113  16.909  13.401 -0.1424  0.2049  0.0226
 7777W        W23586   3.408   2.218   2.758  0.1787 -0.1687  0.2774
 7778W        W23587  18.250   1.676   3.567 -0.0847 -0.0518 -0.0647
 7779W        W23588   4.966  10.796  11.230  0.0565 -0.1279 -0.1812
 7780W        W23589  17.606  16.534   3.513  0.0465 -0.1863 -0.1263
 7781W        W23590  10.042   7.480   3.400 -0.0284 -0.1247 -0.1028
 7782W        W23591  13.892  10.732   2.362 -0.0510 -0.3012 -0.0122
 7783W        W23592  17.436   3.691  14.051 -0.2496 -0.2245 -0.1288
 7784W        W23593  16.837  10.354   2.461  0.0541  0.3424 -0.0028
 7785W        W23594   2.877   3.399   3.228  0.4364  0.1504 -0.1534
 7786W        W23595  14.849   8.206  14.146  0.0134 -0.1136  0.2221
 7787W        W23596  12.548  15.196   0.012 -0.3365 -0.0593 -0.0553
 7788W        W23597  17.589   1.872   0.911 -0.0352  0.1063  0.2521
 7789W        W23598  15.630  14.617  15.452  0.1782 -0.2449 -0.1181
 7790W        W23599   7.410  10.242  14.204  0.2138  0.0104 -0.0440
 7791W        W23600  10.287  16.813   2.896 -0.0551 -0.2358 -0.0075
 7792W        W23601  14.215   8.950   3.907 -0.1324  0.0657  0.0617
 7793W        W23602  17.599   8.927   0.543  0.1112  0.1134 -0.0343
 7794W        W23603   2.653   5.163   9.696  0.1243  0.0346 -0.3315
 7795W        W23604   3.216   2.943   2.078  0.0189 -0.2283 -0.0164
 7796W        W23605   9.813   0.170  11.366  0.1005  0.0338  0.1936
 7797W        W23606   2.307  18.545  15.387  0.2166  0.2705 -0.1088
 7798W        W23607  15.535   2.509   3.964 -0.2627  0.1731 -0.0726
 7799W        W23608   5.214   5.087  11.079 -0.2039 -0.2035 -0.4384
 7800W        W23609   5.722   0.646   2.799  0.0760 -0.2522  0.0964
 7801W        W23610   0.375  14.229  14.294 -0.1742  0.0350  0.1999
 7802W        W23611   6.929  17.868  10.564  0.0096 -0.0467 -0.1515
 7803W        W23612   4.536   1.854  14.325  0.4736  0.1657 -0.2726
 7804W        W23613   9.278   4.670   4.740  0.3791  0.0548  0.0158
 7805W        W23614   3.299  16.535   1.124  0.1134 -0.0042 -0.2217
 7806W        W23615  15.413   7.743  11.759  0.0446 -0.1067  0.2177
 7807W        W23616   2.862  18.032   4.438 -0.0129 -0.0334  0.0999
 7808W        W23617  12.123  16.005  10.768 -0.1286  0.0230 -0.0902
 7809W        W23618   4.782   3.259   0.135  0.3063 -0.1615 -0.0880
 7810W        W23619  15.081  11.432   4.685  0.2799  0.3828  0.2055
 7811W        W23620  11.529  13.750  11.931  0.3067 -0.0448 -0.3133
 7812W        W23621  10.058  11.886   0.032  0.3105 -0.1155  0.3097
 7813W        W23622  17.547  15.687   4.217 -0.0540  0.0574 -0.0225
 7814W        W23623  10.626  17.031   2.222  0.1259  0.3894 -0.0651
 7815W        W23624   3.283  13.966  10.469 -0.1839  0.0709 -0.1013
 7816W        W23625  16.916  17.046  11.770  0.0559 -0.0049  0.0064
 7817W        W23626   2.291   3.012  11.769  0.1980 -0.3763  0.1716
 7818W        W23627  16.335   5.307  14.619 -0.0138  0.2766 -0.1956
 7819W        W23628   4.602  14.131   4.725 -0.3584  0.0171 -0.0254
 7820W        W23629   4.598   7.167  12.585 -0.0322 -0.3977  0.0119
 7821W        W23630  18.489   8.990   4.323 -0.1139  0.1230 -0.1537
 7822W        W23631   1.683   2.978  15.352  0.0893  0.0650 -0.0327
 7823W        W23632  18.586  14.192  15.060  0.2580 -0.3669 -0.1921
 7824W        W23633  16.457  14.346   2.644 -0.1419 -0.2168  0.3683
 7825W        W23634   1.556  16.284   1.549  0.1261 -0.2262  0.1843
 7826W        W23635   6.904  13.069  11.571 -0.2109 -0.1404 -0.1633
 7827W        W23636  18.732   5.716  13.977  0.0821  0.1699 -0.2828
 7828W        W23637   5.975   4.195  10.183 -0.1154 -0.1441  0.2629
 7829W        W23638  13.078  10.308   1.996  0.0588  0.0023  0.0618
 7830W        W23639   1.007  12.832   3.017 -0.1584 -0.0623  0.2519
 7831W        W23640  18.777  17.473   5.042 -0.3003 -0.1694 -0.0017
 7832W        W23641   0.225  15.064   3.069 -0.2009 -0.1905  0.1320
 7833W        W23642   7.376   3.879   2.097  0.2271  0.2032  0.0089
 7834W        W23643   4.232   5.043  12.144  0.2211 -0.0788  0.2107
 7835W        W23644   3.950   6.050   1.700 -0.0739  0.1914  0.2179
 7836W        W23645   0.771  12.603  14.991 -0.2016  0.1174  0.1452
 7837W        W23646  16.654  11.945   0.008  0.0748 -0.1325  0.2662
 7838W        W23647  10.900   3.153  14.561 -0.1025  0.0476 -0.2311
 7839W        W23648  16.637  18.350   2.339  0.0118 -0.0049 -0.1272
 7840W        W23649  18.122   1.056  11.431  0.3941  0.4847 -0.2769
 7841W        W23650  15.354   7.315   1.330  0.2057 -0.0575 -0.2409
 7842W        W23651  17.890  13.542   2.756  0.1522 -0.1204  0.2677
 7843W        W23652  16.534  15.817   9.857  0.2379 -0.1649  0.3994
 7844W        W23653   3.070  17.379   1.481 -0.0331 -0.3456  0.2832
 7845W        W23654  10.399  16.601  14.801  0.1792  0.0174  0.0913
 7846W        W23655   6.729   3.465   4.604  0.2144 -0.0789  0.2077
 7847W        W23656  12.533   9.892  13.431 -0.0356 -0.0913 -0.2927
 7848W        W23657   5.632  16.532   0.483 -0.2330 -0.5192  0.0926
 7849W        W23658   6.607   1.383   1.550 -0.1615  0.2727  0.1852
 7850W        W23659  18.171   2.873  13.069 -0.0013  0.0044  0.0791
 7851W        W23660   1.865  18.155  12.033 -0.0637  0.1515  0.0547
 7852W        W23661   7.607   5.746  13.942 -0.0352 -0.0739  0.1025
 7853W        W23662  11.021  14.818  13.716 -0.1788  0.3568  0.0664
 7854W        W23663   0.672  15.011   1.280 -0.1183 -0.3373  0.3674
 7855W        W23664   6.793  14.623  13.408  0.1508  0.1558  0.0673
 7856W        W23665  12.108  16.407   0.756  0.2774  0.2829  0.1016
 7857W        W23666   7.496   0.603   1.286 -0.0269  0.1158 -0.1370
 7858W        W23667   5.026  13.272  11.814  0.2361 -0.1166 -0.0398
 7859W        W23668   0.644   9.823   2.361  0.0714 -0.0605 -0.0003
 7860W        W23669  17.197   1.266  11.547  0.0369  0.0734  0.0974
 7861W        W23670   7.039   5.083   0.935  0.2234  0.0760  0.2355
 7862W        W23671  12.768  18.210  13.411 -0.1546 -0.2415  0.0028
 7863W        W23672   5.757  10.029   0.864  0.2468 -0.1967 -0.4815
 7864W        W23673   3.059   6.130  14.869  0.1462 -0.0601  0.1853
 7865W        W23674   6.243   2.322  12.052  0.1693 -0.0613 -0.1357
 7866W        W23675  11.065   4.344   1.827  0.2741 -0.1290 -0.0048
 7867W        W23676  13.094  10.473   2.726  0.3751  0.1120  0.4198
 7868W        W23677   5.706   2.384   5.257 -0.1237  0.0784  0.3498
 7869W        W23678   9.912  11.070  13.963 -0.0619  0.2569  0.2647
 7870W        W23679  10.473  10.915   5.100 -0.0125 -0.4511  0.5392
 7871W        W23680   6.458  10.168  11.295  0.1456  0.0878 -0.0940
 7872W        W23681  13.816  11.970  14.184 -0.0736  0.1754 -0.0012
 7873W        W23682  10.931  13.729   0.273  0.1724  0.5949 -0.2586
 7874W        W23683  12.970   4.125   5.034 -0.0455  0.1224 -0.1286
 7875W        W23684  17.495   7.437  13.521  0.1691  0.0442  0.1088
 7876W        W23685  17.939  14.540  14.054  0.2993 -0.1245 -0.0301
 7877W        W23686  17.437   4.644   5.198  0.0511  0.0406 -0.0274
 7878W        W23687  11.852  17.390  15.314 -0.0362  0.0387 -0.4334
 7879W        W23688  16.819   3.010  12.427 -0.2500  0.1523 -0.0597
 7880W        W23689  11.396   0.390   2.123 -0.0646 -0.0175 -0.1634
 7881W        W23690   8.689   4.620   5.367 -0.1335 -0.0180 -0.0056
 7882W        W23691  11.957  15.200   1.508  0.2848  0.0339  0.1017
 7883W        W23692  18.725   8.777  14.427 -0.1870  0.0583 -0.0047
 7884W        W23693  14.933   7.099  15.063  0.0840  0.2905 -0.1221
 7885W        W23694   4.685  16.290  12.954  0.3921 -0.0741 -0.0816
 7886W        W23695   6.384  18.129   5.221  0.3540  0.0034 -0.0446
 7887W        W23696   5.181  11.335   3.013 -0.0140 -0.0323 -0.2467
 7888W        W23697  18.329  18.706  15.432 -0.1161  0.4215 -0.0710
 7889W        W23698   5.376   7.728  11.419  0.3687  0.2617 -0.0286
 7890W        W23699  14.888   1.247  15.529 -0.1387  0.1253  0.0834
 7891W        W23700   6.783  15.100   3.039  0.0496  0.2084 -0.1604
 7892W        W23701   4.928  10.594  13.021  0.0613 -0.2338  0.1287
 7893W        W23702   2.413   9.300  12.561  0.1715 -0.2278 -0.2194
 7894W        W23703  15.767  12.822   9.659 -0.0163  0.0762 -0.1703
 7895W        W23704   2.535   5.201  14.243  0.3650  0.0933 -0.0281
 7896W        W23705  14.934   0.119   5.150  0.1103  0.0187 -0.2615
 7897W        W23706   7.372  17.025   4.816 -0.2083 -0.1051  0.0490
 7898W        W23707   2.362   7.406  13.618  0.0836 -0.0047 -0.0199
 7899W        W23708  14.606  12.527  11.191 -0.1472  0.2201 -0.4411
 7900W        W23709   6.759  16.403  10.541 -0.0086 -0.1689  0.1367
 7901W        W23710  10.260  14.935  15.105 -0.2715 -0.2224 -0.0352
 7902W        W23711  13.584   3.757   4.276  0.1202  0.2028 -0.0859
 7903W        W23712   3.480  10.727  13.829  0.0286  0.1523 -0.2551
 7904W        W23713   2.455  17.111  11.461  0.2720 -0.1945  0.0250
 7905W        W23714   0.923   6.464   2.421 -0.1114  0.3287 -0.2802
 7906W        W23715  10.932   9.499   0.671  0.1613 -0.1142 -0.1073
 7907W        W23716   6.932  18.436   0.397 -0.1130 -0.1626 -0.0111
 7908W        W23717  10.749  17.944  13.781  0.1275  0.1904 -0.1062
 7909W        W23718   4.570  12.114   5.479  0.0191 -0.2777  0.4348
 7910W        W23719  14.536   4.156   4.891  0.1951  0.3043  0.1075
 7911W        W23720  15.603   6.280  13.063  0.0115 -0.2175 -0.3770
 7912W        W23721   7.285  10.641  13.091 -0.0674 -0.1190  0.0748
 7913W        W23722   8.409  14.028  12.031 -0.0468 -0.1594  0.2004
 7914W        W23723  16.950  16.101  10.575 -0.0642 -0.3184 -0.0811
 7915W        W23724   6.901   8.715  11.113  0.1919  0.0665 -0.0870
 7916W        W23725   6.887   2.373  14.223 -0.3210 -0.1152  0.1050
 7917W        W23726  17.523  17.145   2.765  0.2001  0.0348 -0.2137
 7918W        W23727   2.428   9.469   3.286  0.1302  0.2676  0.0658
 7919W        W23728  10.390   7.537  14.706  0.1955 -0.1090  0.0709
 7920W        W23729   1.700  12.325  10.140  0.0379  0.0413  0.0776
 7921W        W23730   6.760   7.830  14.496  0.0947 -0.0299  0.3462
 7922W        W23731   9.876  10.614  15.504  0.0203 -0.2443 -0.1294
 7923W        W23732   4.831  15.781  12.964 -0.3049  0.0851 -0.0321
 7924W        W23733  18.233  11.684   9.306 -0.3009 -0.0894  0.0783
 7925W        W23734   1.358  14.988   1.697  0.0805  0.2578 -0.1343
 7926W        W23735   4.456   1.056   5.383  0.1689 -0.2305 -0.0793
 7927W        W23736  17.831  17.111   5.289 -0.1808 -0.2605 -0.0101
 7928W        W23737   6.585   2.203   5.713 -0.2233 -0.2176 -0.0749
 7929W        W23738   1.429   9.570  10.887  0.2512 -0.3747 -0.0320
 7930W        W23739   8.260  18.417   0.464 -0.0718  0.3244  0.1503
 7931W        W23740  10.100   6.916   2.490 -0.2110 -0.1513  0.0316
 7932W        W23741   0.625   7.945   3.609  0.0956 -0.0349 -0.1002
 7933W        W23742   4.846  18.388  15.323 -0.0192  0.0997  0.0333
 7934W        W23743   7.790   1.263   1.313  0.0238  0.2445  0.0554
 7935W        W23744  10.740  16.857  12.284 -0.1024 -0.1664  0.1435
 7936W        W23745  16.696  16.725   1.100  0.3406  0.3012 -0.1076
 7937W        W23746   9.259   2.602   6.104 -0.0163  0.2353 -0.0154
 7938W        W23747  16.068  13.343   1.625 -0.0349  0.1650 -0.0562
 7939W        W23748   1.325  11.699  14.358  0.1221  0.1769  0.3397
 7940W        W23749  16.107  14.369  11.375 -0.1867  0.1066 -0.0558
 7941W        W23750   0.716  16.917   1.467  0.2226 -0.1090  0.0509
 7942W        W23751   4.268   4.289  13.271 -0.0342 -0.0251 -0.0319
 7943W        W23752   5.485   3.835  12.186  0.0057 -0.1854  0.0998
 7944W        W23753   0.532  14.876  15.409  0.0632 -0.1118  0.2118
 7945W        W23754  11.861  10.850   1.857 -0.1249  0.1928  0.0838
 7946W        W23755   6.313  13.886  10.771  0.2640  0.3765  0.3735
 7947W        W23756  15.177   9.468   2.191 -0.0077 -0.2149  0.0782
 7948W        W23757  15.149  13.065   3.438  0.2639 -0.0288 -0.0721
 7949W        W23758  12.544   7.859   5.886  0.1629  0.1187  0.3757
 7950W        W23759  18.299  12.157  11.507 -0.1538  0.1956  0.0550
 7951W        W23760  16.035   5.745   5.987 -0.0159  0.0203 -0.2219
 7952W        W23761   1.542   8.562   2.887 -0.0664  0.1423  0.1139
 7953W        W23762  17.792   0.842   0.887 -0.0185 -0.1494  0.0945
 7954W        W23763   0.398  15.070  12.864  0.1829  0.0320 -0.2655
 7955W        W23764   1.765   4.870  11.413  0.0673 -0.0027  0.3400
 7956W        W23765  11.097   3.623  11.754  0.0902  0.1256 -0.1557
 7957W        W23766   9.836   7.560  13.496 -0.0109  0.1643 -0.2507
 7958W        W23767  11.618  16.364   3.355  0.3011  0.3169  0.2232
 7959W        W23768   7.489  18.328  12.855  0.1210 -0.0810  0.2665
 7960W        W23769   9.379  10.953  10.583 -0.0962  0.0230  0.1274
 7961W        W23770  14.058  12.229   0.147  0.0161  0.1167  0.2111
 7962W        W23771  11.838  11.316  11.669 -0.0210 -0.0780  0.1210
 7963W        W23772   3.890   4.947   4.901 -0.0619  0.2011 -0.2736
 7964W        W23773   9.268   6.321   4.401  0.0497 -0.0894 -0.2303
 7965W        W23774   2.743   9.738  14.928  0.4279  0.3486 -0.1617
 7966W        W23775  11.669   8.266  14.040 -0.1530  0.1750 -0.0797
 7967W        W23776  10.507  12.048  13.250 -0.1503 -0.5627  0.2328
 7968W        W23777   8.464  11.996   2.302  0.0262 -0.1046  0.4182
 7969W        W23778  11.208  15.656  13.082  0.2437 -0.1960 -0.0643
 7970W        W23779   3.908  17.869   0.263 -0.0123  0.0722 -0.4239
 7971W        W23780  12.021   1.192   3.363  0.1903 -0.1549 -0.3476
 7972W        W23781   3.591  14.203  14.549 -0.0178 -0.2456 -0.1209
 7973W        W23782   3.097   5.817   0.903 -0.1444  0.1277 -0.0127
 7974W        W23783  18.610  18.636  12.193 -0.1631 -0.3900  0.2237
 7975W        W23784  10.851  13.803   4.088  0.1724  0.3555 -0.0350
 7976W        W23785  14.905   2.860   1.592  0.2024  0.1572  0.1094
 7977W        W23786   3.907  14.744   1.765 -0.0985  0.0399 -0.0531
 7978W        W23787  12.002   1.902   0.835  0.0239  0.1525  0.0024
 7979W        W23788   9.743  18.019  13.207 -0.2916 -0.0331  0.1931
 7980W        W23789   7.238  11.878   9.713 -0.2910  0.0871  0.2018
 7981W        W23790  13.523   4.775  11.147 -0.0538 -0.0328 -0.2688
 7982W        W23791  11.180  11.254   3.082  0.2980 -0.2338  0.1517
 7983W        W23792   9.175   2.163   1.050  0.0187 -0.0644 -0.1402
 7984W        W23793  12.657   4.856   4.715  0.1038 -0.1227  0.1552
 7985W        W23794  18.029  16.722  10.992 -0.0025  0.2500 -0.2310
 7986W        W23795   3.957  11.852   0.582  0.1282  0.1193 -0.2179
 7987W        W23796   0.505   7.855  15.009  0.1952 -0.0022 -0.0191
 7988W        W23797   8.876   0.265   5.277  0.3150 -0.0700  0.0472
 7989W        W23798   4.133  10.181   4.882  0.3298  0.1852 -0.0251
 7990W        W23799   7.016   4.749   0.530  0.3289 -0.2645 -0.3383
 7991W        W23800   5.449   8.257  14.396  0.0644 -0.3108  0.3869
 7992W        W23801   9.537  18.620   3.698  0.0461 -0.0528  0.0985
 7993W        W23802   2.222   9.101  11.750 -0.2975 -0.0290  0.2808
 7994W        W23803  12.688   6.199  10.726  0.0868  0.1490  0.0391
 7995W        W23804   3.178   5.803   2.885 -0.0474  0.0005  0.2243
 7996W        W23805   2.073  17.255  12.610  0.2731 -0.1182 -0.2011
 7997W        W23806   1.861  12.105   1.078 -0.0418  0.1487  0.0508
 7998W        W23807   3.871   7.035  14.727  0.0413  0.3211 -0.2266
 7999W        W23808   1.045   0.712  14.291 -0.4184 -0.0814 -0.2366
 8000W        W23809  16.406  13.506   1.280 -0.0899 -0.1885  0.0773
 8001W        W23810  10.429   7.491   5.432  0.0972 -0.2692 -0.0019
 8002W        W23811  12.929   2.041   3.985  0.1143 -0.0118  0.3253
 8003W        W23812   4.829   4.937   2.156  0.2067  0.1283 -0.4224
 8004W        W23813   1.680  11.883  13.546 -0.4678 -0.0123 -0.0446
 8005W        W23814   3.667   2.781   0.826 -0.0378 -0.3981  0.1133
 8006W        W23815   1.692   6.130   4.603  0.0910  0.0871 -0.0067
 8007W        W23816   6.903   1.782   1.609  0.0123 -0.0096  0.2529
 8008W        W23817   8.439   9.862   0.561  0.0287  0.0707  0.1895
 8009W        W23818  15.734   4.831   2.912 -0.1450  0.2634  0.0773
 8010W        W23819  10.694   5.205   0.201 -0.1320 -0.0638  0.0020
 8011W        W23820   8.334   8.855   2.570 -0.0931  0.2301 -0.3905
 8012W        W23821   3.521   0.802   2.954 -0.0959  0.0877  0.0017
 8013W        W23822   1.515  15.764  12.249  0.2299 -0.2407 -0.3319
 8014W        W23823   4.379   4.684   5.087 -0.1261 -0.0409  0.1675
 8015W        W23824  14.936   3.772  12.351 -0.2714  0.0160 -0.1665
 8016W        W23825  16.489   6.278   3.841 -0.1809 -0.3913  0.3240
 8017W        W23826  14.062   6.084   4.619 -0.1188  0.0261  0.1853
 8018W        W23827   3.508   9.619   0.496 -0.2260 -0.0380  0.1178
 8019W        W23828  13.803  18.489  13.908  0.0018  0.2086  0.1490
 8020W        W23829  12.808  15.046   6.065 -0.0491  0.2674  0.0780
 8021W        W23830   8.965   4.365  11.583  0.1715  0.1269  0.0592
 8022W        W23831   5.424   2.574   4.741 -0.4182 -0.1023  0.3259
 8023W        W23832  15.123  17.597  13.794  0.1019  0.1486 -0.0472
 8024W        W23833  13.923  10.902  11.530 -0.0990  0.0771  0.0269
 8025W        W23834  10.604  16.477   5.169  0.2690  0.0160 -0.3110
 8026W        W23835  12.695   7.352  12.966 -0.2537 -0.0041  0.2121
 8027W        W23836   1.815  17.399   4.466 -0.0996  0.2206  0.1369
 8028W        W23837   6.334   6.684  11.775 -0.2718  0.1115  0.0946
 8029W        W23838   7.854   6.664   5.369 -0.0880 -0.0366  0.0743
 8030W        W23839   9.897  15.070  13.798 -0.3010  0.3663  0.1261
 8031W        W23840  17.812  11.996   0.422 -0.0580  0.2036 -0.1944
 8032W        W23841   2.521   1.155   0.940 -0.1965  0.1344  0.1353
 8033W        W23842  10.640  15.649  13.830 -0.0955  0.0247  0.4368
 8034W        W23843   3.131   3.004  13.308  0.0565 -0.2220  0.0882
 8035W        W23844   1.043  13.680   3.897  0.0232 -0.0310  0.3221
 8036W        W23845  15.000   7.054   4.056  0.0533  0.3398 -0.2432
 8037W        W23846  10.520   5.161   4.590  0.0240 -0.2819 -0.3426
 8038W        W23847  14.592  10.921  10.752  0.2140  0.4837  0.3383
 8039W        W23848   6.714   9.167   2.888  0.0202 -0.1149 -0.0338
 8040W        W23849  13.353  13.031  11.411 -0.0672  0.0953 -0.1679
 8041W        W23850   7.394   2.897   5.131  0.2715  0.1976 -0.0437
 8042W        W23851   7.102   5.188   1.418  0.2554  0.1666 -0.1681
 8043W        W23852   8.473  10.585  13.474  0.0253  0.0333 -0.0276
 8044W        W23853  13.423   6.850  11.116  0.1692  0.2775 -0.0138
 8045W        W23854   5.825   3.463  15.299 -0.4212  0.1169 -0.0887
 8046W        W23855  13.710  11.561   0.127 -0.1780 -0.2502  0.0480
 8047W        W23856  12.729  10.162  13.861 -0.0073  0.0447  0.1154
 8048W        W23857   9.468   0.569   3.221  0.1196  0.0604  0.1575
 8049W        W23858  13.141  17.238   4.409  0.0081  0.0832  0.0841
 8050W        W23859   0.134  15.185  13.557 -0.1419 -0.0247  0.2901
 8051W        W23860  15.394  14.024  14.625  0.1479  0.0482 -0.1989
 8052W        W23861  16.275   3.811   5.377  0.0713 -0.4983 -0.1609
 8053W        W23862   7.929   0.029  11.100 -0.3334 -0.2821  0.0906
 8054W        W23863   6.004  17.116   1.401 -0.2141 -0.1201  0.3073
 8055W        W23864  13.512   5.763   5.849  0.0013  0.0005 -0.2727
 8056W        W23865   0.878  14.176   3.653 -0.2270 -0.1542  0.0608
 8057W        W23866  14.912  17.474  10.438 -0.0555 -0.2403 -0.2239
 8058W        W23867   2.489   9.849  13.322  0.1442 -0.0876 -0.0477
 8059W        W23868  14.759   0.749   3.886 -0.0420  0.3962 -0.3249
 8060W        W23869   7.213   7.147  13.403 -0.3441 -0.1532  0.1741
 8061W        W23870  13.841   2.072   1.505 -0.0178  0.2456 -0.0519
 8062W        W23871  18.559   1.942   2.791 -0.4365 -0.4835 -0.1598
 8063W        W23872   0.903   7.511  15.221  0.1538  0.1271  0.0420
 8064W        W23873  18.668  17.011  13.567  0.1781  0.1793 -0.0472
 8065W        W23874  10.125  11.034   3.149  0.0084 -0.2111 -0.1225
 8066W        W23875  18.742  15.308  12.634  0.0376 -0.1551  0.0441
 8067W        W23876  18.133   5.575   2.521 -0.1391  0.2130  0.1514
 8068W        W23877  12.076   9.948   3.904 -0.0229  0.0112 -0.0596
 8069W        W23878   0.832   7.285  10.262 -0.0314  0.0856  0.2685
 8070W        W23879   2.524  14.902   1.070 -0.0908 -0.0907 -0.0146
 8071W        W23880  15.419  15.627  13.290  0.4218 -0.2723 -0.0808
 8072W        W23881  15.722  13.868   4.030  0.3136  0.0002  0.0937
 8073W        W23882  12.993   7.662  15.127  0.1731  0.1793  0.0995
 8074W        W23883  12.565   0.495  13.295  0.0648 -0.0680 -0.0178
 8075W        W23884  12.543  14.014  13.736  0.0808  0.1874 -0.0756
 8076W        W23885   8.591   7.557   1.711 -0.4834  0.0257 -0.2960
 8077W        W23886  15.288  11.955   4.776 -0.1521  0.1825  0.1177
 8078W        W23887  10.572  14.724  13.638  0.0140 -0.1023  0.0876
 8079W        W23888   0.678   8.404   3.768 -0.1713 -0.0112  0.4706
 8080W        W23889   2.932   4.763  10.964  0.0732  0.0266 -0.1035
 8081W        W23890   4.051  11.476  15.029 -0.0987 -0.3755 -0.0007
 8082W        W23891  16.952  13.522   1.355  0.1734  0.2100  0.1045
 8083W        W23892   0.943   0.448   2.070  0.3313  0.0159  0.2216
 8084W        W23893   2.763   5.861  15.233  0.0359 -0.1754  0.1270
 8085W        W23894  12.793   9.136  15.518  0.0034 -0.1217  0.1735
 8086W        W23895  18.111   8.903   4.735  0.3803  0.0380 -0.1166
 8087W        W23896  13.830   8.318   5.526 -0.2913  0.1605  0.2691
 8088W        W23897  14.605  11.391  12.602  0.2169 -0.0559 -0.0197
 8089W        W23898  10.399   7.387   3.748 -0.0942  0.0124 -0.0709
 8090W        W23899   8.863  17.552   0.296  0.1320  0.2556 -0.0889
 8091W        W23900   3.829  13.993   0.388  0.0911 -0.1011 -0.2235
 8092W        W23901   1.357   9.935  12.424 -0.1522 -0.1255  0.3303
 8093W        W23902   4.458   1.227  12.373 -0.0860 -0.1681  0.0359
 8094W        W23903   6.389  15.806  14.961  0.0871  0.2932 -0.3445
 8095W        W23904   9.095   1.876  15.171 -0.0212 -0.0873  0.3487
 8096W        W23905   4.044  18.478  13.930  0.0211  0.5058 -0.0432
 8097W        W23906  17.902   4.067   0.276 -0.0081  0.0201  0.1251
 8098W        W23907  18.450  14.102  13.072  0.1587 -0.0328  0.0387
 8099W        W23908  16.084  13.004  11.105 -0.2260  0.1174  0.0613
 8100W        W23909   2.093   6.482  13.904 -0.2196  0.0262  0.1214
 8101W        W23910   1.217  15.802   4.030 -0.0853  0.3287  0.0329
 8102W        W23911  16.544   5.181  10.442 -0.0382 -0.1654 -0.1547
 8103W        W23912   8.678  11.322   1.136  0.0468 -0.1132  0.2007
 8104W        W23913  11.377   3.139   1.147  0.0511 -0.2138  0.0292
 8105W        W23914   6.358  17.408  12.261  0.4717 -0.1472  0.0690
 8106W        W23915  16.780   6.588  15.107 -0.0641 -0.0924 -0.3590
 8107W        W23916  13.328  15.825   2.366 -0.0354 -0.3822 -0.0902
 8108W        W23917  13.884  18.461  12.144 -0.1813 -0.3272  0.0116
 8109W        W23918   4.584   0.794  12.697  0.0403 -0.0120  0.0721
 8110W        W23919   9.417  10.017   0.846 -0.0184 -0.1708  0.1099
 8111W        W23920  13.914   6.927   2.550  0.2207 -0.0036 -0.1180
 8112W        W23921   1.913  12.308  10.968 -0.1580 -0.0185 -0.2089
 8113W        W23922   1.112   0.344  12.332  0.0882 -0.0010 -0.1911
 8114W        W23923  16.031   6.553  14.791  0.0623  0.1170 -0.1318
 8115W        W23924   8.787  17.297  13.219 -0.2061 -0.1262  0.1645
 8116W        W23925  11.036   2.051   0.941 -0.1553  0.1227 -0.1687
 8117W        W23926   2.431  14.055  15.331 -0.0224  0.0302 -0.1628
 8118W        W23927   1.200  16.271  15.185  0.0991  0.3173  0.1691
 8119W        W23928  11.356   3.836   2.653 -0.0158  0.0861 -0.0707
 8120W        W23929  13.371  16.775   5.124 -0.1898 -0.2155  0.0764
 8121W        W23930   5.658   0.903   1.126 -0.2499  0.0354  0.0571
 8122W        W23931   2.267   9.727   1.202 -0.0039  0.1673 -0.0984
 8123W        W23932   9.872  12.824  12.321  0.0872  0.2008  0.1776
 8124W        W23933   1.162  18.363  15.290 -0.4337  0.0825  0.1070
 8125W        W23934   8.659   8.891   5.030 -0.1184 -0.3417  0.1360
 8126W        W23935   0.338  10.177   5.145 -0.0020 -0.0054  0.0579
 8127W        W23936   6.325   5.654   5.968  0.1779 -0.0401 -0.3882
 8128W        W23937   2.841  10.502   4.453  0.1032 -0.2622  0.0423
 8129W        W23938   4.183  18.600  14.792 -0.0171  0.2156  0.2107
 8130W        W23939  17.524  12.881  15.433  0.1625 -0.2710 -0.1050
 8131W        W23940   6.275  11.527   4.189  0.1503 -0.2318 -0.0168
 8132W        W23941  11.703  10.087   4.263 -0.3270 -0.0340  0.0848
 8133W        W23942   7.128   4.706   4.211 -0.1122 -0.2230  0.0860
 8134W        W23943  11.277  10.504   2.470  0.1098  0.1929 -0.1075
 8135W        W23944  17.636  15.957  11.157  0.1925 -0.1273  0.3494
 8136W        W23945   2.725   7.907  12.823 -0.2533 -0.2931  0.0077
 8137W        W23946   3.831   6.965  11.420  0.0488  0.1152 -0.1268
 8138W        W23947  14.128   4.191  13.176  0.1727  0.0176 -0.1964
 8139W        W23948  10.385  18.340  13.452  0.0187 -0.1795  0.2122
 8140W        W23949   9.478   3.395   4.200 -0.2004 -0.1560  0.3574
 8141W        W23950   5.856   1.173   5.496  0.1107  0.2342 -0.1341
 8142W        W23951   3.591   4.851  14.976  0.1802 -0.0983  0.1078
 8143W        W23952  18.476   3.228   3.037 -0.1674 -0.2534  0.1954
 8144W        W23953   9.626  11.762   2.723 -0.1064  0.0538  0.0078
 8145W        W23954  18.693   1.524  14.632 -0.0345  0.0241 -0.1422
 8146W        W23955  11.024   1.995  12.258 -0.0168  0.0315  0.0154
 8147W        W23956   6.932   6.458   0.544  0.0201 -0.3007  0.0848
 8148W        W23957  11.223  11.323  13.227  0.1625 -0.2368  0.2300
 8149W        W23958  16.733   9.614  14.141 -0.1025  0.3639 -0.0670
 8150W        W23959  15.543  13.993  12.659  0.0148  0.2635 -0.3814
 8151W        W23960  14.481   7.171  13.420 -0.0604 -0.2682 -0.2342
 8152W        W23961   6.866   3.584  14.288 -0.0098  0.1204  0.1407
 8153W        W23962  17.655  15.531   1.724  0.1024 -0.0123 -0.3232
 8154W        W23963  12.772  16.344   2.622  0.2238  0.3413  0.0046
 8155W        W23964   8.138   4.956   2.342 -0.1029  0.1355  0.0180
 8156W        W23965  10.968   3.599  12.763 -0.0470 -0.2118  0.1955
 8157W        W23966  10.635  13.706   3.101  0.0995  0.2496  0.1865
 8158W        W23967  16.113   0.614   4.840 -0.1170 -0.0775 -0.0151
 8159W        W23968   3.166   9.183   1.032 -0.3295 -0.0813 -0.0299
 8160W        W23969   2.289  11.267   0.662 -0.1755 -0.2587 -0.1491
 8161W        W23970  17.858  15.561   1.301  0.1999 -0.0204  0.0532
 8162W        W23971  18.123   3.993   2.830  0.0104  0.0086 -0.0307
 8163W        W23972   7.597  14.361   0.106  0.2408 -0.0547  0.0949
 8164W        W23973  14.224   6.572   5.935  0.0596  0.2287  0.0215
 8165W        W23974   1.987  17.449   3.637  0.0559  0.0358  0.6055
 8166W        W23975   9.857   5.827  13.240  0.1143 -0.0021  0.1001
 8167W        W23976   5.669  18.020  13.998  0.1214  0.1474 -0.2318
 8168W        W23977  18.022  17.169   4.786  0.1438  0.0541  0.2173
 8169W        W23978   2.993  18.553   4.287  0.1280 -0.0200  0.1288
 8170W        W23979  15.915  12.383  14.539 -0.0395 -0.0228 -0.0465
 8171W        W23980   7.732   8.702   4.193 -0.0311  0.1231  0.1057
 8172W        W23981   6.677   8.843  12.578  0.1796  0.0125  0.0883
 8173W        W23982  11.770   9.443   1.718  0.0497  0.1189  0.1719
 8174W        W23983   7.940   8.719   5.659  0.1585  0.1507  0.0826
 8175W        W23984   5.068  12.586   3.831 -0.0209 -0.3647  0.0001
 8176W        W23985   1.396   5.145  13.570 -0.1708  0.1856  0.2814
 8177W        W23986  17.046   5.156  14.134  0.0034 -0.0559  0.1384
 8178W        W23987   2.642  17.848  12.683 -0.2856 -0.0887 -0.1039
 8179W        W23988   5.845   1.437  15.201  0.2908  0.1356 -0.3784
 8180W        W23989   6.521   8.252  14.095 -0.0738  0.0428  0.2385
 8181W        W23990   9.340  13.854   2.732 -0.0540  0.2134  0.0033
 8182W        W23991   1.008   4.631   2.073 -0.1988  0.3268  0.0544
 8183W        W23992   7.154   5.979  12.049 -0.1208 -0.0560  0.0617
 8184W        W23993  10.373  12.548   4.473  0.0044  0.0176  0.0136
 8185W        W23994  12.387  12.251   1.569 -0.2136  0.2010  0.1871
 8186W        W23995   5.802   9.796  15.225 -0.1618 -0.0664 -0.1015
 8187W        W23996  17.539  16.480  15.413 -0.5020 -0.2546  0.0516
 8188W        W23997   1.041   0.619  11.816  0.0506 -0.2980  0.1028
 8189W        W23998   8.278  15.516  15.138 -0.1294  0.0918  0.0342
 8190W        W23999   1.088   3.302  11.732  0.1090  0.0730  0.4173
 8191W        W24000   8.238  10.047   4.238  0.1999 -0.1528  0.2660
 8192W        W24001   0.606  17.585  14.573 -0.4539  0.1710  0.2379
 8193W        W24002  14.911  10.884  11.197  0.0373  0.4047  0.0278
 8194W        W24003  14.840   2.757   3.143 -0.0649 -0.2470  0.2879
 8195W        W24004   8.759   8.011  15.139  0.2526 -0.0576 -0.2464
 8196W        W24005   9.819   4.593   1.557 -0.1436  0.1484  0.2297
 8197W        W24006  14.270   3.920  11.267 -0.1574  0.0840  0.0741
 8198W        W24007  17.865   4.181   3.833  0.1817 -0.0838  0.2537
 8199W        W24008   9.690  11.001   2.450  0.3331 -0.2439 -0.2174
 8200W        W24009   6.833   5.229   3.941  0.3134  0.0332 -0.1533
 8201W        W24010   9.505   8.953   4.917  0.0278 -0.1171 -0.1748
 8202W        W24011   2.902  15.281   0.793  0.2394 -0.0128  0.3407
 8203W        W24012  12.509  13.178  13.955  0.0799  0.1841 -0.2555
 8204W        W24013  14.604   3.506   4.325 -0.0295  0.1946 -0.2447
 8205W        W24014   5.143  11.716  10.816 -0.0997  0.0172 -0.1700
 8206W        W24015  14.678  13.544   1.445 -0.1916  0.0024 -0.1342
 8207W        W24016   9.418   5.799   1.136  0.3344 -0.1217  0.2324
 8208W        W24017   7.301  18.674   0.706  0.0048  0.0422 -0.2289
 8209W        W24018  15.200   6.048  11.957 -0.0188  0.1602 -0.1083
 8210W        W24019   1.256  10.905  15.422 -0.1409 -0.2365 -0.2502
 8211W        W24020  15.041   1.584   5.019 -0.0377 -0.2843 -0.0560
 8212W        W24021   7.899   2.936   5.042 -0.3618 -0.1554 -0.0087
 8213W        W24022  11.632   4.798  13.095 -0.0500 -0.1805 -0.1055
 8214W        W24023   0.984   4.310  12.408 -0.0755 -0.2481 -0.0319
 8215W        W24024  18.482   4.674  15.205 -0.2110  0.5747  0.0449
 8216W        W24025   4.065   6.575  11.107 -0.4464 -0.0733  0.2130
 8217W        W24026  17.203   9.932  14.322 -0.1342 -0.0678  0.4260
 8218W        W24027  14.048  11.721  15.297 -0.1465  0.2900  0.4072
 8219W        W24028   5.261  12.406   0.130  0.0205 -0.2215  0.4373
 8220W        W24029   5.436   6.164   5.078  0.1960 -0.0504  0.1158
 8221W        W24030  17.667   0.676  13.639  0.2237  0.2787 -0.1749
 8222W        W24031   4.296  10.011   3.758  0.2003  0.0119 -0.0538
 8223W        W24032   6.579  13.592   1.942  0.0039  0.0763  0.0335
 8224W        W24033  15.807  17.965  13.004  0.0957 -0.2603 -0.1889
 8225W        W24034   9.659  10.501  12.521 -0.0258  0.3304 -0.2322
 8226W        W24035   3.925   7.879   5.068 -0.1331 -0.1364 -0.2009
 8227W        W24036   3.393   6.245   1.001  0.1568  0.0948 -0.1587
 8228W        W24037   8.946  13.083  10.196  0.0691  0.2711 -0.1656
 8229W        W24038   6.080  10.703   2.182 -0.2762 -0.1464 -0.0617
 8230W        W24039   0.820  16.384   5.455 -0.0212  0.2112 -0.0512
 8231W        W24040   2.224   6.705   1.311 -0.3058  0.2820  0.0180
 8232W        W24041  18.442  17.833  15.553 -0.0527 -0.3227  0.3201
 8233W        W24042  13.519   0.736   1.014 -0.3943  0.0500 -0.0167
 8234W        W24043   4.699  17.976  10.430 -0.2960  0.0625  0.0525
 8235W        W24044   6.601  11.956  13.968  0.0601  0.0787  0.3612
 8236W        W24045   3.536   9.162   2.034  0.0382  0.1187 -0.3693
 8237W        W24046   0.388   7.360   0.420 -0.0126  0.0450  0.0198
 8238W        W24047   1.423  13.607  13.426 -0.1281 -0.1322  0.2468
 8239W        W24048  17.460  18.620   5.367  0.0705  0.3591 -0.1691
 8240W        W24049   2.702  11.168   0.988 -0.4133  0.0014 -0.0568
 8241W        W24050  17.872   2.834   0.185 -0.0188 -0.0851 -0.0665
 8242W        W24051  18.032   8.497  13.854  0.2715  0.1312 -0.0603
 8243W        W24052  17.020   7.645   0.249  0.1789 -0.0894  0.1831
 8244W        W24053   2.042   7.650  13.305  0.0894 -0.0734 -0.3565
 8245W        W24054   7.159  18.061  13.859 -0.1303 -0.0138 -0.0052
 8246W        W24055  14.321  17.707  15.538 -0.0485 -0.3049  0.2195
 8247W        W24056   0.303   3.555   2.478 -0.1190 -0.3565 -0.0965
 8248W        W24057   7.472  18.727  14.968 -0.0434 -0.0836  0.1493
 8249W        W24058  15.784   6.827   0.664 -0.0201 -0.1900 -0.2322
 8250W        W24059  11.903   7.088  10.510 -0.0198  0.1204 -0.0567
 8251W        W24060  14.246   3.153   4.259  0.1687  0.1722 -0.0973
 8252W        W24061   3.657   3.490  11.904  0.0830 -0.1640 -0.0133
 8253W        W24062   9.439  11.432   1.491 -0.1570  0.1173  0.0527
 8254W        W24063  15.418   5.174  11.564  0.2233 -0.2853  0.2743
 8255W        W24064   0.965  15.023  10.327 -0.1482  0.0656 -0.2516
 8256W        W24065   1.492  13.757  14.206  0.1464 -0.1749  0.1672
 8257W        W24066  14.863   8.970  12.059  0.2706 -0.1185  0.0866
 8258W        W24067   4.759   4.976  13.773  0.2540 -0.0370  0.0464
 8259W        W24068  15.063   4.506  14.767  0.4676  0.1614  0.2523
 8260W        W24069   8.352  10.689   1.702  0.4326 -0.0327 -0.0253
 8261W        W24070  12.356  12.494   9.651 -0.0703  0.0705  0.0083
 8262W        W24071   2.332  12.508   0.579  0.0947  0.1584  0.0242
 8263W        W24072  18.566   9.227   2.902  0.1728  0.1702 -0.1404
 8264W        W24073  11.699   5.371  10.344  0.2292  0.1180  0.1015
 8265W        W24074   7.040   8.757   3.030  0.2072 -0.0146  0.1840
 8266W        W24075  11.711  16.017   0.837 -0.0389  0.2100  0.2493
 8267W        W24076  16.507  12.275   1.113 -0.4490  0.0550  0.0414
 8268W        W24077   6.869   9.996  12.200  0.1656 -0.2561 -0.1032
 8269W        W24078   8.666   6.145   5.034  0.0741  0.1163 -0.2695
 8270W        W24079   4.175   4.983  15.123 -0.2435 -0.0378  0.2415
 8271W        W24080   4.137   7.431   3.939 -0.5056  0.1457 -0.2754
 8272W        W24081   3.468   9.078  15.345  0.1105 -0.0414 -0.4439
 8273W        W24082   0.313  13.748   0.092 -0.1569 -0.0581  0.1950
 8274W        W24083   3.127  14.714   4.248 -0.1281  0.0889 -0.2227
 8275W        W24084   3.075  12.588  13.607  0.1086  0.1186  0.1849
 8276W        W24085   5.328  17.111   2.059  0.1144 -0.0476 -0.1593
 8277W        W24086   6.965   0.703  10.871 -0.0110 -0.0844  0.3529
 8278W        W24087  13.448  12.179   1.435 -0.1472  0.0220 -0.1870
 8279W        W24088   9.168  14.526   2.162  0.3058 -0.0148 -0.1293
 8280W        W24089   1.352  14.110  10.216  0.1787  0.0380 -0.0285
 8281W        W24090  11.488   9.898   0.220  0.0110  0.3330 -0.2313
 8282W        W24091   2.276   4.034   2.485 -0.1571 -0.0907 -0.3329
 8283W        W24092   5.857   3.368  12.892 -0.1407  0.0802 -0.0222
 8284W        W24093  17.921   6.087   5.011 -0.0551  0.0551  0.1356
 8285W        W24094   8.204  14.644   1.574 -0.3392 -0.0204 -0.3029
 8286W        W24095  11.784  10.664  12.234  0.1309  0.1372 -0.0042
 8287W        W24096  11.612   6.605   4.270 -0.1840 -0.1337  0.1597
 8288W        W24097  12.468   9.465  11.145 -0.0001 -0.0295 -0.2174
 8289W        W24098   8.495   5.560   3.384  0.0902 -0.1489  0.2474
 8290W        W24099   1.901   2.725  13.933  0.1455 -0.0240  0.0274
 8291W        W24100  18.396  15.390   2.359 -0.2773  0.1580  0.1345
 8292W        W24101   5.775   3.448  11.226  0.2016  0.1758 -0.2726
 8293W        W24102   1.966   7.660  13.826  0.1363  0.3913  0.1877
 8294W        W24103  11.737   9.071   0.188  0.1870 -0.0363 -0.0435
 8295W        W24104  18.130  13.644   4.674 -0.2584  0.2340 -0.0068
 8296W        W24105   0.300   9.161  15.386  0.0408  0.0254  0.0881
 8297W        W24106   6.995  12.433  11.191  0.1011 -0.0268  0.2323
 8298W        W24107  16.377  17.531  13.469 -0.1496 -0.0239  0.3718
 8299W        W24108   8.716   3.061   2.953 -0.0866 -0.0566 -0.0002
 8300W        W24109  14.129   1.307  12.190 -0.0054 -0.0143  0.1369
 8301W        W24110  11.253  15.992  12.626 -0.0476 -0.1540  0.0859
 8302W        W24111  13.275  16.699  13.380 -0.1659 -0.3350 -0.2135
 8303W        W24112  15.830   0.942   1.055  0.1028 -0.2518  0.0175
 8304W        W24113   2.781   4.869  15.446  0.1122 -0.0707  0.0991
 8305W        W24114   0.545  13.954   2.718  0.1762  0.2203  0.2993
 8306W        W24115  15.742  11.800   0.652 -0.1123  0.0707 -0.0450
 8307W        W24116   5.645  10.091  15.533  0.0204  0.1438  0.3123
 8308W        W24117   5.902  16.047   5.185 -0.1233 -0.2008  0.2007
 8309W        W24118   8.179  12.316   3.617 -0.0488  0.0225  0.3086
 8310W        W24119  10.089  18.514  11.571  0.2236  0.1590  0.1905
 8311W        W24120  18.406   3.033   1.977 -0.0708  0.2751  0.0376
 8312W        W24121   9.923  18.146   2.421 -0.0855 -0.1705  0.1268
 8313W        W24122  17.128  12.545   0.695 -0.3264  0.2770  0.1253
 8314W        W24123   1.859   1.416  13.126  0.1692 -0.1732  0.0776
 8315W        W24124  16.658   4.709  10.605 -0.1480  0.0455  0.0060
 8316W        W24125   6.307  13.375  10.821 -0.0739  0.0052  0.0913
 8317W        W24126   1.124  11.824  13.516 -0.3637 -0.0493 -0.1310
 8318W        W24127  17.335  15.910  13.447  0.0996 -0.0888  0.2093
 8319W        W24128  14.902  15.849  13.529  0.2767  0.2545 -0.3778
 8320W        W24129  15.494  17.796   3.211 -0.0414 -0.2468  0.2152
 8321W        W24130   9.377   2.060  11.045 -0.0619 -0.0337  0.0914
 8322W        W24131  11.937  18.146   2.467 -0.1242 -0.0390  0.0609
 8323W        W24132   9.695  13.350  15.411 -0.1587 -0.1015  0.1609
 8324W        W24133   4.006   4.457   2.673  0.2334 -0.0015 -0.0132
 8325W        W24134   6.462  12.572   3.896 -0.0079 -0.2207  0.0451
 8326W        W24135  16.629   5.642   1.885 -0.5162  0.2003 -0.1759
 8327W        W24136  17.674   1.088   3.155  0.0003  0.2808  0.2024
 8328W        W24137  18.221  15.945   3.400  0.0817 -0.6417  0.0714
 8329W        W24138  12.673   6.448  13.116  0.1476 -0.2618  0.4532
 8330W        W24139  13.032  16.002   0.446 -0.3453  0.1170  0.1357
 8331W        W24140  11.402   5.862   5.225  0.1134  0.0202  0.2983
 8332W        W24141   1.007   2.819  13.848  0.1103 -0.1123 -0.3868
 8333W        W24142   7.490   2.181   3.185  0.0284 -0.0284 -0.0027
 8334W        W24143   6.701  14.732   4.056  0.5224  0.0426 -0.0739
 8335W        W24144  14.026   5.018   2.204  0.2623 -0.3618  0.2071
 8336W        W24145   1.202   2.554  12.285  0.0278  0.0262  0.2244
 8337W        W24146  11.735  12.255  10.082  0.1542 -0.1563 -0.1467
 8338W        W24147   8.658   2.519  14.505  0.4829  0.0142  0.0299
 8339W        W24148  14.358  16.957   2.312  0.3692  0.1963  0.1818
 8340W        W24149   9.553  13.608   2.307 -0.2656  0.0753  0.0189
 8341W        W24150   0.042  15.314   4.366  0.0765 -0.0409 -0.1288
 8342W        W24151  17.190  17.502  13.356  0.3072 -0.2335 -0.1723
 8343W        W24152   7.956  12.755   0.075 -0.2854  0.0448  0.0369
 8344W        W24153  18.578   8.039   3.340  0.0328  0.1125  0.0639
 8345W        W24154   8.054   4.943   0.496 -0.1068  0.0185  0.3199
 8346W        W24155  17.601  12.962   1.144  0.2040  0.1416  0.0961
 8347W        W24156  15.051   9.309  12.486 -0.1016  0.1773 -0.0347
 8348W        W24157   6.082  15.826  11.980 -0.3421 -0.0466 -0.2697
 8349W        W24158   7.794  15.357  15.318 -0.0090 -0.3059 -0.0304
 8350W        W24159  12.270  14.454  15.395 -0.0229 -0.0131  0.1140
 8351W        W24160  16.391  14.812  13.306  0.2728  0.0602 -0.2441
 8352W        W24161   8.856  14.736  12.154  0.1464  0.0756 -0.2762
 8353W        W24162  16.915   7.293  15.423  0.0578 -0.0055  0.0210
 8354W        W24163  10.244  13.779   3.768  0.0866 -0.2330 -0.3732
 8355W        W24164   5.355   2.063  12.261  0.2071  0.0920 -0.2947
 8356W        W24165  17.729  15.525   6.039 -0.1384 -0.1341 -0.0712
 8357W        W24166   7.315   3.443   5.589  0.1826 -0.0823 -0.0003
 8358W        W24167  13.984   7.764  11.218  0.0762 -0.0112 -0.0163
 8359W        W24168   4.414   5.269  13.519 -0.1321 -0.2602 -0.1333
 8360W        W24169   3.934   4.074  10.322 -0.0762  0.2655  0.0045
 8361W        W24170  13.982  13.251  12.884  0.0023 -0.0434 -0.1902
 8362W        W24171  15.345   1.706  11.864 -0.2539  0.0417  0.0992
 8363W        W24172   3.183   6.840  11.263  0.1083 -0.1424 -0.1175
 8364W        W24173   1.071   7.637   5.605 -0.3578  0.0177 -0.0278
 8365W        W24174  18.321  17.106  13.960 -0.2801  0.0421 -0.0221
 8366W        W24175  18.180  10.037   2.937  0.0101 -0.0913  0.4660
 8367W        W24176  12.117  12.078  11.729 -0.1252  0.0699 -0.0442
 8368W        W24177   0.857  16.222   0.824 -0.2734 -0.0342  0.0009
 8369W        W24178  16.162   1.578  14.136  0.2044  0.1133 -0.1304
 8370W        W24179   7.945   2.546   3.827 -0.2953  0.0633 -0.1856
 8371W        W24180  14.120  18.264   4.804  0.2076 -0.0755  0.0632
 8372W        W24181   9.608   7.862   5.306 -0.2239  0.3855 -0.0344
 8373W        W24182   4.634  16.152  14.246  0.2589 -0.2290  0.0101
 8374W        W24183  17.838  16.192   0.413 -0.0425  0.0701  0.0737
 8375W        W24184  12.517  10.044   1.389 -0.0007  0.0005  0.1096
 8376W        W24185  18.098   6.005  11.940 -0.1480  0.1604 -0.1368
 8377W        W24186   0.032  11.132  12.203 -0.0823 -0.0901  0.1123
 8378W        W24187   9.129  15.641   1.283 -0.3582 -0.1734 -0.0245
 8379W        W24188  13.177  13.155  14.201  0.1184 -0.0207 -0.0185
 8380W        W24189  13.497   1.985  14.859 -0.0095 -0.0769  0.1292
 8381W        W24190  15.327  17.948  14.701 -0.2445  0.2133 -0.2968
 8382W        W24191   1.739   0.918  13.099  0.1555  0.0597  0.1810
 8383W        W24192   1.261  16.320  10.054 -0.1032  0.3927 -0.3005
 8384W        W24193  11.451  14.771   0.912  0.0937 -0.1090  0.3401
 8385W        W24194   9.565  13.639   5.084  0.1779  0.2054  0.3458
 8386W        W24195  10.154  12.393   2.593  0.1461 -0.1515 -0.2777
 8387W        W24196   6.342   9.794  15.000 -0.1114  0.0974  0.1407
 8388W        W24197  16.619  10.971  10.719  0.0058 -0.0705 -0.1568
 8389W        W24198  17.626  10.500  13.550  0.0550  0.1969 -0.1005
 8390W        W24199  18.463  17.790   3.690 -0.0661 -0.1388  0.1709
 8391W        W24200   8.597  16.783  11.149  0.3427 -0.2559  0.2038
 8392W        W24201   1.040   9.773  14.680 -0.1247  0.1539 -0.5308
 8393W        W24202  18.268  14.973   1.961 -0.1775 -0.0318 -0.0407
 8394W        W24203  13.819  14.674  11.585 -0.0404 -0.1359  0.2506
 8395W        W24204  15.462   8.909  12.648 -0.0772 -0.0919 -0.0731
 8396W        W24205  15.199   8.049  13.893  0.0017 -0.0070 -0.1362
 8397W        W24206  14.851  12.540  13.543 -0.1831  0.0958 -0.2696
 8398W        W24207   8.298  15.744   1.874 -0.0657  0.0626 -0.0371
 8399W        W24208   5.562   3.686   4.033 -0.2381  0.0571 -0.1293
 8400W        W24209   3.353   1.373  12.503 -0.0140 -0.2224 -0.1621
 8401W        W24210  11.867  12.933   4.239  0.1868 -0.1111 -0.1721
 8402W        W24211   3.413  11.169  14.020 -0.1359 -0.2002 -0.2277
 8403W        W24212  11.679   8.235   3.972 -0.0523  0.1591 -0.0250
 8404W        W24213  11.800   4.315   0.347  0.0199 -0.0250  0.2864
 8405W        W24214   0.712   2.361  10.800 -0.0341 -0.0749  0.1771
 8406W        W24215   5.484  11.604  15.178  0.0343 -0.4439  0.4299
 8407W        W24216   2.095  14.375  10.755  0.3763 -0.5131 -0.3273
 8408W        W24217   2.033   1.504   0.293  0.0453 -0.4002 -0.0019
 8409W        W24218  13.383  18.357   5.879 -0.3306 -0.0405 -0.0150
 8410W        W24219   2.923  18.192  10.083  0.1791 -0.0287  0.1913
 8411W        W24220  14.702   3.515   3.322  0.0721  0.1164 -0.0000
 8412W        W24221  14.904   6.881   0.449 -0.1192 -0.3784  0.0855
 8413W        W24222   0.406   5.543  11.232 -0.0110 -0.0469 -0.5144
 8414W        W24223   3.838   6.720   3.974 -0.0530 -0.0286 -0.0326
 8415W        W24224   5.494   9.396  15.097  0.3168 -0.0163 -0.4713
 8416W        W24225  14.444   2.685   4.005 -0.2970 -0.0671 -0.0309
 8417W        W24226  17.980   2.567   5.967  0.0742  0.0988  0.0772
 8418W        W24227  10.603   2.490   2.824 -0.0371 -0.0927 -0.4008
 8419W        W24228   9.690  13.584   1.392  0.0797 -0.0599  0.3415
 8420W        W24229   2.589  16.611  11.486 -0.1311 -0.1004  0.1846
 8421W        W24230  13.729  12.000  12.682 -0.0841  0.2583  0.0141
 8422W        W24231   5.429   0.937   3.812  0.3935  0.0441 -0.0124
 8423W        W24232   7.164   6.521  15.023 -0.0131 -0.1121 -0.0479
 8424W        W24233   0.962  11.859   0.998  0.0653 -0.0139 -0.0886
 8425W        W24234   8.914   1.577   3.977 -0.1529  0.0114  0.1039
 8426W        W24235   8.543   6.207  11.715  0.4778  0.0538  0.0004
 8427W        W24236   6.035   5.495   2.351  0.0293  0.2288 -0.0533
 8428W        W24237  17.481  15.493  10.929  0.2376  0.3061 -0.0010
 8429W        W24238   7.800   1.783   2.960  0.0342 -0.4370 -0.3725
 8430W        W24239  12.393  14.259   3.095 -0.0051  0.1633 -0.0014
 8431W        W24240   5.592  16.719  14.473 -0.0820  0.0167 -0.2674
 8432W        W24241   7.277   2.970   1.127 -0.0478 -0.0882  0.0303
 8433W        W24242   7.476   1.953  13.056  0.1746  0.1306  0.0604
 8434W        W24243  12.893   2.579   0.825 -0.4051 -0.1586  0.1458
 8435W        W24244  14.384  14.938   2.031 -0.2573 -0.1932 -0.0622
 8436W        W24245  17.600  10.192  14.471 -0.0616 -0.3965  0.1175
 8437W        W24246   1.693   0.258   2.892 -0.0386  0.3760  0.0886
 8438W        W24247  17.757  17.599   5.454 -0.0046 -0.3754  0.1402
 8439W        W24248   1.237  14.162  10.949 -0.2434 -0.1403 -0.0045
 8440W        W24249   2.752   0.034  12.641 -0.0580  0.1473 -0.2077
 8441W        W24250  17.524  11.042   2.033 -0.0968  0.0806 -0.0814
 8442W        W24251   8.584   1.030  13.142  0.1074  0.0809 -0.1025
 8443W        W24252   7.679   9.464  12.122  0.0076 -0.0811 -0.0127
 8444W        W24253  17.447   6.764   1.889 -0.0383 -0.1597 -0.0553
 8445W        W24254  11.209  17.063  11.484 -0.3629 -0.0442 -0.2067
 8446W        W24255   9.904  12.106  11.550  0.0185  0.0800  0.3685
 8447W        W24256  12.705   4.532   4.340  0.1658 -0.0140 -0.1736
 8448W        W24257  17.835   8.939  13.356 -0.1139  0.0034  0.0667
 8449W        W24258   6.804   9.405   4.258 -0.0989  0.0208  0.2172
 8450W        W24259   5.475   2.350   2.289  0.1554 -0.1081  0.0310
 8451W        W24260  12.407   9.385  11.673 -0.0442 -0.2392 -0.2552
 8452W        W24261  13.901   8.984   0.738  0.1636 -0.0012  0.1908
 8453W        W24262   9.336   3.149   3.683  0.1548 -0.0240  0.0895
 8454W        W24263   4.096  12.619   4.162 -0.4423 -0.0539  0.0695
 8455W        W24264  14.797  10.448  10.858 -0.0175 -0.2212  0.4168
 8456W        W24265   5.601  15.122  15.146 -0.0838  0.0414 -0.1035
 8457W        W24266   9.171  13.670  11.487  0.1802  0.2289 -0.0035
 8458W        W24267   7.064   9.703   5.895 -0.0253 -0.0594  0.1204
 8459W        W24268   4.112   0.499   4.189 -0.1326 -0.1149 -0.0523
 8460W        W24269   9.491   5.242   4.505  0.0101 -0.2654  0.1990
 8461W        W24270  17.269  15.567  13.918 -0.5603 -0.0733  0.0805
 8462W        W24271   7.556   1.016   1.726 -0.5689 -0.2967 -0.2084
 8463W        W24272  12.093   2.231  12.972  0.0300 -0.1795  0.0400
 8464W        W24273   5.962   2.471   2.518 -0.1635  0.3670  0.0588
 8465W        W24274  18.222   2.696   2.828 -0.1499 -0.2158  0.2536
 8466W        W24275   4.750   6.766   0.965 -0.2066  0.0523  0.1159
 8467W        W24276   4.001   9.483   0.529 -0.1740 -0.3542  0.4274
 8468W        W24277  14.936   9.490   3.277  0.0065 -0.0098  0.0574
 8469W        W24278  13.428   0.983   0.529  0.1244 -0.0855 -0.1136
 8470W        W24279   7.867  18.551   5.949  0.1985 -0.0376 -0.2056
 8471W        W24280   8.943   9.139  14.465 -0.0394 -0.1264  0.1842
 8472W        W24281   5.709  17.417  11.001 -0.1641  0.2558  0.2179
 8473W        W24282  10.495   9.699   0.170 -0.0255 -0.2885  0.0865
 8474W        W24283   4.876  11.446  11.986 -0.0042 -0.2224  0.1818
 8475W        W24284  13.785   5.100  10.839 -0.3361 -0.0407 -0.1233
 8476W        W24285   2.722  12.643   0.931 -0.0227  0.2118 -0.1047
 8477W        W24286  12.721   2.906  11.767 -0.0352  0.1414  0.5548
 8478W        W24287   1.036  12.828  14.485 -0.2923  0.1056  0.0920
 8479W        W24288   7.308   8.922   1.424  0.2322 -0.0215 -0.3937
 8480W        W24289  17.074  16.046   2.928 -0.0168  0.0615 -0.0283
 8481W        W24290   8.277   2.312   4.175 -0.1527 -0.2139 -0.2654
 8482W        W24291   1.746  12.628  11.980 -0.0599  0.3407  0.1229
 8483W        W24292  16.323   4.060  14.821  0.1161 -0.1044  0.2784
 8484W        W24293  17.592   2.213   6.066 -0.2166  0.1649 -0.0491
 8485W        W24294  13.821  16.732   5.825 -0.3054  0.1840  0.2754
 8486W        W24295  15.649   0.046  10.209  0.2116 -0.3916  0.1689
 8487W        W24296  18.009   2.243  13.677 -0.1891  0.3795 -0.2856
 8488W        W24297   1.830   1.483   1.568 -0.0252  0.0167  0.2092
 8489W        W24298  16.400  13.337  11.448  0.0034 -0.0089 -0.1613
 8490W        W24299   8.691   3.801  15.431 -0.1418 -0.3345  0.0212
 8491W        W24300   0.062  17.221  10.923 -0.2544  0.0217 -0.2644
 8492W        W24301   4.773  14.025  15.316 -0.4260 -0.0536  0.0595
 8493W        W24302   3.772   6.628   3.137  0.0944 -0.2292  0.0236
 8494W        W24303  11.717   8.516   9.686 -0.2448 -0.2214 -0.0383
 8495W        W24304   7.400  16.662   9.773 -0.3371 -0.0730 -0.0647
 8496W        W24305   8.929   9.076   3.644  0.0442 -0.3106  0.0270
 8497W        W24306  15.646  11.149   3.743 -0.4197 -0.1562 -0.0891
 8498W        W24307  14.586   5.329  13.903 -0.4511  0.2549 -0.4150
 8499W        W24308   0.960   7.438  11.540  0.2729  0.2213 -0.0531
 8500W        W24309  15.825  12.844  14.796  0.2370  0.0666  0.2000
 8501W        W24310   6.191   2.883   3.554 -0.1197  0.5007  0.0035
 8502W        W24311   2.075   7.254  12.858 -0.1189  0.0324 -0.0510
 8503W        W24312   5.618  16.555  12.620 -0.3421 -0.1191 -0.0059
 8504W        W24313   6.299   7.635  12.845  0.0394  0.2920 -0.1645
 8505W        W24314   7.503  12.875   0.170  0.0645  0.1716 -0.0401
 8506W        W24315  13.184   1.739  13.382 -0.1950 -0.1084  0.0602
 8507W        W24316  12.465   9.367  10.663 -0.1840  0.0460  0.0137
 8508W        W24317   1.519  17.976  13.984 -0.1409 -0.1997  0.0605
 8509W        W24318  11.251  12.462  10.662 -0.3240  0.1136 -0.1827
 8510W        W24319  12.246   6.426  14.623  0.0381 -0.0190  0.0546
 8511W        W24320   3.830   4.204   4.539 -0.6068  0.0540  0.1165
 8512W        W24321   0.731  18.317   0.451 -0.1423 -0.0004  0.0393
 8513W        W24322  12.070  14.456   5.540  0.0655  0.1086 -0.1761
 8514W        W24323   8.144  12.261   4.088 -0.1262  0.2817  0.0232
 8515W        W24324   3.417   8.584   3.390  0.0917 -0.0728 -0.0713
 8516W        W24325   2.571  18.103  14.523 -0.3236 -0.0930 -0.1130
 8517W        W24326  13.755   0.825   2.304 -0.1309 -0.1026  0.4020
 8518W        W24327   0.542  10.150   0.130  0.0016 -0.1831  0.1054
 8519W        W24328   2.940  16.507  15.314 -0.1525 -0.2595 -0.3614
 8520W        W24329  13.605   2.331   6.056  0.0528 -0.0356  0.1145
 8521W        W24330   6.121  10.009  10.932 -0.0270 -0.0101  0.0484
 8522W        W24331   9.808   9.148  11.529  0.0343  0.3961  0.0564
 8523W        W24332   3.737   8.183  12.402  0.3439  0.0665 -0.2075
 8524W        W24333   4.523  11.786  11.102  0.1170 -0.0231 -0.2273
 8525W        W24334   3.946  17.379   0.995  0.1415  0.2059  0.3286
 8526W        W24335  14.715   9.570  14.383 -0.0915 -0.0283 -0.2043
 8527W        W24336  18.044   4.016   5.349 -0.0793  0.2819 -0.1004
 8528W        W24337   9.995   4.894   1.900 -0.0386  0.1761  0.1651
 8529W        W24338   0.075   8.798  12.462 -0.1449  0.0198 -0.1119
 8530W        W24339   8.043   6.826   2.792 -0.0464 -0.1803  0.0064
 8531W        W24340   2.133  16.919  15.225 -0.3034 -0.1075 -0.1349
 8532W        W24341   8.851   1.956   4.268  0.1126 -0.1084 -0.1458
 8533W        W24342  17.990   0.880   1.415  0.0201 -0.0852 -0.3031
 8534W        W24343   3.188  11.359   3.634 -0.2695  0.0423 -0.1048
 8535W        W24344   2.326   3.600  14.360 -0.1734  0.2593 -0.1054
 8536W        W24345  14.941  17.334  10.877 -0.0603  0.0108 -0.2769
 8537W        W24346  15.595   1.577   3.097 -0.1126  0.0059  0.0556
 8538W        W24347  13.845  14.961  11.999 -0.2735 -0.1286 -0.0691
 8539W        W24348   6.711   3.291  12.300  0.1724 -0.2378  0.0398
 8540W        W24349   6.756  11.586   5.688  0.0787 -0.2438 -0.0390
 8541W        W24350   1.529  16.000   4.884  0.1669 -0.3180  0.0050
 8542W        W24351   2.186   7.047  15.481 -0.2266  0.1102 -0.1257
 8543W        W24352   0.308  18.465  12.308  0.1799  0.3682  0.0976
 8544W        W24353   5.103  10.076  11.829  0.0572 -0.1727  0.1906
 8545W        W24354   6.848   5.037   4.955  0.0334  0.0210  0.0463
 8546W        W24355   5.652   7.693   2.916  0.1228 -0.3074 -0.1201
 8547W        W24356  11.928  15.864  11.301  0.0084 -0.0817  0.0920
 8548W        W24357   5.412   2.893   0.523  0.0006  0.3646  0.0142
 8549W        W24358  10.646   0.515  13.554  0.0400 -0.1607 -0.2985
 8550W        W24359  14.967  18.608  14.449 -0.1664  0.1680 -0.0320
 8551W        W24360   3.350  14.562   0.875 -0.1293  0.4061 -0.2048
 8552W        W24361  14.382  14.565   2.305  0.1281 -0.0287 -0.1579
 8553W        W24362   1.298   7.784  10.846 -0.1459  0.1668 -0.0650
 8554W        W24363  12.372   3.131  10.264  0.1318  0.2903 -0.2043
 8555W        W24364   4.270   7.794  14.901  0.0872 -0.0486 -0.2399
 8556W        W24365   9.376   5.248   3.999 -0.5088 -0.3830  0.0503
 8557W        W24366  10.483  13.177   0.909  0.0219 -0.1642  0.2632
 8558W        W24367  10.772  13.924   4.791 -0.3016  0.1553  0.4116
 8559W        W24368  11.316  11.540   4.677 -0.1562 -0.1399 -0.2507
 8560W        W24369   0.869  10.838   3.214  0.2969  0.2602  0.1254
 8561W        W24370   0.842  10.411  14.865 -0.0427  0.0877  0.3977
 8562W        W24371   4.797   0.415   4.852  0.1973  0.0131 -0.1638
 8563W        W24372   2.097  16.730   2.368 -0.0872  0.2137 -0.2786
 8564W        W24373  16.062   2.178   3.084 -0.1317 -0.2201 -0.0391
 8565W        W24374  15.301   5.473   1.116 -0.2327  0.0977  0.1375
 8566W        W24375  17.843   5.672   0.493 -0.0609 -0.1637  0.1268
 8567W        W24376   2.511  11.515  11.048  0.0980 -0.1033  0.0272
 8568W        W24377   4.770   3.344   2.829  0.1067 -0.0553  0.0124
 8569W        W24378  10.427   7.971   1.951  0.1543  0.0972 -0.1858
 8570W        W24379  12.419   5.527  14.934  0.1741 -0.1130  0.2225
 8571W        W24380  11.339  13.168  13.943 -0.3150  0.1488 -0.1414
 8572W        W24381  14.525   4.295  11.569  0.1035 -0.2051 -0.5206
 8573W        W24382  11.330  16.298   1.116  0.2041 -0.3562  0.0327
 8574W        W24383  10.925   2.864   1.037 -0.3010 -0.4862 -0.2031
 8575W        W24384  17.517  11.913  11.203 -0.0521  0.1172 -0.4812
 8576W        W24385  13.846   4.522   2.715 -0.1570  0.0667  0.1097
 8577W        W24386  10.301  10.659   1.345  0.1112 -0.0345 -0.0769
 8578W        W24387  16.801   5.740   2.999 -0.1734 -0.0087 -0.0408
 8579W        W24388   7.564   3.396  11.325 -0.1716  0.0160  0.1013
 8580W        W24389   0.079  14.818  12.510  0.0877 -0.3034  0.0936
 8581W        W24390  12.510   8.520  12.195  0.0749 -0.0932 -0.0435
 8582W        W24391   5.252   2.404  13.140 -0.0991 -0.0915 -0.0767
 8583W        W24392   6.940   6.398   4.440 -0.2091  0.1207  0.2764
 8584W        W24393   4.838  17.640   2.560 -0.2896  0.0043  0.1004
 8585W        W24394   6.141  16.987  10.122  0.2424  0.1230 -0.4154
 8586W        W24395   7.658  10.343  10.604 -0.1785  0.5788 -0.2211
 8587W        W24396  13.001   0.438  13.512 -0.0282  0.3184 -0.2141
 8588W        W24397  12.667   1.196  13.890 -0.2861  0.0597  0.0119
 8589W        W24398   1.499   0.845  11.952  0.1454  0.0430  0.0272
 8590W        W24399   3.769   9.383  14.814 -0.0508 -0.1784  0.0600
 8591W        W24400  17.133  12.607   4.626 -0.0494  0.2618 -0.1588
 8592W        W24401  17.406   4.383   0.413 -0.0428 -0.2047 -0.1184
 8593W        W24402   5.721   0.312   2.369 -0.2030 -0.1968 -0.3872
 8594W        W24403   3.927  13.466   1.415 -0.0888  0.0633  0.1697
 8595W        W24404  11.571  12.328   0.243  0.2009 -0.1155 -0.1749
 8596W        W24405  12.163  10.924   5.238 -0.0572 -0.1386  0.6187
 8597W        W24406   1.619  18.490   1.631 -0.0377 -0.2228  0.0863
 8598W        W24407   6.054   6.633   2.094  0.1587  0.1752  0.1749
 8599W        W24408   7.345  10.836   1.562  0.2372 -0.2371 -0.0161
 8600W        W24409   1.888   7.990   0.359  0.2030 -0.2566  0.4073
 8601W        W24410  15.879   7.603   4.157 -0.1133 -0.0945 -0.1310
 8602W        W24411   1.349   9.520  15.130  0.2874 -0.0901  0.0472
 8603W        W24412   2.924  13.088   1.591  0.1484  0.0460  0.4618
 8604W        W24413  11.117   1.262  11.530 -0.0512 -0.2358 -0.1104
 8605W        W24414   3.602  16.656  12.057  0.2604  0.0980  0.3912
 8606W        W24415   0.120  18.388  14.513 -0.3401  0.1406  0.0541
 8607W        W24416   2.324  11.634  10.608 -0.2315 -0.1072  0.0128
 8608W        W24417  15.185   5.871  15.435  0.2592 -0.0498 -0.0360
 8609W        W24418   1.805  15.590  15.295  0.0795  0.0516  0.1213
 8610W        W24419   6.434  16.312  13.435 -0.0316  0.0864 -0.1916
 8611W        W24420   0.549  12.987  13.260  0.0766  0.3715  0.1218
 8612W        W24421  12.558   9.272   0.373 -0.2007  0.0249 -0.1860
 8613W        W24422   6.292  10.279  14.760 -0.0886 -0.0608 -0.2719
 8614W        W24423  11.574   9.751  13.231 -0.0280 -0.2378  0.3799
 8615W        W24424  12.787  17.811  11.641 -0.0412 -0.2381  0.2565
 8616W        W24425   1.748   2.095  14.704  0.1012  0.0102 -0.0307
 8617W        W24426   7.215  12.480   0.265 -0.1038 -0.0642  0.0819
 8618W        W24427  15.657   4.652  14.773  0.0656 -0.0808  0.0675
 8619W        W24428   0.782   8.887  15.155  0.0296  0.2375 -0.2918
 8620W        W24429   4.933   8.547  11.462  0.1479 -0.0704 -0.2575
 8621W        W24430   0.594   1.108  12.069 -0.0667 -0.0426 -0.1070
 8622W        W24431   1.242  15.965  13.235 -0.2204 -0.0580 -0.1110
 8623W        W24432   7.954  18.139  14.510 -0.0332  0.2019 -0.0675
 8624W        W24433   2.478  11.503   0.202  0.2572  0.2280  0.4308
 8625W        W24434  17.205  12.237  12.435  0.1682  0.2287 -0.0604
 8626W        W24435   6.883   5.812   2.690 -0.0245  0.1298 -0.3530
 8627W        W24436   2.159  12.947   9.606 -0.0267  0.2111 -0.0019
 8628W        W24437   8.433   5.860   1.361  0.0202  0.0911  0.0807
 8629W        W24438   2.523  10.057   0.297 -0.2624  0.0375  0.1363
 8630W        W24439  18.248  10.425   1.858  0.1559  0.2060  0.3801
 8631W        W24440   7.063   5.469  13.900 -0.0460 -0.3204 -0.2573
 8632W        W24441  10.131  14.421  15.212 -0.0296 -0.1683  0.3156
 8633W        W24442  12.606   4.292   1.986 -0.1778  0.4110 -0.2729
 8634W        W24443  13.848  16.206  15.364 -0.0523 -0.2847  0.1063
 8635W        W24444   5.615  11.180   0.885  0.1306 -0.1701  0.1693
 8636W        W24445   0.377  17.431  14.159 -0.3082 -0.0265 -0.0074
 8637W        W24446   5.777   3.887   1.125 -0.3575  0.2130 -0.2580
 8638W        W24447   4.528   8.558   3.129  0.0155  0.0855 -0.1228
 8639W        W24448  14.445   6.707   4.069  0.0320 -0.1886  0.0904
 8640W        W24449   4.406   0.195   1.359 -0.0298  0.2809 -0.1425
 8641W        W24450   1.354   3.683  13.238  0.2400  0.1447 -0.0451
 8642W        W24451  11.926   4.813   1.442 -0.1382 -0.0111  0.0619
 8643W        W24452   7.350   1.221   5.346 -0.1017  0.0149 -0.0141
 8644W        W24453   6.384   4.239  11.372  0.4053 -0.1765  0.0071
 8645W        W24454   4.235  11.939  13.431  0.0758  0.1038  0.0643
 8646W        W24455   5.853   8.756   5.569  0.1141  0.1194  0.1975
 8647W        W24456   2.899   8.634  14.225  0.0004 -0.0027  0.0456
 8648W        W24457   0.969   2.336   2.014  0.0001  0.2322  0.0615
 8649W        W24458  11.205   7.445  11.101 -0.1670 -0.2035  0.1682
 8650W        W24459   4.784   7.288   1.786 -0.1076 -0.1255  0.1977
 8651W        W24460  11.168   5.285   1.030 -0.1132  0.1717  0.2063
 8652W        W24461  15.798   9.018   3.410 -0.2309  0.1891 -0.3136
 8653W        W24462   0.783   7.204  12.098 -0.0851 -0.0070 -0.1234
 8654W        W24463   4.210  13.717   0.215 -0.1079 -0.2512  0.1207
 8655W        W24464   9.749   0.725  13.884 -0.0823 -0.1502  0.0312
 8656W        W24465  10.395   7.942  15.032 -0.0110 -0.2917  0.0790
 8657W        W24466   4.031  14.132  11.286 -0.0839 -0.0485  0.0252
 8658W        W24467   6.959   0.124   0.304  0.1158 -0.2188  0.2364
 8659W        W24468  14.091   9.101   4.351 -0.3061 -0.1228 -0.0240
 8660W        W24469  10.613  16.067  14.976 -0.1983  0.0311  0.0144
 8661W        W24470  14.426   5.378   0.012 -0.1074 -0.0987 -0.4088
 8662W        W24471   1.695  11.095   4.877 -0.0658  0.2246 -0.1471
 8663W        W24472  11.229   7.111  15.099 -0.0630 -0.1236 -0.2187
 8664W        W24473   3.633  10.857   4.807  0.1086  0.1689 -0.0140
 8665W        W24474   6.716   6.112   3.613 -0.0749  0.1360  0.2385
 8666W        W24475  18.423   7.790  14.618 -0.1022  0.3736 -0.1375
 8667W        W24476  11.669   0.594   1.295  0.3747 -0.2129  0.1257
 8668W        W24477  17.807  11.065  15.388 -0.1210 -0.2024 -0.4216
 8669W        W24478  14.883   5.269   1.904  0.0254  0.3097  0.0305
 8670W        W24479   6.384  18.558   4.999  0.0356 -0.1093 -0.0456
 8671W        W24480  12.819   3.449  11.290 -0.1381 -0.1543  0.3569
 8672W        W24481  13.003  17.615   4.845  0.0208 -0.3311  0.2546
 8673W        W24482  16.142  17.197   0.738  0.1907  0.0238  0.0364
 8674W        W24483  10.848  11.858  11.455  0.6364  0.0036 -0.1338
 8675W        W24484   0.977  13.760   2.856  0.2148 -0.0848 -0.2653
 8676W        W24485   9.964   7.494   5.225 -0.1999  0.2265 -0.1004
 8677W        W24486   4.193  13.935   9.489  0.0956 -0.0939  0.0478
 8678W        W24487   5.036  12.045  11.204  0.1187  0.0664 -0.3239
 8679W        W24488   2.718   1.189   2.598 -0.1250 -0.0547 -0.2336
 8680W        W24489   0.659   7.955  12.219  0.1202  0.1568  0.1627
 8681W        W24490  17.889   7.895   4.360  0.0004 -0.0144 -0.0015
 8682W        W24491  18.234  13.184   0.167 -0.0785 -0.1196 -0.5080
 8683W        W24492   7.532  12.412  14.300 -0.1650 -0.1239  0.0162
 8684W        W24493   9.193   0.621   4.077  0.1371  0.0587  0.0434
 8685W        W24494   1.034   7.565  14.265 -0.0453  0.0560 -0.2659
 8686W        W24495  11.955  13.593  12.291  0.1112 -0.4137 -0.1016
 8687W        W24496  17.346  10.289   0.837 -0.2007  0.1437 -0.2160
 8688W        W24497   5.933   3.708  14.864  0.0082  0.1313 -0.0833
 8689W        W24498  16.012  10.980  13.143  0.0757 -0.0449  0.2021
 8690W        W24499   9.634  11.704  11.292  0.3264  0.0327 -0.2072
 8691W        W24500   8.439   9.024  15.286 -0.0887  0.1338  0.1316
 8692W        W24501  11.875   0.827  15.462 -0.0169  0.0163 -0.1199
 8693W        W24502   3.205   4.905   2.918 -0.0716  0.4840 -0.0174
 8694W        W24503  15.048  11.630  12.225  0.2880 -0.0180  0.1085
 8695W        W24504  15.207  14.504  14.550 -0.0729 -0.0419  0.1261
 8696W        W24505   6.174  17.421   0.597  0.0803  0.0455 -0.2473
 8697W        W24506   3.296   3.388   1.637  0.0502  0.3267  0.0135
 8698W        W24507   5.871   8.829   6.072 -0.0247  0.1399  0.1129
 8699W        W24508   0.699  14.079  10.942 -0.3073 -0.0871  0.4224
 8700W        W24509  17.124   1.732   0.408 -0.3600 -0.1949 -0.2701
 8701W        W24510  10.293  11.585  15.271  0.0805 -0.1121  0.1160
 8702W        W24511  18.568   5.623   1.160 -0.3280  0.0576  0.0619
 8703W        W24512  13.019   1.611   1.774 -0.2394 -0.2521 -0.1722
 8704W        W24513   4.973  13.370  10.931 -0.1307  0.0007  0.1289
 8705W        W24514   9.753  16.149   1.626 -0.1508  0.2680  0.1732
 8706W        W24515   1.136   6.815  12.849  0.1471 -0.1050 -0.0044
 8707W        W24516   6.428   1.561  10.780  0.1547  0.1371 -0.3290
 8708W        W24517   8.815   9.459   2.111 -0.1291  0.0797 -0.3130
 8709W        W24518  11.737  12.147   3.472  0.0620 -0.3733 -0.2635
 8710W        W24519   7.243  14.502  10.819 -0.1309 -0.2994 -0.2406
 8711W        W24520  13.075   3.031  11.348  0.0813 -0.0348 -0.0934
 8712W        W24521  18.760   8.224   4.458  0.0435  0.0018 -0.0109
 8713W        W24522   6.549  18.288   1.746 -0.0522 -0.0009  0.2499
 8714W        W24523  11.879   2.633   0.517  0.2129 -0.0317  0.1745
 8715W        W24524   2.508  16.202   2.176  0.0898 -0.2113  0.1317
 8716W        W24525   9.870  10.014  12.414  0.2367  0.0271 -0.3250
 8717W        W24526   6.155   0.886   3.726 -0.1686 -0.1155 -0.1967
 8718W        W24527  18.048   0.195  11.511 -0.3769 -0.2321 -0.1293
 8719W        W24528   6.345   6.116  13.238 -0.3615 -0.0271 -0.1064
 8720W        W24529   4.389   5.249  10.584 -0.2022  0.1723 -0.1783
 8721W        W24530  16.310   1.869  13.456 -0.0079  0.2319  0.1197
 8722W        W24531   4.557  18.730   2.125  0.1351  0.2112 -0.1284
 8723W        W24532   8.138  17.722  12.622 -0.1068  0.2052 -0.0047
 8724W        W24533  11.422  18.428   1.598 -0.0399 -0.1427  0.0041
 8725W        W24534  10.289   9.318  11.664  0.0361 -0.0987 -0.1070
 8726W        W24535   8.826   9.156  11.836 -0.1189  0.4565 -0.2892
 8727W        W24536  10.474  11.450   4.987 -0.0381  0.1104 -0.0107
 8728W        W24537   7.354   4.491   2.168 -0.0937 -0.0734  0.0665
 8729W        W24538  13.670   1.679   4.327 -0.0490  0.1209  0.1840
 8730W        W24539  18.124  14.491  12.174  0.0890 -0.0104 -0.0146
 8731W        W24540  14.979   6.870   1.059 -0.1569  0.3031  0.0590
 8732W        W24541   5.044   8.956   0.586  0.2598  0.1200 -0.0857
 8733W        W24542   8.817  11.827   1.926  0.1909 -0.3562 -0.3942
 8734W        W24543  14.186  13.389  13.364 -0.0867 -0.1093  0.0621
 8735W        W24544   2.562   3.597  13.299 -0.0009 -0.1129  0.3936
 8736W        W24545  13.522   2.335   0.706  0.1853  0.1274  0.1085
 8737W        W24546  17.655  15.165  14.657 -0.0567 -0.0861 -0.0844
 8738W        W24547   5.359   1.441  14.507 -0.1058  0.0963  0.1230
 8739W        W24548   9.597  12.332   1.831  0.1710  0.0453 -0.0792
 8740W        W24549  12.983  13.827  12.891 -0.2590  0.0283 -0.0665
 8741W        W24550   9.873   2.815   0.441 -0.2299  0.2308  0.1409
 8742W        W24551   6.843  14.865  12.911  0.2004  0.3129  0.0446
 8743W        W24552  16.082  18.042   3.164 -0.0623  0.2471 -0.1076
 8744W        W24553  10.643   4.129   0.487 -0.3467  0.1582 -0.1557
 8745W        W24554  15.427  15.172  13.139 -0.2535 -0.0476 -0.1116
 8746W        W24555  17.144  11.770   3.178 -0.0126 -0.0666 -0.0045
 8747W        W24556  15.426  16.715  12.249  0.0817  0.2312 -0.0734
 8748W        W24557  10.729   4.784  12.204 -0.1302 -0.3509 -0.1587
 8749W        W24558  14.782  18.470   0.317  0.0773  0.3038 -0.1664
 8750W        W24559   2.521   3.703  13.832 -0.0277 -0.0217  0.1353
 8751W        W24560  18.474   0.533   5.139  0.1898  0.1207 -0.1627
 8752W        W24561  10.985   2.709  13.538 -0.1393  0.0985  0.1431
 8753W        W24562   7.166  12.091   3.780  0.2071  0.0706  0.0437
 8754W        W24563  11.795  14.474   5.096  0.0443  0.2634 -0.1742
 8755W        W24564   2.978  12.589  11.743  0.3246  0.2081  0.1166
 8756W        W24565   5.049   4.161   4.754 -0.0203  0.0461 -0.0746
 8757W        W24566  11.032   0.500  13.197  0.1429 -0.2530 -0.0320
 8758W        W24567   6.754   5.658   9.769 -0.0610  0.0559 -0.1500
 8759W        W24568  13.331  11.080   0.862 -0.1309 -0.0787 -0.0720
 8760W        W24569   5.287  15.619  12.580 -0.1195 -0.1089  0.1890
 8761W        W24570   6.569   2.741  14.197  0.2930 -0.2868 -0.0609
 8762W        W24571   5.326  12.961  13.324 -0.1515  0.0012  0.0899
 8763W        W24572   7.394  16.167   0.450 -0.1154  0.3888 -0.0565
 8764W        W24573   3.387   6.880   4.135  0.2053  0.2680  0.0702
 8765W        W24574   3.104  13.399   4.641  0.0517 -0.1905 -0.0669
 8766W        W24575   3.720   5.321  12.734 -0.1860 -0.0517  0.0365
 8767W        W24576  17.024  16.916   2.312 -0.1464 -0.0285  0.0733
 8768W        W24577   5.460  14.786  12.985 -0.3117  0.2322  0.2259
 8769W        W24578   4.642   7.168   5.242  0.0498 -0.0606  0.0098
 8770W        W24579   2.212   7.513  14.223 -0.1009  0.2469  0.5248
 8771W        W24580  14.572  10.803  12.769 -0.0902  0.0305  0.0317
 8772W        W24581   1.442   5.232   3.929  0.2168  0.0973 -0.1812
 8773W        W24582   2.214  14.311  11.571  0.2510 -0.0872 -0.3015
 8774W        W24583   9.116  12.084  12.972 -0.1121 -0.1678 -0.0302
 8775W        W24584  12.669  14.266  15.144 -0.0463 -0.0936  0.1289
 8776W        W24585  13.931  16.943   0.658  0.0459 -0.3544 -0.0523
 8777W        W24586  14.973  10.857   4.877 -0.1019 -0.3438 -0.2234
 8778W        W24587   9.373  15.245   3.819 -0.0579  0.0104  0.0858
 8779W        W24588  15.457  11.230   2.758 -0.4018 -0.2487  0.2861
 8780W        W24589  16.913   4.538  11.624 -0.0478 -0.2583  0.3167
 8781W        W24590   4.420   1.988   2.689  0.2117  0.2026  0.0460
 8782W        W24591  11.908  14.058  12.878  0.0113 -0.1137  0.1359
 8783W        W24592   3.525  12.006   1.998 -0.1106 -0.2097 -0.0293
 8784W        W24593  18.064   9.424  15.404  0.0732 -0.5266  0.1259
 8785W        W24594   8.638   9.597   0.967 -0.0187 -0.0132  0.0689
 8786W        W24595  12.659  14.941   5.515 -0.1984 -0.0383  0.0414
 8787W        W24596   2.619   0.833   3.427  0.3471  0.0470  0.2049
 8788W        W24597  18.245   6.876  10.764  0.2035  0.0819  0.0030
 8789W        W24598  12.021   4.556  13.147 -0.1260 -0.0721 -0.0948
 8790W        W24599   5.850   4.077  12.046  0.0663 -0.1613 -0.1652
 8791W        W24600   3.307   4.304  12.657 -0.1162  0.1910  0.0898
 8792W        W24601   9.321   8.659   3.260 -0.1496 -0.0541 -0.0251
 8793W        W24602   1.930  13.928  14.009  0.2250  0.1427  0.0608
 8794W        W24603   5.623  10.369   5.577 -0.0407  0.0379 -0.1062
 8795W        W24604   7.537   0.931   2.183 -0.0170 -0.0693 -0.0707
 8796W        W24605  11.310  16.850   3.975 -0.3352 -0.2104  0.1355
 8797W        W24606   6.324   6.309   3.346  0.2931 -0.3986  0.2299
 8798W        W24607  15.263   2.024  13.175 -0.2850  0.1157  0.2548
 8799W        W24608  11.847  16.865   4.675  0.0000 -0.2719 -0.1882
 8800W        W24609   0.671  16.680   3.966  0.0445 -0.0835 -0.1719
 8801W        W24610   2.603  13.952  13.935 -0.2459  0.2593 -0.3704
 8802W        W24611  14.252   7.168  15.562 -0.0959 -0.1580 -0.2061
 8803W        W24612   4.149   5.593   0.074  0.1325 -0.1115 -0.1262
 8804W        W24613   0.012   4.900  11.774 -0.1409 -0.0440  0.1051
 8805W        W24614   1.954  12.984   0.128  0.1788  0.0003 -0.1093
 8806W        W24615   6.135  11.620   0.196  0.0421 -0.0615 -0.0032
 8807W        W24616   3.898  10.349  13.580 -0.1794  0.1524  0.0616
 8808W        W24617   0.451  15.215  14.308  0.2387 -0.0830  0.1962
 8809W        W24618  14.560  12.180  13.462  0.2943  0.1719 -0.4159
 8810W        W24619  14.244   1.475  11.367  0.2680 -0.0551  0.2437
 8811W        W24620  15.056   8.698   4.148  0.0519  0.0814  0.2239
 8812W        W24621   1.838  16.965  10.871 -0.0495 -0.1882 -0.0949
 8813W        W24622   1.706  17.116  14.959  0.2803 -0.2052 -0.5428
 8814W        W24623   5.214   3.472  10.676 -0.0520 -0.3245 -0.2461
 8815W        W24624  12.342  12.798   1.937  0.1172  0.2492  0.1732
 8816W        W24625  17.109   0.259   4.701 -0.0051  0.2342 -0.4763
 8817W        W24626  14.793   0.896   1.231 -0.2198 -0.1298  0.0725
 8818W        W24627   7.948   4.065  11.677 -0.3276 -0.1294 -0.0788
 8819W        W24628   0.253  15.069   1.517  0.1805  0.1827  0.0806
 8820W        W24629   5.255   2.070   4.993  0.0124 -0.0036  0.0036
 8821W        W24630  14.682   6.741   2.222 -0.1802 -0.0072  0.1231
 8822W        W24631  10.284  12.645  14.529 -0.2878  0.2384 -0.0734
 8823W        W24632   1.491   8.151  13.146  0.0906 -0.1006 -0.1177
 8824W        W24633   5.345   4.795  15.422 -0.2066  0.0649  0.2111
 8825W        W24634  12.786   3.795   1.957  0.2251 -0.1185  0.1566
 8826W        W24635   9.049  12.744   4.932  0.2555 -0.1594 -0.3408
 8827W        W24636  15.758   5.593  11.148  0.1084  0.0675 -0.3629
 8828W        W24637  16.692   3.814   4.049  0.1015  0.0769  0.0312
 8829W        W24638  11.608   9.058  13.542  0.0637 -0.1500 -0.2173
 8830W        W24639  17.154  12.868  11.089 -0.2387 -0.0117 -0.3197
 8831W        W24640   5.579  11.918   0.333 -0.0223  0.0567  0.4418
 8832W        W24641   9.291   8.412   2.468  0.1428 -0.1204 -0.1048
 8833W        W24642   4.668  10.831  13.384 -0.1618 -0.4027 -0.1425
 8834W        W24643  14.124   6.366   0.379 -0.4671 -0.3013  0.1712
 8835W        W24644   9.470   0.170   2.791  0.4830  0.0671  0.3532
 8836W        W24645   5.669   4.633  10.793 -0.0021 -0.0930  0.0069
 8837W        W24646   2.409  12.237  14.188 -0.0905  0.1906  0.0672
 8838W        W24647  11.685  12.207   2.927  0.0040  0.0197 -0.0555
 8839W        W24648   2.794  15.115  14.299 -0.0786 -0.2023  0.0541
 8840W        W24649  14.100   7.972   0.566 -0.0902  0.0852  0.1055
 8841W        W24650  10.008  10.333  11.620  0.0328  0.1516 -0.2704
 8842W        W24651   1.970   0.611  14.718  0.0770 -0.0174 -0.1395
 8843W        W24652  12.694   6.457   1.221 -0.0151 -0.0546 -0.0246
 8844W        W24653   4.866   1.906   2.832 -0.0724 -0.2226 -0.2375
 8845W        W24654  16.240  15.866   1.987 -0.1782 -0.2700 -0.2818
 8846W        W24655   9.749   9.695   4.136  0.1091  0.0641  0.0183
 8847W        W24656   4.589   7.749   5.231 -0.4770 -0.1129  0.2890
 8848W        W24657  11.045   6.627   4.329 -0.1422  0.0548  0.1370
 8849W        W24658   0.930  14.556   1.492 -0.2615 -0.2194  0.1741
 8850W        W24659   7.372  15.284  11.973 -0.0007  0.1186 -0.0294
 8851W        W24660   1.842  12.053  10.521 -0.1479 -0.1758  0.0000
 8852W        W24661  17.940   2.294  11.709 -0.3782  0.1211  0.0784
 8853W        W24662  14.275   8.007   2.805  0.1446  0.1446 -0.1051
 8854W        W24663  10.780  12.056  12.397 -0.0794 -0.1303 -0.1663
 8855W        W24664   2.316  11.771   2.590  0.2432  0.0746 -0.1002
 8856W        W24665   3.250  10.731  11.807 -0.1773  0.0528 -0.0043
 8857W        W24666  10.782   1.735  10.884 -0.0785 -0.3917 -0.3474
 8858W        W24667  13.420   5.969  13.538 -0.0404 -0.0812  0.4313
 8859W        W24668   5.640   3.183  13.716  0.2361 -0.3984 -0.2013
 8860W        W24669   6.328  10.768  10.540 -0.0175 -0.0193  0.1431
 8861W        W24670   7.146   5.739   1.280  0.0524 -0.3179 -0.0796
 8862W        W24671   0.323  12.844  11.994  0.1860  0.0306 -0.2996
 8863W        W24672  14.528  18.251   4.093  0.2154  0.1552 -0.0868
 8864W        W24673  12.465  16.656   2.322  0.2484  0.1838  0.0734
 8865W        W24674   2.527   7.244  10.965 -0.0493  0.4294  0.0503
 8866W        W24675  16.548   8.196   3.534  0.1110  0.2275  0.1623
 8867W        W24676   4.622   6.535   0.184 -0.2569 -0.1491  0.1188
 8868W        W24677  18.047   6.457   2.252 -0.0110  0.0607  0.1406
 8869W        W24678   1.586   2.256  15.263  0.0065 -0.0302  0.2065
 8870W        W24679  11.229  13.187  11.488 -0.0624  0.0389  0.0174
 8871W        W24680   2.014  13.945  13.450  0.0585 -0.0829  0.0688
 8872W        W24681   9.131  17.802   4.736  0.0617  0.0689  0.0989
 8873W        W24682  17.779  13.389  12.168  0.0780 -0.0506  0.0265
 8874W        W24683  15.625  14.703   2.894  0.0064  0.3679 -0.0331
 8875W        W24684  10.878  16.449  10.611 -0.2189  0.0513  0.0281
 8876W        W24685   0.456   5.846  10.832 -0.2187  0.0603  0.0916
 8877W        W24686  13.875   6.788  10.947  0.0877 -0.2610 -0.0085
 8878W        W24687   8.126   0.161   2.291 -0.5635 -0.2144 -0.1138
 8879W        W24688   0.673   7.050  12.606  0.1713 -0.1203 -0.1355
 8880W        W24689   6.487   5.941  14.369 -0.1333  0.0453  0.0596
 8881W        W24690  14.383   7.575   2.442 -0.3184 -0.3685 -0.1201
 8882W        W24691   4.423  13.421  11.708  0.1327  0.2484  0.2847
 8883W        W24692   0.613   8.892   5.489 -0.0063  0.2497  0.0985
 8884W        W24693   4.355   5.522  14.492 -0.1446  0.4345  0.0156
 8885W        W24694  12.278   1.852   3.510  0.0105 -0.0874 -0.1324
 8886W        W24695  18.441  16.514   4.679 -0.1039 -0.0919  0.0222
 8887W        W24696   2.898   1.806   0.704  0.4866 -0.3834 -0.1007
 8888W        W24697  11.838   0.627   4.926  0.2254  0.4938  0.1533
 8889W        W24698   8.217  16.838   3.240  0.1017 -0.2201  0.1526
 8890W        W24699  11.213  15.351   0.463 -0.2293  0.6158  0.1438
 8891W        W24700  11.176  11.767  10.261  0.2201  0.0106  0.1305
 8892W        W24701   6.844  10.114   1.507 -0.0356  0.1931  0.0208
 8893W        W24702  13.077  10.999  11.661 -0.2499 -0.1193 -0.2131
 8894W        W24703   5.153   7.306  11.670  0.2606 -0.0648  0.1950
 8895W        W24704  18.037   1.878   6.228  0.0889  0.1441  0.1396
 8896W        W24705  11.881  11.785   3.166 -0.1760 -0.0241 -0.0585
 8897W        W24706   1.643   9.863   1.352  0.0344 -0.0636  0.1794
 8898W        W24707  16.043  15.819   0.237 -0.2271  0.0577 -0.1145
 8899W        W24708  16.522   5.560  13.706 -0.1459  0.2664 -0.0236
 8900W        W24709   6.125  13.436  11.277 -0.2427 -0.1958 -0.0846
 8901W        W24710  18.595  16.759  15.268  0.0906 -0.0147  0.1926
 8902W        W24711  11.524   3.701  14.815  0.0921  0.0899 -0.1847
 8903W        W24712   6.520   4.602   0.295 -0.0062  0.2059 -0.0638
 8904W        W24713  10.244   2.292  10.993  0.1230  0.1348 -0.0875
 8905W        W24714  17.817   2.867   3.699  0.0163 -0.1450  0.1712
 8906W        W24715   6.298   7.102  11.994 -0.2689  0.1278 -0.3191
 8907W        W24716   5.078  11.535  13.757  0.0571  0.0039 -0.0070
 8908W        W24717  12.882   0.450  14.525  0.0500 -0.0203 -0.2713
 8909W        W24718   0.419   7.092  15.249  0.1932 -0.2601 -0.0847
 8910W        W24719  11.601  12.143   0.732 -0.3788  0.1022 -0.2427
 8911W        W24720   2.208  13.414  12.240 -0.2974 -0.1167 -0.0868
 8912W        W24721   3.574   3.494   4.669 -0.0930  0.2463  0.1474
 8913W        W24722   5.938  13.302   4.263 -0.0708 -0.3826 -0.0951
 8914W        W24723   4.983  16.655   3.571 -0.0076 -0.0449 -0.4512
 8915W        W24724   7.222  15.534   4.095 -0.2418  0.0212  0.1464
 8916W        W24725   3.096   4.332   1.585  0.2906  0.0556  0.6221
 8917W        W24726  13.582   1.639  12.975 -0.0628 -0.1568  0.1757
 8918W        W24727   2.267   2.510  11.865  0.0741  0.0832  0.1773
 8919W        W24728   0.191   4.340  10.089 -0.0863  0.1228  0.2530
 8920W        W24729   3.982  13.198  11.644  0.0335 -0.1575 -0.0235
 8921W        W24730  18.737   6.839   4.641  0.1370  0.3895 -0.0458
 8922W        W24731  18.748  17.661  14.642 -0.0718 -0.0431 -0.0966
 8923W        W24732   6.795   3.621  13.667  0.1071 -0.1114  0.2212
 8924W        W24733   2.856   5.168  10.547  0.0341  0.0329 -0.3705
 8925W        W24734  15.890   3.630   4.516  0.2232  0.1383 -0.0915
 8926W        W24735   8.957   3.169   4.346  0.0060  0.1958 -0.1826
 8927W        W24736  14.723  18.285   3.277  0.0231 -0.0671 -0.2501
 8928W        W24737   8.372   0.592   3.746  0.1702  0.0256 -0.0570
 8929W        W24738   4.406  13.306   5.862 -0.2037 -0.2637  0.2776
 8930W        W24739   3.728   1.085  13.557 -0.0961 -0.0706 -0.2114
 8931W        W24740   2.586  15.052   5.004 -0.2030 -0.1983 -0.1899
 8932W        W24741  16.269   0.531  13.071  0.5008 -0.2079  0.1743
 8933W        W24742   9.996   5.192  12.322 -0.0873  0.1392 -0.2978
 8934W        W24743   8.269  13.056   1.945  0.1081  0.0157 -0.2595
 8935W        W24744   8.124   2.794  14.691  0.0140 -0.0500 -0.1015
 8936W        W24745   5.097   0.711   3.048 -0.1350  0.2664 -0.1517
 8937W        W24746   5.549   2.448  12.580  0.0605 -0.0172 -0.0473
 8938W        W24747   8.250   8.544   0.863 -0.3032  0.3016  0.0977
 8939W        W24748  17.757  16.326  14.394 -0.0900  0.0913 -0.0187
 8940W        W24749   0.155   6.495   0.579  0.0075 -0.2057  0.2096
 8941W        W24750   8.522  11.188  11.043 -0.1815  0.2449  0.1572
 8942W        W24751   6.376  17.657   2.501  0.1687 -0.0002 -0.1001
 8943W        W24752   6.532   0.068   3.891  0.4651 -0.0629 -0.1383
 8944W        W24753  12.359   6.362  10.377  0.0262 -0.1423  0.0109
 8945W        W24754   9.460  17.559  10.736  0.0138  0.1863  0.0926
 8946W        W24755  17.758   9.273  11.052  0.2322  0.0634  0.1199
 8947W        W24756   6.983   6.146  14.446 -0.1057 -0.0046 -0.3033
 8948W        W24757  16.277  12.243  10.854 -0.1863  0.2296  0.2091
 8949W        W24758  16.590  13.827   2.422 -0.0314  0.2602  0.3498
 8950W        W24759   8.886   3.214  12.375  0.1702 -0.0393 -0.0565
 8951W        W24760  17.172   5.127   4.368 -0.1283 -0.0633  0.1764
 8952W        W24761   0.464   2.276   3.354 -0.0977 -0.0387 -0.0016
 8953W        W24762   2.764   2.426  14.316 -0.0342 -0.4550  0.2196
 8954W        W24763   9.699   9.377   4.554 -0.0279 -0.1841 -0.2411
 8955W        W24764   2.576   5.883  11.014  0.0055  0.0684  0.0385
 8956W        W24765  17.952   8.046   1.684 -0.1815  0.0078 -0.0628
 8957W        W24766   4.682   3.732  10.589 -0.3516 -0.1513  0.1607
 8958W        W24767   2.678  18.399   3.048 -0.1073 -0.1938 -0.0101
 8959W        W24768   0.395   3.919  14.202 -0.0434 -0.2536 -0.3687
 8960W        W24769   2.585  11.907  15.374 -0.0927  0.1023  0.0089
 8961W        W24770   2.664   2.185  11.949 -0.1837  0.2280  0.2951
 8962W        W24771  12.495  17.435  13.105  0.1604 -0.1791 -0.0723
 8963W        W24772   8.644   9.212  13.618 -0.2434 -0.4935  0.3126
 8964W        W24773  17.381  12.420  15.360  0.0571 -0.0832  0.1083
 8965W        W24774   3.710   5.054   0.647 -0.1077  0.0144 -0.1757
 8966W        W24775  10.527   0.001  10.331 -0.1856 -0.1013 -0.0247
 8967W        W24776  18.167  10.468   2.657 -0.2538 -0.0061  0.0814
 8968W        W24777   5.741  17.772  11.404  0.1718 -0.0523 -0.1805
 8969W        W24778   8.449  14.918  11.461  0.1417 -0.0679  0.3019
 8970W        W24779  12.119   7.740  14.565 -0.1836 -0.2822  0.3232
 8971W        W24780  13.474  17.136   4.804 -0.2439 -0.2658  0.1117
 8972W        W24781   5.246  12.655   0.628 -0.1488 -0.0564  0.1932
 8973W        W24782  13.948   5.948  13.252 -0.0328 -0.1379  0.1118
 8974W        W24783  15.881  14.359  12.896 -0.1659 -0.0085 -0.1553
 8975W        W24784   5.568   5.117   5.917  0.1983 -0.0557  0.1322
 8976W        W24785  15.878   0.569  12.221  0.5345 -0.1526  0.3824
 8977W        W24786   4.733   0.873   0.156  0.0764 -0.4329 -0.1689
 8978W        W24787   2.349   2.648  12.741 -0.0049  0.1468  0.1580
 8979W        W24788  13.759   8.266   3.212 -0.2106 -0.1569  0.1464
 8980W        W24789   4.184   7.347  14.352  0.1302 -0.2929 -0.0542
 8981W        W24790  15.704  18.574  11.770  0.1832 -0.2517  0.2248
 8982W        W24791  14.797  11.418   0.995  0.2450 -0.0473 -0.0929
 8983W        W24792   3.044   8.208  11.385 -0.2529 -0.1287 -0.0847
 8984W        W24793   0.267   7.740   0.793 -0.0542 -0.0863 -0.1719
 8985W        W24794   0.684   1.385   3.039  0.1361 -0.4707  0.1672
 8986W        W24795   3.964   7.483  13.761  0.1885  0.2140  0.2500
 8987W        W24796   9.260  15.087  14.409 -0.2053 -0.2160  0.1603
 8988W        W24797   8.539   8.417   0.354 -0.1970 -0.2315  0.1376
 8989W        W24798  13.139   3.448   2.806 -0.1954  0.0569  0.1094
 8990W        W24799   8.848   2.972   3.939 -0.0061 -0.0994 -0.0352
 8991W        W24800   9.738  13.980  14.038 -0.2760  0.3211  0.4465
 8992W        W24801  10.426  10.670  14.287  0.1440 -0.1013 -0.0514
 8993W        W24802  18.085   0.150   4.620 -0.2152  0.0390  0.1939
 8994W        W24803   6.208  11.738  13.624 -0.2184 -0.2342  0.0567
 8995W        W24804  16.289  14.367  10.881  0.0840 -0.3019  0.0523
 8996W        W24805   5.337   9.222   3.788  0.2194  0.3437  0.1566
 8997W        W24806  15.733  17.906  15.093 -0.2390  0.0168 -0.2469
 8998W        W24807  13.412   0.171   0.694 -0.1863 -0.0995  0.0984
 8999W        W24808   8.696  15.377  11.548 -0.1778  0.0953 -0.1797
 9000W        W24809  14.960   2.649   0.299 -0.0093 -0.2921 -0.0038
 9001W        W24810   1.350   4.312  14.309  0.2789 -0.2150  0.1152
 9002W        W24811  17.545  17.566   4.607  0.0590  0.0072 -0.2466
 9003W        W24812  16.815  10.579  14.637  0.1074  0.2705 -0.1068
 9004W        W24813  12.825   3.179   4.040  0.0397  0.0086 -0.4024
 9005W        W24814   8.076   0.594  13.940  0.0032 -0.2181  0.1724
 9006W        W24815  10.363  16.042  12.969  0.0720 -0.2139 -0.2816
 9007W        W24816  17.283   2.798   5.109 -0.0161 -0.0286 -0.1640
 9008W        W24817  17.656   1.937   4.947 -0.2700  0.1855  0.0096
 9009W        W24818   1.057   2.266  12.774  0.0427 -0.1603 -0.2027
 9010W        W24819   9.401  11.600   0.331  0.2574  0.2154 -0.1854
 9011W        W24820   5.705  15.541  15.308 -0.1310  0.0504  0.0785
 9012W        W24821  16.245   7.478  14.953 -0.0654  0.0730  0.0388
 9013W        W24822   2.470  13.523   0.595 -0.1421 -0.0359  0.0327
 9014W        W24823  17.922   5.231   2.765 -0.1586 -0.0884 -0.2847
 9015W        W24824  15.420   4.298  11.991  0.0911  0.0411 -0.0406
 9016W        W24825  17.414   7.166  14.511 -0.2852  0.0250  0.0113
 9017W        W24826   2.880   9.738   5.217  0.1715 -0.2154 -0.1130
 9018W        W24827   1.478   4.601  11.147  0.0111 -0.1866 -0.1409
 9019W        W24828   1.447   0.006   0.414 -0.0676  0.3924  0.1087
 9020W        W24829   5.719   6.763   6.216  0.1753  0.1414 -0.0532
 9021W        W24830  12.111  13.167  10.846  0.1254 -0.0066 -0.0463
 9022W        W24831   6.567   6.795   9.814  0.1153 -0.0903  0.1122
 9023W        W24832   4.246   9.147  11.334 -0.0544  0.1177 -0.3760
 9024W        W24833   3.810  12.812   4.577 -0.2113  0.0300 -0.4981
 9025W        W24834   0.668   4.300   1.851  0.4449  0.3254 -0.1373
 9026W        W24835   1.351   3.010  11.295 -0.0580  0.0544 -0.3190
 9027W        W24836   7.138   7.215   2.564  0.0436  0.2086  0.0476
 9028W        W24837   1.343  12.188   0.902 -0.1847 -0.1034 -0.2751
 9029W        W24838   5.558  11.152   4.945 -0.3029  0.0569 -0.2015
 9030W        W24839   6.866   1.498  13.102 -0.3161 -0.1211 -0.3430
 9031W        W24840  15.480   6.243   3.122 -0.1804  0.3271 -0.0700
 9032W        W24841   7.812  12.945  14.265  0.0887  0.1855 -0.1868
 9033W        W24842   4.967  12.716  13.628  0.2038  0.2070 -0.0903
 9034W        W24843   9.243   8.047  13.886 -0.2708 -0.0449 -0.1893
 9035W        W24844  17.930   9.679   0.280 -0.0695 -0.0377 -0.1710
 9036W        W24845   5.052   0.894  13.981  0.2844 -0.2315  0.1303
 9037W        W24846  12.283  14.811   4.127  0.0517  0.0979 -0.1304
 9038W        W24847   9.072   9.280  13.304 -0.2616  0.2101  0.4539
 9039W        W24848   6.673  17.829   4.913  0.0794 -0.0595  0.1731
 9040W        W24849   2.037  15.111   0.386 -0.2693 -0.0442 -0.2900
 9041W        W24850   7.414  10.885   1.072  0.1757 -0.1053  0.0018
 9042W        W24851  11.689  18.379  11.469 -0.0628 -0.0108 -0.1422
 9043W        W24852   8.911   6.670  10.829 -0.3427 -0.1332  0.0247
 9044W        W24853   2.065   9.340   2.488 -0.0026 -0.3279  0.1319
 9045W        W24854  16.757   1.905   5.223 -0.2383  0.0401  0.0428
 9046W        W24855   9.354  15.737  14.114  0.0563  0.0801  0.0122
 9047W        W24856   8.955  17.099  14.848  0.0191 -0.0843 -0.0131
 9048W        W24857   5.166  16.965  14.251 -0.1032 -0.1191 -0.0072
 9049W        W24858  14.345  13.386  13.858  0.1762  0.0951  0.0829
 9050W        W24859   6.534  17.335  13.426 -0.0211  0.3190  0.1671
 9051W        W24860  11.871   1.123   5.148  0.0585 -0.1048 -0.2863
 9052W        W24861  11.735  15.679  13.026  0.2508  0.3328  0.3887
 9053W        W24862  12.709  17.869  14.695 -0.2867  0.1922  0.3021
 9054W        W24863  16.353  17.438  11.186 -0.2216  0.1880  0.0444
 9055W        W24864  10.883   9.708  10.478  0.1202 -0.0660 -0.1784
 9056W        W24865   5.493  17.504  10.551  0.0506  0.1850 -0.2242
 9057W        W24866  17.195   3.220   0.640  0.1348  0.1955  0.3333
 9058W        W24867  17.527  14.746   1.334 -0.2838 -0.0830 -0.0687
 9059W        W24868  12.343   0.011  11.855 -0.3567 -0.0578  0.2853
 9060W        W24869   0.757   2.829  11.985  0.0946  0.1304  0.0613
 9061W        W24870   7.141  12.906   0.572  0.0458 -0.0723 -0.0618
 9062W        W24871  14.605  16.698   1.051  0.1955 -0.1641  0.0674
 9063W        W24872   0.736  12.359  12.111  0.0171  0.0492 -0.0204
 9064W        W24873   6.931   9.514  11.515 -0.2507  0.0103 -0.1748
 9065W        W24874  11.267   6.069   0.729  0.2742  0.0632  0.1231
 9066W        W24875  10.147   1.504   1.648 -0.3222  0.2342 -0.0727
 9067W        W24876  12.994   0.325  15.545 -0.0735 -0.1970 -0.0842
 9068W        W24877   7.494  15.890  14.133 -0.1983  0.3887 -0.4546
 9069W        W24878  13.091   0.800  10.852 -0.0955  0.1351  0.0785
 9070W        W24879   3.667   1.482   3.702  0.3227 -0.1205 -0.1588
 9071W        W24880   4.367  13.448   0.661 -0.1100  0.1042  0.2629
 9072W        W24881   2.439   8.887   1.853  0.2079 -0.0353 -0.1620
 9073W        W24882   4.259   6.835   0.054  0.0616  0.0564  0.4424
 9074W        W24883   1.424  17.345   4.768  0.2395  0.0023  0.2053
 9075W        W24884   2.473   2.680   1.025 -0.2297 -0.0634 -0.2592
 9076W        W24885  16.572  18.524   5.124 -0.0470 -0.1146 -0.0575
 9077W        W24886   9.568  18.222   2.060 -0.0830  0.0455 -0.0352
 9078W        W24887  16.164  13.951  13.557 -0.4069 -0.0791  0.1875
 9079W        W24888   8.822  15.937  13.523 -0.0864  0.1838 -0.5630
 9080W        W24889  15.366   7.697   3.924  0.1098  0.0303 -0.0969
 9081W        W24890   0.623   0.848  11.663  0.1836  0.2515  0.2609
 9082W        W24891   3.272   3.855   2.243  0.2546  0.1433 -0.1501
 9083W        W24892  15.321   0.846   5.328 -0.3061  0.0119  0.0904
 9084W        W24893  18.447  13.156   3.875 -0.0703 -0.2006 -0.2171
 9085W        W24894  13.567   8.932  14.972 -0.1806  0.1677  0.2331
 9086W        W24895  12.059   9.807  14.460  0.2087 -0.1160 -0.0191
 9087W        W24896  17.413   1.007  15.319 -0.0602 -0.1840 -0.2062
 9088W        W24897  11.677  12.543  13.451  0.1265 -0.0477 -0.1330
 9089W        W24898   1.578  14.961  12.070 -0.2390  0.4319 -0.2602
 9090W        W24899   7.307   4.031   4.108 -0.0959  0.1596  0.2722
 9091W        W24900   2.344  13.543  15.160 -0.3382  0.0607 -0.0923
 9092W        W24901  12.942  12.253   1.504 -0.0179 -0.0426 -0.1090
 9093W        W24902   0.556  14.215  11.884  0.0822 -0.0071 -0.0474
 9094W        W24903  15.004   8.585   2.682 -0.1760 -0.0755 -0.1871
 9095W        W24904  12.667  18.749  13.349 -0.0164 -0.0643  0.1677
 9096W        W24905   4.493  16.647   3.605  0.1444  0.2471  0.0951
 9097W        W24906  12.493  14.569  10.752 -0.1807  0.0588  0.2475
 9098W        W24907  10.859  15.130  10.999  0.4071  0.1906 -0.0655
 9099W        W24908  16.899  14.660   4.170  0.0652  0.0616  0.0692
 9100W        W24909  10.374   8.210   2.423 -0.0765  0.0738 -0.0079
 9101W        W24910   2.414   0.232  13.477  0.0218  0.0350 -0.0392
 9102W        W24911  12.218  12.840  12.642 -0.1401 -0.0577 -0.2574
 9103W        W24912   7.617   9.791  10.588 -0.0500 -0.1016  0.0705
 9104W        W24913  12.985   7.137   0.301  0.0433 -0.2009  0.0608
 9105W        W24914  10.477  15.883   1.443  0.1603  0.3728  0.1341
 9106W        W24915  10.381   4.907  15.561 -0.0751  0.1587 -0.2040
 9107W        W24916  11.907   5.727   3.144 -0.0627  0.0460 -0.0025
 9108W        W24917  17.413   2.305  15.071 -0.0931 -0.1879 -0.2909
 9109W        W24918  10.991  10.715  11.803  0.0050 -0.1909  0.2843
 9110W        W24919  18.772   2.028   5.252  0.0407 -0.0013 -0.0414
 9111W        W24920   4.384   6.166  13.565  0.1540 -0.0869  0.0811
 9112W        W24921  14.346  15.295   1.562  0.0490 -0.3114  0.1518
 9113W        W24922  15.067  18.437   1.235 -0.0688 -0.0666  0.0242
 9114W        W24923  14.664  12.665   1.258  0.0181 -0.1496  0.0063
 9115W        W24924  13.788   3.797   0.287  0.0823  0.1475 -0.0134
 9116W        W24925  14.175  15.054   2.935 -0.0945 -0.3268 -0.0009
 9117W        W24926   0.099   2.880  11.359  0.2176 -0.0275  0.2905
 9118W        W24927  10.970   6.701   0.715  0.0077  0.1409 -0.0140
 9119W        W24928  14.964   6.970   2.581  0.1633 -0.1960 -0.3131
 9120W        W24929  15.608   6.882  13.389  0.2863  0.3173  0.1145
 9121W        W24930   6.901   1.454  15.170 -0.3237  0.0949  0.0521
 9122W        W24931   3.823  10.878   0.223 -0.0169  0.1207 -0.1831
 9123W        W24932   8.188   0.746  13.121  0.2123  0.0918 -0.1997
 9124W        W24933   4.558   1.078  13.069 -0.1631 -0.2132 -0.0301
 9125W        W24934  15.297  14.998   4.757  0.2346 -0.1712  0.0482
 9126W        W24935   8.163  11.811  15.185 -0.0074 -0.0992  0.0910
 9127W        W24936  10.230   3.174  13.388 -0.3002 -0.1860 -0.2837
 9128W        W24937  12.616   4.821  11.093 -0.1403  0.1174  0.1809
 9129W        W24938   0.497  16.467   1.367 -0.1242  0.0415 -0.2392
 9130W        W24939   4.632   1.979  12.924 -0.2069  0.0923 -0.1151
 9131W        W24940   2.241   9.903  14.900  0.0978  0.3064  0.0988
 9132W        W24941   5.046   2.112   1.135  0.0028 -0.1327  0.0609
 9133W        W24942   7.667   2.693  14.828  0.2580 -0.1170  0.1898
 9134W        W24943   5.625   0.252  14.203 -0.2109 -0.1680 -0.0360
 9135W        W24944  18.220  18.341   1.189 -0.1531  0.2014  0.1344
 9136W        W24945  10.058  11.888  13.408  0.4481 -0.0431  0.2560
 9137W        W24946   7.352  10.964   0.586  0.0442  0.1673 -0.2611
 9138W        W24947  13.407   5.237   4.789 -0.1180  0.1101 -0.0151
 9139W        W24948   6.295   3.456   2.354 -0.0185 -0.0604  0.2293
 9140W        W24949   9.336  13.260  11.107 -0.1890  0.3939 -0.0786
 9141W        W24950   0.684   9.539  12.005  0.3478 -0.1505  0.2442
 9142W        W24951   4.866  16.407  12.488  0.0944 -0.3171  0.0910
 9143W        W24952  15.712   5.041   3.495  0.1530 -0.1022 -0.3597
 9144W        W24953   0.436  12.903   0.351 -0.3689 -0.1082  0.2303
 9145W        W24954  16.465   4.379   1.779 -0.0320 -0.1388 -0.0219
 9146W        W24955  17.439   7.872  13.891 -0.0814 -0.3966  0.2084
 9147W        W24956   1.152   1.995  12.271 -0.1949  0.0270  0.1568
 9148W        W24957  15.338   0.769   0.491  0.0961  0.0892  0.2623
 9149W        W24958   9.947  18.184  12.247 -0.0816  0.2073 -0.0557
 9150W        W24959   4.430  13.357   5.210  0.0847  0.0669 -0.3480
 9151W        W24960   2.331  10.344   1.910  0.0288 -0.0625  0.1983
 9152W        W24961  10.520  17.361  13.406  0.1918  0.2519  0.1299
 9153W        W24962  11.097  10.209   0.414  0.0783  0.3009 -0.2660
 9154W        W24963  11.161   2.974   1.528  0.2315 -0.0048 -0.1623
 9155W        W24964  18.724   5.102   3.526 -0.0642 -0.0064 -0.1396
 9156W        W24965   4.559   3.883  11.052 -0.1898 -0.2594  0.0233
 9157W        W24966   8.780   0.927  14.123 -0.2682  0.2590  0.0964
 9158W        W24967  11.668   2.778   2.474  0.1342 -0.0616  0.2371
 9159W        W24968   3.307  15.369  13.135  0.1414 -0.0962 -0.0292
 9160W        W24969  16.169   4.975  12.051 -0.1418  0.1834  0.1535
 9161W        W24970   5.962  15.119   1.888 -0.1435  0.0699 -0.1419
 9162W        W24971  14.940  17.108  13.756 -0.3132  0.2077 -0.1919
 9163W        W24972  17.953  13.407   3.893  0.0375 -0.0995 -0.1277
 9164W        W24973   6.425   1.355   3.815 -0.1205 -0.0427 -0.2468
 9165W        W24974  15.378  10.826   4.011  0.1838 -0.0747  0.0242
 9166W        W24975  16.040   6.586   2.172  0.0409  0.1057 -0.2394
 9167W        W24976   9.188   1.658   0.563  0.1933  0.0261  0.1131
 9168W        W24977   2.314  15.013  14.609  0.1033  0.0449  0.1368
 9169W        W24978   5.348  16.856   4.928  0.2693  0.1514  0.0199
 9170W        W24979   4.643   6.958   3.271  0.4182  0.2771 -0.2140
 9171W        W24980  17.476   1.922   5.644 -0.1016 -0.3856  0.0798
 9172W        W24981  14.536  16.087   1.919  0.1670 -0.2206 -0.1111
 9173W        W24982   8.086   6.904  12.441  0.0950  0.0651  0.1584
 9174W        W24983  11.090  11.937   9.751  0.0377 -0.0248  0.1457
 9175W        W24984   0.352  15.693  13.528 -0.3109  0.3590  0.3314
 9176W        W24985  10.005  12.231  12.450  0.2547 -0.0553  0.1126
 9177W        W24986  14.659  16.731   5.657 -0.1905  0.4161  0.2571
 9178W        W24987  11.380   9.383   0.314 -0.2561  0.1356 -0.0114
 9179W        W24988   8.117   9.389  15.181  0.1573 -0.0725  0.2975
 9180W        W24989  13.079   1.280  13.494  0.2014  0.0956 -0.2153
 9181W        W24990   9.244   0.698  11.056  0.1032 -0.0855  0.1728
 9182W        W24991   5.846  17.457  12.776 -0.0099 -0.1758 -0.0185
 9183W        W24992   6.826  13.754   4.284 -0.0248  0.3853  0.3566
 9184W        W24993   0.540  17.404  13.572  0.1793  0.1441  0.1154
 9185W        W24994   1.455   3.085   3.129 -0.0199  0.1208 -0.1187
 9186W        W24995   9.485   4.591  12.013 -0.1412 -0.0060 -0.1723
 9187W        W24996   6.981  15.834  12.717  0.1564  0.1166  0.1174
 9188W        W24997   4.033  10.630   5.057 -0.1903 -0.2938 -0.0518
 9189W        W24998  17.455   7.180   2.876  0.0325 -0.2372 -0.3342
 9190W        W24999  12.289   0.072  13.773  0.2358 -0.4348  0.1369
 9191W        W25000   6.772  12.783  10.208  0.1522  0.0241  0.0826
 9192W        W25001   4.462  11.784   0.538 -0.0331  0.1275 -0.0957
 9193W        W25002  14.264  17.401   3.045 -0.0108 -0.2247  0.0160
 9194W        W25003  16.891  17.501  14.565  0.4223 -0.1046  0.2948
 9195W        W25004  10.635  18.450  15.148  0.4370  0.2982 -0.1441
 9196W        W25005   2.697  15.856   4.915  0.3254 -0.1027  0.1618
 9197W        W25006   2.263   3.247  14.025  0.4803  0.1765  0.2617
 9198W        W25007   3.497   3.432   2.129  0.5870  0.1433  0.1561
 9199W        W25008   3.115   2.216  10.643  0.2262  0.0382  0.1140
 9200W        W25009  12.298   4.571  12.731 -0.0477 -0.1257 -0.4394
 9201W        W25010   2.501   7.477   3.932  0.0262  0.1867  0.0582
 9202W        W25011   6.818  14.262   4.311 -0.1527  0.0566  0.1336
 9203W        W25012  13.690   3.755  12.113  0.0365  0.0775 -0.0198
 9204W        W25013  15.242   8.389   3.756 -0.2087  0.2356  0.3196
 9205W        W25014   6.868  15.342  12.821 -0.1229  0.3565  0.1176
 9206W        W25015  14.769   4.845   3.539  0.3021  0.2077  0.2088
 9207W        W25016  15.603  11.300   1.992 -0.0962 -0.0918 -0.1120
 9208W        W25017  10.994   8.475  13.826 -0.0127 -0.1235  0.3503
 9209W        W25018   3.613   9.372  10.856 -0.0956 -0.1688  0.0135
 9210W        W25019   3.295   2.442  12.646  0.0257  0.2028 -0.0716
 9211W        W25020   3.088  12.296   3.483  0.1818  0.1654  0.3270
 9212W        W25021   5.055  16.461   0.675  0.2561  0.2095  0.1636
 9213W        W25022  15.688   5.223   0.433  0.0291 -0.1529  0.0717
 9214W        W25023   2.601  11.720  13.841 -0.0028 -0.2952 -0.2042
 9215W        W25024   4.458   4.100   3.456  0.0952 -0.1424  0.1531
 9216W        W25025   4.981   5.386   2.968 -0.1727 -0.2344 -0.0355
 9217W        W25026  18.695  16.500   5.256  0.2199 -0.0163 -0.0129
 9218W        W25027  12.080  15.242  13.592 -0.0359 -0.1471  0.0376
 9219W        W25028   1.730   4.236   4.415  0.1060  0.1641  0.0125
 9220W        W25029  12.312   5.309  14.172  0.1081  0.4442 -0.2575
 9221W        W25030   6.752   4.220   5.447  0.1487  0.1854  0.1402
 9222W        W25031  15.655  16.437   2.626 -0.1573  0.3394  0.0738
 9223W        W25032   6.300  13.343   2.728  0.2973  0.3739 -0.0078
 9224W        W25033  15.380  10.268  11.764 -0.2836  0.2326 -0.1065
 9225W        W25034  10.746  15.195  11.975 -0.2258  0.1500 -0.1448
 9226W        W25035   7.595  11.909  10.892  0.1652  0.0136  0.1809
 9227W        W25036  10.957   0.524   1.870 -0.3859 -0.0843 -0.1305
 9228W        W25037   7.436   2.119   9.763 -0.0940 -0.0299  0.1067
 9229W        W25038  12.423   2.310   3.675  0.0328  0.1569  0.0488
 9230W        W25039   3.242   3.161  15.403 -0.1279 -0.0474  0.1855
 9231W        W25040   0.359   6.136   4.952  0.2588  0.0415  0.2120
 9232W        W25041   0.359  13.061   5.235  0.0132  0.1856 -0.0712
 9233W        W25042   9.907  16.474  14.745 -0.0007 -0.3561  0.2804
 9234W        W25043  15.017   9.755  10.313  0.2283  0.0580 -0.0206
 9235W        W25044  15.507   8.197   0.662 -0.1807 -0.0472  0.1798
 9236W        W25045  16.933   5.063  10.720  0.3522 -0.4541  0.1780
 9237W        W25046  13.206   5.978  10.816 -0.2686 -0.0614 -0.2721
 9238W        W25047  13.343  18.257   4.442  0.5186  0.1882  0.0288
 9239W        W25048  14.882  13.432  13.982  0.1889 -0.1268  0.2473
 9240W        W25049  13.684   0.034   3.125 -0.3801 -0.0705 -0.2170
 9241W        W25050   1.966   6.022   2.520 -0.0291 -0.1656  0.2678
 9242W        W25051  12.169  13.322   6.017 -0.0231 -0.1219  0.0990
 9243W        W25052   2.029  16.445   4.250 -0.3736 -0.2595 -0.0795
 9244W        W25053   6.355   8.574   4.514  0.2182  0.3758  0.1565
 9245W        W25054   1.948  13.922  11.399 -0.1858  0.2040 -0.0793
 9246W        W25055   3.860   9.906   1.523  0.0010 -0.2071 -0.0577
 9247W        W25056   0.004   3.091   4.391  0.1251 -0.1908  0.3365
 9248W        W25057   9.567  16.355   5.985 -0.3776 -0.1561  0.2353
 9249W        W25058   5.013   5.364  13.943  0.1377  0.0313 -0.0713
 9250W        W25059   6.118   1.169  11.940  0.0716 -0.1924 -0.2107
 9251W        W25060  18.604  11.697   1.468  0.0229 -0.1332 -0.0034
 9252W        W25061  14.657   8.384  10.878  0.2866 -0.1230  0.0226
 9253W        W25062  17.762  12.610  14.608  0.1744 -0.0807  0.2527
 9254W        W25063  14.945   3.643   2.073 -0.0769 -0.1455  0.2134
 9255W        W25064  10.505   5.485  11.066 -0.2767 -0.0742 -0.1305
 9256W        W25065   1.783  16.763   0.964 -0.0024 -0.2986 -0.1768
 9257W        W25066   9.080   9.971   2.616 -0.0962  0.0032 -0.1572
 9258W        W25067   1.186  11.928  11.885 -0.0236 -0.0813 -0.1407
 9259W        W25068  15.812   0.182   4.978 -0.3047 -0.2285 -0.0896
 9260W        W25069  16.245   7.857   3.867 -0.1207 -0.2872 -0.0183
 9261W        W25070  15.513   2.984  13.825 -0.0411  0.0632 -0.2873
 9262W        W25071   9.531  15.511  13.038 -0.3040 -0.0805  0.7318
 9263W        W25072   7.987   1.563   0.906 -0.1734  0.3146  0.1545
 9264W        W25073   5.784   1.902   0.424  0.0428 -0.2111  0.2059
 9265W        W25074   2.264   3.983  15.424 -0.1127  0.0791  0.1155
 9266W        W25075  16.445   9.302   2.137  0.1624 -0.0882  0.0930
 9267W        W25076  16.737   4.021  13.472 -0.0096  0.1021 -0.0099
 9268W        W25077  14.105  12.735  10.883 -0.2265  0.0349 -0.2331
 9269W        W25078   6.580  17.273  10.782 -0.3078  0.2835  0.2398
 9270W        W25079  11.082  14.759   4.092 -0.0302  0.2115 -0.1251
 9271W        W25080   0.662   4.275  12.806 -0.4059 -0.0858 -0.1156
 9272W        W25081   6.015   2.200   0.106 -0.0722 -0.2390  0.2602
 9273W        W25082  10.206  11.712  11.345  0.0096  0.1551  0.0204
 9274W        W25083  15.809   5.824  15.171  0.2292 -0.1057  0.0306
 9275W        W25084   8.311  11.451  13.197 -0.0745 -0.0031  0.3824
 9276W        W25085   0.062  15.976  13.192  0.1120  0.1569 -0.0945
 9277W        W25086  12.210  17.322   0.192 -0.2069 -0.1241 -0.1843
 9278W        W25087   1.143  12.286  11.115  0.0148  0.2520  0.1084
 9279W        W25088   7.840  12.269  13.439  0.1357  0.0939 -0.0834
 9280W        W25089  16.675  12.515   0.270 -0.0125 -0.0471 -0.1132
 9281W        W25090  11.310   8.337   9.424 -0.1817 -0.0595 -0.0611
 9282W        W25091  15.868  17.099  13.130 -0.2145  0.0236 -0.0143
 9283W        W25092   6.568   2.388   5.238  0.0404 -0.0541  0.0959
 9284W        W25093  18.450   3.369  12.633 -0.1123  0.3402 -0.0468
 9285W        W25094   4.819   9.919  15.432  0.1656  0.1891  0.3137
 9286W        W25095   9.635  14.216  15.158 -0.0545 -0.4410  0.1765
 9287W        W25096  15.287   2.568   1.204  0.1468 -0.2645  0.1662
 9288W        W25097  11.998  12.582  13.004 -0.1935  0.1629  0.2466
 9289W        W25098  13.891   3.369   3.896  0.0659 -0.0276 -0.0395
 9290W        W25099  14.505  13.403   2.246  0.1447  0.1051 -0.0971
 9291W        W25100  13.077  16.635   1.591 -0.5708  0.1835  0.1554
 9292W        W25101   6.044   0.093   3.799  0.1363 -0.0621  0.2461
 9293W        W25102   0.035  17.548   0.199 -0.0189 -0.1335  0.1255
 9294W        W25103  13.321  15.552  14.151 -0.0430  0.1742 -0.1638
 9295W        W25104   3.475  17.186  11.543 -0.0298  0.0054 -0.2158
 9296W        W25105  11.583   7.008  13.716  0.0431 -0.2469  0.3595
 9297W        W25106  11.277   2.338   3.589 -0.2009  0.4462  0.1686
 9298W        W25107   9.752  16.572   0.220  0.3279  0.1243  0.0582
 9299W        W25108   3.432   5.354   2.774 -0.1139  0.4062 -0.0863
 9300W        W25109  12.105  13.649  14.601  0.2325 -0.1133  0.0878
 9301W        W25110  11.362  13.333   2.948 -0.0440 -0.0635 -0.0105
 9302W        W25111   9.767  13.571  13.718 -0.1128 -0.1892 -0.1588
 9303W        W25112   7.606  14.391  14.324 -0.1491  0.3197  0.2376
 9304W        W25113   6.401   7.989   3.800  0.0065  0.1077 -0.0025
 9305W        W25114   5.391  15.365   2.080  0.0657 -0.2110 -0.0893
 9306W        W25115  17.419  12.409  11.144  0.0038 -0.1129  0.0918
 9307W        W25116  14.633   6.109   1.566  0.2367  0.0343 -0.1290
 9308W        W25117   5.813   5.447  12.383  0.0982 -0.1188 -0.0023
 9309W        W25118  14.462  11.855   4.111 -0.0541  0.0739 -0.0838
 9310W        W25119   8.853   9.600   1.560  0.2204 -0.3108 -0.1145
 9311W        W25120   1.307  18.763   4.557  0.0324 -0.0255  0.0289
 9312W        W25121   5.970  18.663  14.295  0.0728 -0.0645  0.1013
 9313W        W25122   4.295  17.043   9.605  0.2503 -0.3817  0.0417
 9314W        W25123   7.426  14.367   3.226 -0.1811  0.0217  0.0033
 9315W        W25124  11.289  13.461  15.371 -0.0911 -0.3098  0.2853
 9316W        W25125   5.822  15.744  13.797 -0.1283  0.0975  0.2041
 9317W        W25126   3.198   9.317  12.152 -0.1335 -0.2760  0.0965
 9318W        W25127   3.931   6.683  13.945  0.0976 -0.1176  0.0238
 9319W        W25128  15.166   8.569   0.591  0.1818 -0.1574  0.2157
 9320W        W25129  16.642  15.197   0.966  0.0350 -0.2452  0.3791
 9321W        W25130   4.589   8.473  15.356 -0.4319 -0.1534 -0.0226
 9322W        W25131   3.063  13.872   3.169 -0.5280 -0.1598 -0.1073
 9323W        W25132  12.298   9.851  12.126 -0.4070 -0.1370 -0.1809
 9324W        W25133   1.168   6.774  14.590 -0.3006 -0.1585  0.0545
 9325W        W25134  14.986  18.695   3.166  0.0293 -0.0240 -0.1122
 9326W        W25135   2.575  16.804  14.506 -0.1117 -0.1364  0.1460
 9327W        W25136  17.732  18.408   1.735 -0.1291  0.0863  0.0943
 9328W        W25137  13.251   8.167  10.480 -0.1399  0.1981  0.3698
 9329W        W25138   9.738   9.993  11.380 -0.0707 -0.1544  0.1818
 9330W        W25139   0.032   3.935  15.241  0.1976  0.0850  0.1298
 9331W        W25140   0.256   9.135  14.259  0.0035 -0.0774  0.0414
 9332W        W25141  17.713   9.118   1.651 -0.0899 -0.0287  0.1464
 9333W        W25142   7.845   7.345   9.898 -0.2789 -0.1516 -0.2730
 9334W        W25143  18.035   1.050   4.626 -0.1434  0.0912 -0.1859
 9335W        W25144   0.700   3.307  10.710  0.0718 -0.1516 -0.3596
 9336W        W25145   2.593  17.331  10.379  0.0311  0.0805  0.2981
 9337W        W25146   4.291   3.151   4.780 -0.0079 -0.1063 -0.2154
 9338W        W25147   0.205  15.449  10.132 -0.1072 -0.0281  0.0841
 9339W        W25148   5.235   7.295  13.475 -0.0202  0.0030  0.0374
 9340W        W25149  16.098   5.962   3.724  0.2466 -0.2468 -0.1643
 9341W        W25150  16.841  10.271   0.714  0.0743 -0.0264 -0.1764
 9342W        W25151   9.987   7.006   2.993 -0.0587  0.0382  0.0597
 9343W        W25152   1.488  14.969   0.161 -0.0250  0.2827 -0.0474
 9344W        W25153  16.518   2.502  11.763  0.1333 -0.1937  0.0395
 9345W        W25154  15.415   3.779   2.747  0.0829 -0.0906  0.2643
 9346W        W25155   2.216   8.234  15.308 -0.0097 -0.4003 -0.0248
 9347W        W25156  17.230  10.488   3.347  0.1613 -0.0136  0.3440
 9348W        W25157   2.657   4.856   0.441 -0.1117 -0.4106  0.2450
 9349W        W25158   4.189  11.276   2.496 -0.0971 -0.0111  0.1638
 9350W        W25159  18.397   0.670   4.458  0.0970  0.0822  0.1386
 9351W        W25160  16.363  12.230   2.597 -0.0114 -0.0695 -0.1528
 9352W        W25161  10.740   4.607   1.529  0.1058 -0.0160  0.1940
 9353W        W25162   8.226   8.799  13.710 -0.0899  0.1701  0.2592
 9354W        W25163  16.755  12.739  14.839 -0.2361 -0.4222  0.1098
 9355W        W25164   9.926  15.617   4.967  0.1265  0.1889 -0.5267
 9356W        W25165  18.439   7.158   1.045  0.0548 -0.2577  0.0811
 9357W        W25166  11.565   0.134   1.592  0.0515 -0.0673  0.0280
 9358W        W25167   4.392  15.001   2.593  0.1371 -0.0404 -0.3654
 9359W        W25168  10.955   5.571  10.826  0.1949  0.1564  0.0940
 9360W        W25169   4.008  17.412  13.862 -0.2111 -0.1944  0.1321
 9361W        W25170  16.570   8.725  12.116  0.0074  0.1301 -0.3486
 9362W        W25171  10.438  18.711   4.465 -0.1253  0.5122 -0.1695
 9363W        W25172  17.100  16.169  13.805  0.1717  0.1193  0.1356
 9364W        W25173   2.181   8.702  12.092 -0.4264  0.0916 -0.0121
 9365W        W25174  13.235   2.162   5.691 -0.1021 -0.2191  0.0203
 9366W        W25175   2.781   4.441   4.203 -0.0962 -0.5151 -0.1771
 9367W        W25176   6.698  14.061  12.330  0.1491  0.0330 -0.0787
 9368W        W25177   6.772  15.185  13.335  0.1002 -0.0532  0.0306
 9369W        W25178   3.920  13.770   0.937  0.2789 -0.0521  0.1396
 9370W        W25179   4.480  17.298   2.618  0.1538  0.0465 -0.1067
 9371W        W25180   2.140  11.340  14.114  0.2779  0.0979  0.2262
 9372W        W25181  18.070  12.829   4.033  0.0036  0.2222 -0.1427
 9373W        W25182   6.643   7.741   5.388 -0.0163 -0.0956  0.0138
 9374W        W25183   8.890   5.460  14.998 -0.1069 -0.0830  0.0991
 9375W        W25184   9.825  15.525   5.744  0.3611  0.3114  0.0166
 9376W        W25185   2.053   0.674   4.580 -0.0522 -0.0177 -0.0147
 9377W        W25186   9.937   5.320  13.177 -0.0075 -0.0891 -0.0204
 9378W        W25187  12.213   5.980   2.246  0.4942  0.0420  0.3331
 9379W        W25188   9.045  12.871   2.754 -0.1980  0.0150  0.0200
 9380W        W25189   5.083  18.653  12.278  0.2663  0.1205 -0.4871
 9381W        W25190  13.164  17.101  13.684  0.1549 -0.2356 -0.1631
 9382W        W25191  11.165   8.916  13.570  0.2011 -0.1289 -0.2090
 9383W        W25192   3.614  12.118  12.379 -0.3129  0.3082  0.2378
 9384W        W25193   3.768   3.073   1.822 -0.0387 -0.0966 -0.1863
 9385W        W25194   9.187  18.537   2.369 -0.2312  0.1959 -0.0224
 9386W        W25195   0.505  12.538  10.564 -0.2046 -0.2757 -0.2343
 9387W        W25196  10.454   7.104   1.342  0.0846 -0.1267 -0.3871
 9388W        W25197  10.473  14.308   4.783 -0.1056 -0.2279  0.0256
 9389W        W25198   2.556  10.147  15.183 -0.1121 -0.0324  0.1108
 9390W        W25199   1.697   3.959  15.362  0.0366 -0.1366  0.1284
 9391W        W25200   7.431  17.368   3.897  0.3493 -0.0430 -0.2349
 9392W        W25201   8.396   2.669   3.824 -0.1553  0.3382 -0.1822
 9393W        W25202   0.480  13.377   5.591  0.2220 -0.0054 -0.3890
 9394W        W25203  14.069   2.492   1.659  0.1420 -0.1702 -0.1479
 9395W        W25204   9.904   5.280  11.847  0.1556  0.2081  0.2586
 9396W        W25205  13.254  11.834   2.326  0.1257  0.1763  0.2178
 9397W        W25206   7.005  17.240   3.641 -0.1471 -0.1006 -0.1970
 9398W        W25207  13.565  14.255   0.135 -0.1196 -0.3064  0.3880
 9399W        W25208  11.480  10.565   3.836 -0.0899  0.1352  0.1722
 9400W        W25209  10.793   0.715   4.038 -0.1793  0.2070 -0.0297
 9401W        W25210  16.757  12.927  11.771  0.0347 -0.0489  0.0129
 9402W        W25211   1.376  18.078  12.165  0.0880 -0.1878 -0.0594
 9403W        W25212  12.527  10.162   0.046 -0.3830  0.0117  0.0424
 9404W        W25213   4.595   1.144   4.807 -0.2817 -0.0481  0.1736
 9405W        W25214  11.219   6.695  13.494 -0.5409 -0.0732  0.1403
 9406W        W25215   6.144   8.655   1.909 -0.0697 -0.2541 -0.0422
 9407W        W25216  10.687  12.638  11.800  0.1765  0.2649  0.2552
 9408W        W25217  14.659   6.199  14.629  0.0203  0.0826  0.1524
 9409W        W25218  17.207   7.830   5.308 -0.0753  0.0999  0.0726
 9410W        W25219  18.716  11.871  13.202 -0.0109  0.1383  0.1116
 9411W        W25220  10.255   3.516  11.816  0.1568 -0.1708  0.0657
 9412W        W25221  16.669   6.164   4.344  0.0959  0.1105  0.0042
 9413W        W25222  10.463   1.809   3.290 -0.2465 -0.0200 -0.0257
 9414W        W25223  15.372  10.624   2.705  0.0252  0.0261  0.1180
 9415W        W25224  10.445  16.637  10.699  0.0269 -0.1355 -0.0054
 9416W        W25225   6.067   9.031  11.913  0.0619 -0.0426 -0.2416
 9417W        W25226  15.925   7.936  11.986 -0.0225 -0.2974  0.3174
 9418W        W25227   4.842   2.189  12.201 -0.4235 -0.1521  0.0435
 9419W        W25228   0.389   5.265  14.529 -0.2374  0.1259  0.0854
 9420W        W25229  14.194  17.383   2.558 -0.1669  0.0404  0.0699
 9421W        W25230  14.468   5.797   2.496  0.4349 -0.3158  0.1660
 9422W        W25231   3.690  18.537  13.596 -0.3295  0.1256 -0.1604
 9423W        W25232   6.394  16.643  15.387  0.0439  0.2209  0.0889
 9424W        W25233  13.971  15.922   0.202  0.2618 -0.1233 -0.1191
 9425W        W25234   5.658   7.951  12.534 -0.1635 -0.2057  0.0614
 9426W        W25235   1.032   6.153   2.897 -0.1775 -0.2103 -0.0314
 9427W        W25236  17.063  16.211   2.435 -0.0541  0.0289  0.2030
 9428W        W25237  15.693   0.599   1.859 -0.1440 -0.0850  0.0185
 9429W        W25238   3.676   6.853   5.175  0.2667 -0.1949  0.1085
 9430W        W25239  10.338   1.494   0.318  0.0382  0.2341  0.1868
 9431W        W25240   2.262  18.461  11.940  0.3135 -0.1540  0.0291
 9432W        W25241  18.333   1.495  12.264 -0.1504  0.2347  0.0347
 9433W        W25242  15.033  12.527  10.775  0.0628 -0.0571 -0.3677
 9434W        W25243   7.587   3.091  13.135  0.2144 -0.0787 -0.0556
 9435W        W25244   0.111  14.534   3.256  0.0895 -0.1376 -0.2652
 9436W        W25245  15.915  10.387   1.073 -0.0818  0.2637  0.3599
 9437W        W25246   2.861   5.699   0.444  0.0231  0.0974 -0.3541
 9438W        W25247   7.878  16.342  14.438 -0.1391 -0.1447  0.2731
 9439W        W25248  17.318   3.689  11.802  0.2678 -0.0320  0.0094
 9440W        W25249   3.571   8.193   4.774  0.0868 -0.0244  0.0555
 9441W        W25250   3.866  12.271  11.845 -0.2455 -0.0439 -0.0201
 9442W        W25251   3.905  10.492  12.937  0.2263 -0.2330  0.6504
 9443W        W25252  17.217  12.594   1.281 -0.3321 -0.0201  0.2498
 9444W        W25253  17.820   2.522   4.085 -0.1055  0.1399  0.0322
 9445W        W25254   7.915   6.299   2.093 -0.0056 -0.2539 -0.2269
 9446W        W25255  17.205  12.479  10.672 -0.2000 -0.0482  0.1520
 9447W        W25256  14.948  13.820   9.965  0.0373 -0.1129  0.0327
 9448W        W25257  17.534   4.477   4.054  0.0975 -0.3869  0.2671
 9449W        W25258  16.059   7.656   2.393  0.1298 -0.2434 -0.1207
 9450W        W25259  13.754  16.596   2.264  0.0733  0.1657 -0.0937
 9451W        W25260   9.522  13.570  14.148 -0.1373 -0.1045  0.0961
 9452W        W25261   7.900  11.531   1.774  0.1724 -0.0930  0.1259
 9453W        W25262  18.044  18.277   3.210  0.1113  0.0825  0.3365
 9454W        W25263   5.864   7.431  14.633 -0.0407  0.2955  0.0545
 9455W        W25264   1.026   1.536  13.562 -0.2945  0.0851 -0.1830
 9456W        W25265  11.416  11.789  14.494 -0.0965  0.0653  0.0906
 9457W        W25266  14.789   8.114  15.360  0.0937  0.0078 -0.0841
 9458W        W25267  12.364   1.602  15.456 -0.0680 -0.0085 -0.0418
 9459W        W25268  13.013  11.075  12.979 -0.3294 -0.1278  0.2943
 9460W        W25269  15.798   1.040   0.128  0.3669  0.2657 -0.0131
 9461W        W25270  11.605  15.880   4.885 -0.1937  0.1675  0.2146
 9462W        W25271  10.281   8.071  12.734 -0.0196 -0.1816  0.3096
 9463W        W25272   3.975  17.891   1.177  0.0851  0.0863 -0.0712
 9464W        W25273  10.867   0.253   2.262  0.2834  0.0726  0.0218
 9465W        W25274   4.857   5.375   1.464 -0.0774 -0.0239 -0.2190
 9466W        W25275   1.599   0.990   3.672 -0.0015 -0.2509  0.0374
 9467W        W25276   8.190  12.809  12.810 -0.0147  0.2131  0.0376
 9468W        W25277   1.108   8.789  11.295  0.0980 -0.2328 -0.2702
 9469W        W25278   9.400  16.049  13.092 -0.2503 -0.0973  0.0988
 9470W        W25279   9.254   4.366   2.357  0.2881 -0.0112  0.3938
 9471W        W25280  16.438   5.055   2.268  0.2016 -0.0350 -0.2310
 9472W        W25281  13.330   0.501   4.544  0.3358  0.4257 -0.1365
 9473W        W25282  10.237  14.802  14.072  0.1729 -0.1399 -0.0550
 9474W        W25283   3.782   1.198   1.951  0.0922  0.0656 -0.0011
 9475W        W25284   6.406  17.147  14.983 -0.0535  0.0041 -0.2833
 9476W        W25285  14.567  12.485  10.665 -0.0064 -0.1503  0.2036
 9477W        W25286   5.003   8.079   2.583 -0.0429  0.0438 -0.2291
 9478W        W25287   5.359   1.775  13.858  0.1681 -0.0006  0.2834
 9479W        W25288  14.410   7.502   3.655 -0.0156 -0.1472  0.2225
 9480W        W25289   8.817  15.525  10.921 -0.0005 -0.2181 -0.0189
 9481W        W25290   9.021   5.063   1.469  0.0778 -0.2452  0.3429
 9482W        W25291   3.280   4.333  11.169 -0.1697 -0.0452 -0.0418
 9483W        W25292  10.366   6.511   0.717  0.1815  0.1971  0.0683
 9484W        W25293  18.476   7.173   2.845 -0.2118 -0.2662 -0.0917
 9485W        W25294  17.966   3.259  15.451  0.0699 -0.1837 -0.1626
 9486W        W25295   7.401  13.378   0.319  0.2201 -0.0578 -0.0728
 9487W        W25296   1.543  17.556  13.571  0.0266  0.0963 -0.0859
 9488W        W25297   0.014  12.445   3.219 -0.0139 -0.0707 -0.1835
 9489W        W25298   9.507  12.000   4.272 -0.0693  0.1732  0.1993
 9490W        W25299  16.884   2.824   3.722  0.0242 -0.1562  0.1055
 9491W        W25300  13.392  18.336   0.419 -0.1757  0.0983 -0.1374
 9492W        W25301  17.523  15.481  13.373  0.0878 -0.0159  0.1207
 9493W        W25302   9.574  18.586   0.522  0.2873 -0.0423  0.1420
 9494W        W25303  11.473  16.819   5.095 -0.0208  0.0444  0.1016
 9495W        W25304   9.627   8.447  14.570  0.0442 -0.0286  0.0244
 9496W        W25305   5.913  15.408   2.908  0.0334 -0.0419 -0.3594
 9497W        W25306   7.655   5.807   1.134  0.1783 -0.1205 -0.2694
 9498W        W25307  15.897  15.094   2.167 -0.0260  0.1544 -0.2467
 9499W        W25308   6.615  16.760   3.738  0.1928 -0.1442  0.2820
 9500W        W25309   4.365  12.260   0.733 -0.0327 -0.0562  0.1260
 9501W        W25310  17.248   5.070  15.549  0.0647 -0.1974  0.0459
 9502W        W25311   7.833  15.197  11.401  0.2507  0.1228 -0.0951
 9503W        W25312   7.295  17.782   4.173  0.0505  0.2214 -0.0370
 9504W        W25313  14.682   2.279   5.362 -0.0656 -0.1112  0.0759
 9505W        W25314  15.997  18.075   1.969 -0.1793 -0.0836 -0.0878
 9506W        W25315   2.528   2.240  11.343 -0.0161 -0.1217 -0.2179
 9507W        W25316   1.040  18.057   4.177  0.2838  0.0568 -0.1035
 9508W        W25317   2.481  18.487   4.284 -0.0675 -0.1865 -0.0598
 9509W        W25318  10.986   3.976   1.510  0.1296 -0.0117 -0.0855
 9510W        W25319  12.427   8.728   0.088  0.0257 -0.0612 -0.1532
 9511W        W25320  12.212   3.011   4.336 -0.2022  0.1919 -0.3577
 9512W        W25321   8.921   1.389   2.309  0.1592 -0.1924  0.0801
 9513W        W25322   6.081   3.211   0.049  0.1768  0.4035  0.0254
 9514W        W25323  11.512  10.428   0.129  0.1677  0.1887 -0.3317
 9515W        W25324  13.659   2.107   5.206  0.2140  0.0587  0.1401
 9516W        W25325   9.129  16.617  14.590 -0.0804 -0.0636 -0.1740
 9517W        W25326  17.307   9.349  11.738  0.0270  0.1640 -0.0368
 9518W        W25327  16.636   5.244  12.202  0.0355  0.1182  0.3375
 9519W        W25328   4.599  12.959   0.735 -0.1194 -0.0451 -0.2483
 9520W        W25329  13.797   3.778  13.092 -0.0754 -0.2079 -0.3622
 9521W        W25330   9.982  11.793   3.757  0.0725 -0.0013  0.0775
 9522W        W25331  10.009   4.361  12.229 -0.0580 -0.3512 -0.1276
 9523W        W25332   0.655  12.216  10.942  0.4777  0.1931 -0.2369
 9524W        W25333  13.631   1.010  14.905  0.0364 -0.2417  0.1812
 9525W        W25334  12.136  12.536   4.007 -0.0628  0.3822  0.0963
 9526W        W25335  10.653  12.483   0.444 -0.1097  0.0651 -0.0040
 9527W        W25336  17.120   4.252   2.382  0.0803 -0.0237  0.4042
 9528W        W25337  17.522  13.138  10.858  0.2338 -0.0136 -0.2055
 9529W        W25338  16.603   7.102  12.358 -0.2537  0.0411 -0.1644
 9530W        W25339   5.303   3.454  15.236 -0.2928 -0.0203 -0.1280
 9531W        W25340  14.450   2.742   1.109 -0.1500 -0.2268  0.3148
 9532W        W25341   1.349  16.944   0.220 -0.1294  0.2621 -0.2713
 9533W        W25342   6.820  12.756   3.211 -0.0171  0.1720 -0.0548
 9534W        W25343  10.154  18.515   0.837 -0.1256 -0.3130 -0.0037
 9535W        W25344   6.984   0.288   3.754 -0.0419  0.1239  0.2828
 9536W        W25345   8.102  16.105  11.206  0.0163 -0.1398 -0.3425
 9537W        W25346   2.239  15.296  13.036  0.1123 -0.1475 -0.1657
 9538W        W25347  13.821  18.021   4.457 -0.1000 -0.0745 -0.0408
 9539W        W25348   3.433  13.553  14.310  0.0118 -0.0579  0.0992
 9540W        W25349  10.349   4.969  13.274 -0.2812 -0.1226  0.0708
 9541W        W25350  16.945   9.157   2.162 -0.2364  0.1843  0.0920
 9542W        W25351   4.247   0.692  14.398  0.1326  0.1788 -0.2172
 9543W        W25352  14.979  16.705  13.008 -0.2890  0.0374 -0.1631
 9544W        W25353   8.103  13.818  10.698  0.1042  0.2935  0.0428
 9545W        W25354   5.516   2.837  11.975  0.1177 -0.3520  0.1306
 9546W        W25355   1.933   5.741   1.821 -0.1914 -0.1642  0.1590
 9547W        W25356   4.107  12.910  12.698 -0.2301  0.0544 -0.0230
 9548W        W25357  11.278   4.808   2.484 -0.5341 -0.0862 -0.0696
 9549W        W25358  12.326   0.850  13.010  0.3997  0.0207  0.0546
 9550W        W25359  14.613   8.658  14.461 -0.1227 -0.1256  0.1154
 9551W        W25360  13.934   5.608  12.500 -0.0159  0.1954 -0.0969
 9552W        W25361  14.483  17.892   5.444  0.2211 -0.0033 -0.2505
 9553W        W25362  14.896  16.624   5.147  0.1763 -0.0232  0.1883
 9554W        W25363  14.597   3.120  11.795 -0.1212 -0.3878  0.1181
 9555W        W25364  16.060   4.297   0.858  0.4669 -0.0465  0.2103
 9556W        W25365  15.460  16.170   1.860 -0.1376  0.1613  0.3775
 9557W        W25366  12.669  15.764  12.749 -0.1096 -0.0922  0.0728
 9558W        W25367  15.467  14.623   0.355 -0.1083 -0.0842 -0.0463
 9559W        W25368   2.035  16.991   1.917 -0.1037 -0.1038  0.0413
 9560W        W25369  12.208   1.440  12.373  0.2965 -0.2189  0.1665
 9561W        W25370   6.363   7.703   4.277  0.1809  0.1557  0.1528
 9562W        W25371   7.483  13.154  11.378  0.1495  0.0308  0.1098
 9563W        W25372  12.966  10.994   0.256  0.1718 -0.2221  0.3075
 9564W        W25373   8.082  14.772   2.118  0.0921 -0.1831 -0.0042
 9565W        W25374   4.400   7.910  11.983 -0.0303 -0.0181  0.3311
 9566W        W25375   9.689  14.337  11.969  0.2689  0.1380 -0.1907
 9567W        W25376   6.706  17.047  13.034 -0.0780 -0.0590 -0.4549
 9568W        W25377   1.210  12.474   1.854 -0.1476  0.0192 -0.0657
 9569W        W25378   8.163   0.131   3.599  0.1211  0.0473 -0.1935
 9570W        W25379  18.498  15.883  14.474  0.1604  0.1655  0.1277
 9571W        W25380  13.678  12.934   0.314 -0.0868 -0.0793 -0.2165
 9572W        W25381   1.752   6.558   3.448  0.1401  0.0550 -0.1151
 9573W        W25382  15.826  15.214   6.062 -0.2425  0.0355 -0.3039
 9574W        W25383   1.238  15.394   1.385  0.1642  0.5408  0.0067
 9575W        W25384   1.995  16.017   5.131  0.1167  0.5603  0.0897
 9576W        W25385   8.139   9.709   0.907 -0.0124 -0.1298 -0.0404
 9577W        W25386   6.028   9.133   1.837 -0.0388 -0.0511 -0.0194
 9578W        W25387   8.287   3.741  11.739  0.1705 -0.0177  0.2297
 9579W        W25388   0.675  15.695   3.979  0.1728  0.2771  0.2021
 9580W        W25389   0.715   9.047   1.305  0.1115 -0.5462  0.2038
 9581W        W25390   5.297  18.071   4.051 -0.4197  0.1023  0.1537
 9582W        W25391   4.219  17.778   3.679  0.2083 -0.2099 -0.1978
 9583W        W25392   8.504   6.831  11.086 -0.1417  0.1521 -0.0783
 9584W        W25393   3.834   6.357   5.180  0.2302  0.2789 -0.0410
 9585W        W25394   5.050   7.019   0.615  0.0490  0.2305 -0.3309
 9586W        W25395  12.365   3.234   0.435 -0.2730 -0.1058  0.0204
 9587W        W25396   5.091   1.797   1.570  0.2828 -0.0253  0.0905
 9588W        W25397  13.239  10.802   4.405 -0.1454 -0.0927  0.1152
 9589W        W25398  12.938  15.463   2.321 -0.0332  0.0318 -0.0717
 9590W        W25399  11.874   1.938  14.030 -0.1841 -0.1006 -0.1945
 9591W        W25400   2.011  15.899  13.119  0.1376  0.2606  0.1021
 9592W        W25401   6.057   6.919  13.915 -0.0090  0.0063  0.0910
 9593W        W25402  15.252  12.851   0.024  0.0630 -0.0226 -0.2052
 9594W        W25403  12.261   2.633   0.206  0.0107 -0.0717 -0.3581
 9595W        W25404   6.388  10.112   1.562 -0.0812 -0.0367  0.2225
 9596W        W25405   3.440   8.820   1.166 -0.1491  0.0293 -0.0372
 9597W        W25406   3.377  14.072   9.467  0.1013  0.1226  0.1042
 9598W        W25407   2.576   5.917  14.691 -0.2591  0.1305  0.1206
 9599W        W25408   4.950  10.612   0.900 -0.2759 -0.0517  0.1496
 9600W        W25409  10.622  18.482  11.698  0.1955  0.0298  0.0784
 9601W        W25410   1.638   8.746  10.743  0.0434  0.0261  0.4425
 9602W        W25411   1.636   7.970   4.710  0.0322  0.1224  0.0048
 9603W        W25412   8.398   3.374  14.953 -0.0283 -0.2215  0.0172
 9604W        W25413   3.635   7.747   5.542  0.0029  0.1988 -0.0701
 9605W        W25414  17.702  13.350  14.089  0.2418 -0.0559 -0.1927
 9606W        W25415   0.893  12.314  11.611  0.2380 -0.1090 -0.1254
 9607W        W25416  18.677   2.458   0.660 -0.0762  0.0038 -0.0453
 9608W        W25417  17.992   5.248   4.531 -0.2818  0.1652  0.3518
 9609W        W25418  17.444  11.701  13.090 -0.0152 -0.0978  0.1317
 9610W        W25419  17.241  15.093  13.684 -0.1368  0.1915 -0.0886
 9611W        W25420   5.696  11.115  14.332 -0.4881 -0.0033 -0.0779
 9612W        W25421  10.839  13.072  14.062  0.0766 -0.1045 -0.0784
 9613W        W25422  18.003   4.411   4.286 -0.0491  0.1161  0.0402
 9614W        W25423  10.462  12.500   2.265  0.3014  0.0496  0.1859
 9615W        W25424   3.367  18.403  10.298 -0.0461 -0.3065  0.0036
 9616W        W25425  16.185   5.975  12.041 -0.0232 -0.1836 -0.1213
 9617W        W25426   4.537   5.781  11.811  0.0788 -0.0234  0.2151
 9618W        W25427   5.463  16.481   0.963  0.1019  0.2180  0.1084
 9619W        W25428  17.721   3.118  14.922  0.1182 -0.1285 -0.2096
 9620W        W25429  10.106   9.854  11.737 -0.1278 -0.2188  0.1675
 9621W        W25430  11.940  15.489   5.146  0.0116  0.1561  0.3081
 9622W        W25431   9.589   6.206  11.584 -0.2110  0.1108 -0.2107
 9623W        W25432  11.775  18.088  13.419 -0.2429  0.0819  0.0716
 9624W        W25433   7.285   2.117  12.011  0.1656  0.0045  0.0485
 9625W        W25434  10.152  12.235  14.223  0.0279 -0.2372 -0.3556
 9626W        W25435   6.074   8.544   4.051 -0.2264 -0.0238 -0.1685
 9627W        W25436  16.549  16.617  12.700  0.0985 -0.2737 -0.0920
 9628W        W25437   6.432  15.313  14.705  0.1405  0.0641  0.0468
 9629W        W25438   9.421   0.874  11.871  0.0729 -0.2079  0.1949
 9630W        W25439   0.895   2.448  15.033 -0.1639 -0.1535 -0.1149
 9631W        W25440   4.948  17.477  11.890  0.1836 -0.3181  0.0781
 9632W        W25441  17.741   2.561  14.272 -0.3488 -0.0429  0.2391
 9633W        W25442   0.093  11.332  10.937  0.2585  0.1817 -0.1988
 9634W        W25443  10.630   1.538   4.896 -0.3194 -0.2183 -0.0505
 9635W        W25444  17.201  12.868  13.414 -0.3591 -0.1095  0.1074
 9636W        W25445   7.928  14.216   0.463 -0.0053  0.0374 -0.3948
 9637W        W25446  15.644  11.399  14.944 -0.0348 -0.0048 -0.1823
 9638W        W25447  17.978  16.756   4.559  0.0805 -0.2541 -0.1065
 9639W        W25448  17.737  12.824  11.236  0.1049  0.0908 -0.3151
 9640W        W25449  12.901  14.726  11.469 -0.2340 -0.1680 -0.1036
 9641W        W25450   0.840   9.598  10.870 -0.2676 -0.0213  0.2266
 9642W        W25451   5.006  16.591  13.792  0.3015  0.1211 -0.3784
 9643W        W25452   0.035  10.580  12.325 -0.0597  0.3979 -0.1513
 9644W        W25453   4.443  14.199   0.138  0.1633  0.1114 -0.1309
 9645W        W25454  12.607  17.941   4.092  0.3560 -0.1330  0.0076
 9646W        W25455   9.942   3.074   2.996  0.0984 -0.4418  0.1668
 9647W        W25456   3.791  16.398   4.952 -0.0118  0.3934  0.0271
 9648W        W25457  11.977  15.951   3.439 -0.0523  0.2289  0.2877
 9649W        W25458  10.082   4.790   2.358 -0.3067 -0.3783  0.0633
 9650W        W25459   2.911  15.086  12.946 -0.0650  0.2596 -0.0830
 9651W        W25460  15.439   6.625  14.190 -0.3254 -0.2272 -0.1488
 9652W        W25461   1.100   8.625   4.599  0.2867 -0.3564 -0.0148
 9653W        W25462  12.596   8.371   2.193 -0.0043  0.0083 -0.1357
 9654W        W25463   0.930  15.763  15.287  0.1868 -0.1333  0.0337
 9655W        W25464  12.401   0.359   3.647 -0.0335  0.0850  0.3010
 9656W        W25465   7.880   2.145  13.283 -0.1074 -0.2573  0.1348
 9657W        W25466   1.791  17.746  15.486 -0.0355 -0.1006  0.2580
 9658W        W25467   6.807  16.678   1.911 -0.0874 -0.2542  0.0074
 9659W        W25468  13.932   5.592  15.312  0.2487  0.2545  0.1231
 9660W        W25469   7.589   6.920  10.773 -0.4165  0.2036 -0.2833
 9661W        W25470  12.846   2.639   4.990  0.2386 -0.2570 -0.0727
 9662W        W25471  16.014  12.645  15.340 -0.0041 -0.2184  0.2398
 9663W        W25472   7.921  14.156  13.948  0.1781 -0.4144 -0.0428
 9664W        W25473   0.788   4.635   3.661  0.1958  0.1101 -0.1728
 9665W        W25474   8.040   6.951   4.321  0.0363  0.0196  0.2097
 9666W        W25475   2.805  11.540  10.696 -0.0098 -0.3720 -0.0189
 9667W        W25476   1.735   0.845   4.952  0.1387 -0.1488  0.0797
 9668W        W25477  17.054   6.928   4.465  0.0159 -0.1234 -0.3570
 9669W        W25478   5.541  17.696  14.452 -0.1609 -0.1577  0.0788
 9670W        W25479   3.342  15.831   2.591  0.2465  0.1069  0.3286
 9671W        W25480   4.220   3.247   2.002 -0.2979  0.1117 -0.0690
 9672W        W25481   6.624  18.230  10.541  0.0267  0.0352 -0.2319
 9673W        W25482   9.698   2.859   3.391 -0.0831  0.0304 -0.1205
 9674W        W25483   9.389   8.582  14.108  0.1076 -0.2794 -0.4334
 9675W        W25484   0.143   9.695   1.081 -0.0487 -0.1616  0.1434
 9676W        W25485   3.954   1.643  11.113  0.3573  0.1768  0.0374
 9677W        W25486  14.034  11.881  11.305 -0.2060  0.0809  0.1119
 9678W        W25487   9.669   5.172  12.762  0.0144  0.0548 -0.1785
 9679W        W25488  18.368  11.697   1.011  0.3970 -0.1465  0.1766
 9680W        W25489   8.432  15.276  11.107 -0.0252 -0.2004  0.1086
 9681W        W25490   1.790   2.158  13.705 -0.1219 -0.3631  0.0272
 9682W        W25491   1.759  14.596  11.735  0.0115 -0.1228  0.1289
 9683W        W25492  15.070   8.657  12.931  0.0472  0.0928 -0.2381
 9684W        W25493   9.351   1.854   1.409 -0.0154 -0.2020  0.0222
 9685W        W25494   2.233  13.187   2.787 -0.1674  0.1670  0.2055
 9686W        W25495  14.366  18.135   0.710  0.2069  0.0110  0.1292
 9687W        W25496   7.970  10.558  11.351 -0.0464 -0.1597 -0.1531
 9688W        W25497   4.102   1.458   0.698  0.0959 -0.1345 -0.2433
 9689W        W25498   8.014  16.593  11.392 -0.2481  0.3217  0.0632
 9690W        W25499  11.431   3.494  13.006  0.1852  0.0798  0.2175
 9691W        W25500  13.559   1.614  10.789 -0.0005  0.2426  0.0895
 9692W        W25501  13.493   4.176   1.777  0.0653  0.1712  0.0210
 9693W        W25502   8.034  12.718   3.971  0.0453  0.1920  0.3694
 9694W        W25503   3.019   4.380  10.218 -0.3797 -0.0041  0.0234
 9695W        W25504  11.536  15.515   0.892 -0.2473 -0.2171  0.0710
 9696W        W25505   9.729   3.119  13.458  0.1248 -0.0968  0.1029
 9697W        W25506   4.759   0.608  14.743  0.0677  0.0919 -0.2399
 9698W        W25507   4.611   0.241  13.253 -0.1657  0.0625 -0.0648
 9699W        W25508   5.664  18.145   1.154 -0.0240  0.0245  0.0170
 9700W        W25509   6.219   7.741  11.171 -0.1459 -0.2183 -0.3676
 9701W        W25510  16.295  14.791  11.151  0.1772  0.0060 -0.0546
 9702W        W25511  18.305   2.950   4.429  0.1637 -0.2179 -0.2042
 9703W        W25512  11.202  15.271  13.906  0.0147 -0.0115 -0.0954
 9704W        W25513   8.959  11.101   5.087 -0.0658 -0.0870  0.1724
 9705W        W25514  13.075  10.163  13.274  0.0929 -0.1270 -0.0131
 9706W        W25515   9.752  12.115   0.933  0.0408 -0.2517 -0.2586
 9707W        W25516   2.294   4.018  10.815 -0.1321 -0.2033 -0.1326
 9708W        W25517   1.853  14.157   3.656  0.0559  0.3118 -0.2900
 9709W        W25518   7.794  10.200  10.142 -0.0509  0.1839 -0.3149
 9710W        W25519   8.488   8.281  12.305  0.1690  0.3589  0.0430
 9711W        W25520  15.319  11.624   2.281  0.4262 -0.3887  0.1401
 9712W        W25521  12.682   5.070   0.722  0.1179 -0.3419 -0.0629
 9713W        W25522   8.996  10.187  14.688 -0.0851  0.0501 -0.0117
 9714W        W25523   9.144  12.511  11.518 -0.1639  0.3003  0.2553
 9715W        W25524   8.417   8.668  11.928  0.0677  0.1944 -0.1178
 9716W        W25525  12.209  13.391   4.227 -0.1746  0.0935 -0.0202
 9717W        W25526  16.654  12.123   3.171  0.0067 -0.1119 -0.3762
 9718W        W25527  11.051  10.642   3.104 -0.3464 -0.4971  0.0392
 9719W        W25528   1.667  13.560  11.574  0.2012 -0.0267  0.0827
 9720W        W25529  16.514  12.750  15.388  0.2285  0.0170  0.1563
 9721W        W25530  14.345   9.573  13.137  0.3494  0.2656 -0.1791
 9722W        W25531  15.521  17.069   4.110  0.1899 -0.1630  0.1060
 9723W        W25532   6.093   5.675  12.867  0.0112 -0.1265 -0.0401
 9724W        W25533   6.060  15.122  14.409  0.3862 -0.3566  0.2558
 9725W        W25534   8.628   7.494  15.054  0.2232 -0.1183  0.0036
 9726W        W25535   8.895   0.260   4.366  0.0088 -0.1400 -0.0740
 9727W        W25536   7.279   7.278   3.694  0.0975 -0.2711 -0.1895
 9728W        W25537   0.777   7.257  13.931 -0.0019  0.2266 -0.1048
 9729W        W25538   0.502  16.542  15.527 -0.0809  0.0580  0.0098
 9730W        W25539  15.373   8.989   0.815 -0.0175  0.0747 -0.0850
 9731W        W25540   2.198  17.370   0.077 -0.1843  0.2327  0.2807
 9732W        W25541  10.198   0.848   4.285 -0.0316 -0.1235 -0.2334
 9733W        W25542   6.882  10.958   0.468  0.1091 -0.3223  0.1543
 9734W        W25543   1.511  11.985  10.919  0.0304  0.0872  0.1677
 9735W        W25544   5.003   6.858  11.960  0.3423  0.3341 -0.2974
 9736W        W25545   3.633   0.941  10.084 -0.1393  0.0227 -0.1098
 9737W        W25546   4.406   9.630   4.108  0.0793 -0.2467 -0.1019
 9738W        W25547   0.928  10.751   0.223 -0.3075 -0.2224  0.1585
 9739W        W25548   3.264   4.537  13.697  0.2715  0.1765 -0.1506
 9740W        W25549  14.471  17.843  14.365 -0.5128 -0.4712 -0.1007
 9741W        W25550  11.186   5.502   1.554 -0.1129  0.0590  0.0767
 9742W        W25551  15.179   5.598  12.801 -0.1668  0.2737 -0.1986
 9743W        W25552   1.114   4.499   2.713 -0.0709  0.1227  0.2477
 9744W        W25553   2.910   1.626  12.604 -0.0728  0.2216  0.2005
 9745W        W25554   7.935   7.396  10.674 -0.1389 -0.1207  0.0600
 9746W        W25555  15.879  17.670  14.669 -0.0188 -0.1321  0.0676
 9747W        W25556   3.156  11.176   2.600 -0.2318 -0.0528  0.1563
 9748W        W25557  14.156   1.385   0.599  0.1115  0.3920 -0.0310
 9749W        W25558  17.236  11.612   4.810 -0.0800 -0.3428 -0.2990
 9750W        W25559  10.210  15.843   3.126 -0.1073  0.2951 -0.1338
 9751W        W25560  11.006  15.939  14.654  0.2058 -0.1853  0.1302
 9752W        W25561  13.705   7.763  12.896  0.2967  0.0060  0.0941
 9753W        W25562   1.525  17.338  11.037  0.0354 -0.1791 -0.2509
 9754W        W25563   5.621   8.200  13.905 -0.2034 -0.2003 -0.0945
 9755W        W25564   1.565   3.554   2.670 -0.1026 -0.1379 -0.1180
 9756W        W25565   3.379  14.865  11.732  0.2100 -0.2516 -0.0069
 9757W        W25566   3.064   3.673  11.972  0.1205  0.0218  0.1778
 9758W        W25567   3.200  15.018   0.471  0.1716  0.2760 -0.1857
 9759W        W25568   3.032  11.726   5.006  0.3857  0.1035  0.1158
 9760W        W25569   5.529  15.244  12.747 -0.2549 -0.1479 -0.1953
 9761W        W25570  10.404  17.937   0.202  0.1364  0.2944  0.1612
 9762W        W25571  12.855   5.226  13.622  0.0589  0.2777 -0.0303
 9763W        W25572   5.113   6.806   0.179  0.2513 -0.0952 -0.4634
 9764W        W25573   4.679  16.071  12.083  0.0151 -0.1131 -0.0900
 9765W        W25574   1.019  17.384  10.806 -0.2063  0.3198  0.0750
 9766W        W25575   5.716  13.642  12.183  0.1766 -0.1351 -0.1819
 9767W        W25576  15.201  18.060   4.701 -0.0774 -0.2970 -0.3468
 9768W        W25577   4.005   9.725  10.831 -0.0482 -0.1137 -0.1004
 9769W        W25578  11.707  10.938  12.986 -0.0845 -0.1793 -0.0151
 9770W        W25579  15.287   8.500  14.719 -0.1025  0.0924  0.0131
 9771W        W25580   6.151   0.238  11.631  0.1857  0.1605 -0.0336
 9772W        W25581   9.884  17.077   5.827 -0.0655  0.0578 -0.2112
 9773W        W25582  16.337   1.157   3.421 -0.0748  0.0051 -0.1880
 9774W        W25583   8.864  10.770  14.810  0.1488  0.2550  0.0188
 9775W        W25584   5.478   8.154   1.041  0.0652 -0.1529  0.1289
 9776W        W25585   3.927  16.879  11.235  0.1533 -0.3360 -0.2406
 9777W        W25586   6.012  12.387   4.667 -0.0326 -0.4115  0.2753
 9778W        W25587   3.201  16.244  13.262 -0.2514  0.2023 -0.0887
 9779W        W25588   9.837   7.895   0.346 -0.1572 -0.2065 -0.2606
 9780W        W25589  13.756   9.026   2.477  0.2676  0.1109 -0.0031
 9781W        W25590   5.018  17.320   2.949 -0.0056  0.0893  0.2536
 9782W        W25591  15.917  16.746  12.123 -0.0092 -0.4906 -0.3165
 9783W        W25592   0.834   7.650  11.116 -0.0966 -0.2322  0.1066
 9784W        W25593  12.214   8.266  11.806 -0.1677  0.1491  0.1494
 9785W        W25594   3.203  13.886   9.872  0.2818 -0.0660 -0.1359
 9786W        W25595  13.788   8.208   2.727 -0.0878  0.0134 -0.1602
 9787W        W25596   8.723   8.377   2.535 -0.0342  0.0253  0.3648
 9788W        W25597   3.695  12.019  11.301 -0.2717 -0.0302  0.0448
 9789W        W25598   6.603  18.270  11.570  0.0699 -0.0612 -0.0118
 9790W        W25599   5.723  14.517   4.865 -0.0717  0.1633  0.1686
 9791W        W25600  16.815   9.441   0.609 -0.1617  0.1022  0.2882
 9792W        W25601   6.975  14.180   3.382 -0.1007 -0.0575 -0.0516
 9793W        W25602   7.901   3.640  12.591 -0.1905  0.1447 -0.1627
 9794W        W25603  12.835   4.129   0.192  0.1319  0.0683  0.3861
 9795W        W25604  11.841   0.740   2.224 -0.0015  0.2670 -0.1372
 9796W        W25605   3.381  18.037  11.683 -0.0407 -0.3469 -0.0479
 9797W        W25606   2.499   5.534  12.386  0.2954 -0.1042  0.0948
 9798W        W25607  17.878   3.105  10.785 -0.1806 -0.1637 -0.0327
 9799W        W25608  15.960   9.141   2.138 -0.3865  0.1672 -0.3535
 9800W        W25609  10.689  18.014   1.145 -0.1661 -0.3197 -0.3571
 9801W        W25610   1.827  17.153   0.519  0.0975 -0.2555 -0.1016
 9802W        W25611  13.136  16.341   4.843  0.1352 -0.4026 -0.1210
 9803W        W25612  10.698  17.780   0.727  0.0333 -0.1342  0.1471
 9804W        W25613   9.376   8.076   0.242 -0.1711 -0.0459  0.4159
 9805W        W25614  11.395   0.946  14.095 -0.2521 -0.2645 -0.2436
 9806W        W25615   6.382   7.099  12.976  0.0958  0.1084 -0.0039
 9807W        W25616   9.632   5.738   2.382  0.3024  0.1706 -0.1981
 9808W        W25617   9.555   0.146   4.093  0.1181  0.0485 -0.1056
 9809W        W25618  18.757  11.983  12.277  0.0102 -0.0741 -0.0491
 9810W        W25619   7.793  18.581   3.003  0.0778  0.2234  0.1604
 9811W        W25620   9.439   5.965   3.355 -0.2097  0.3596  0.2390
 9812W        W25621   7.315  15.670  14.746  0.0597 -0.0587  0.0089
 9813W        W25622   1.111  15.489  12.425  0.4063  0.0091 -0.3471
 9814W        W25623   9.723  17.453  11.720 -0.3444 -0.1704 -0.1699
 9815W        W25624   2.808   4.131   3.170  0.6711  0.1341  0.3828
 9816W        W25625  12.303   3.584   1.456  0.2103  0.1428  0.1177
 9817W        W25626   3.349   4.703   4.269  0.4638 -0.1523  0.0997
 9818W        W25627   0.237  16.737  10.704  0.0192 -0.2358 -0.1974
 9819W        W25628  12.634  10.312  11.505  0.1364 -0.0863 -0.1322
 9820W        W25629  17.033  11.662  12.106  0.0013  0.1803 -0.2857
 9821W        W25630   1.782   9.635  10.430  0.1949 -0.2173  0.4523
 9822W        W25631   2.407   4.207  12.720 -0.2429 -0.0887 -0.2459
 9823W        W25632  10.294   5.909  12.390  0.0168  0.2217 -0.0042
 9824W        W25633  12.431  13.777   3.786 -0.1077 -0.3174 -0.0929
 9825W        W25634   2.852   0.348   0.685  0.0998 -0.0843 -0.0125
 9826W        W25635   1.307   2.807   3.858  0.0439  0.1290 -0.2281
 9827W        W25636  11.312   7.349   3.803 -0.1269  0.0409  0.1735
 9828W        W25637  12.881  18.510  14.231  0.0362 -0.4035 -0.0336
 9829W        W25638   2.449  18.006   4.727  0.1348 -0.0772  0.0041
 9830W        W25639   2.302   1.208   9.514 -0.1583 -0.0350  0.0048
 9831W        W25640   9.546   6.982   2.642  0.1066  0.3685  0.2004
 9832W        W25641  14.768  12.397   4.795  0.0168  0.0585  0.0114
 9833W        W25642   3.610   5.320   3.266  0.2241  0.2904  0.1673
 9834W        W25643  18.233  12.757  13.786 -0.2920  0.1444 -0.0598
 9835W        W25644  15.764   9.367   0.960 -0.1189 -0.2777 -0.0264
 9836W        W25645   0.236  10.657   4.671 -0.1223 -0.1542  0.2053
 9837W        W25646  13.338   3.415  12.300  0.3545 -0.0880 -0.2423
 9838W        W25647  17.432   2.802  15.257  0.2415  0.0633  0.1554
 9839W        W25648  13.455   0.522  13.703 -0.0198 -0.0865 -0.2075
 9840W        W25649   5.513  14.889   1.958  0.1298  0.1298  0.4211
 9841W        W25650   7.183  16.764  13.124 -0.1181  0.0497 -0.0439
 9842W        W25651   8.779   0.427  13.900  0.2257  0.2127 -0.0206
 9843W        W25652  12.514   3.676   2.750  0.1040 -0.3775 -0.1840
 9844W        W25653  12.401  13.560   1.205  0.1270 -0.0556  0.0145
 9845W        W25654  14.094  10.986  13.430 -0.0272  0.0324 -0.0230
 9846W        W25655  13.762   0.749  13.363  0.2855 -0.2219  0.0223
 9847W        W25656  13.674   2.091  14.436 -0.0311  0.1942 -0.0026
 9848W        W25657   5.578   2.804  14.506 -0.3407 -0.0345  0.0160
 9849W        W25658  16.265  17.146   6.234  0.0422 -0.1979  0.0931
 9850W        W25659   5.918   9.393   2.320 -0.0714 -0.2083 -0.0948
 9851W        W25660  14.629   5.329   3.656  0.2680  0.0935 -0.0925
 9852W        W25661   4.935  12.799  11.898  0.0591  0.0651 -0.2806
 9853W        W25662   6.187   0.522  13.502  0.1368  0.0484 -0.3483
 9854W        W25663   8.792   6.079  15.434 -0.2079 -0.0240 -0.0538
 9855W        W25664   2.006   6.836   0.827 -0.1016 -0.0310  0.3006
 9856W        W25665   3.516  14.805  14.638 -0.2590 -0.2410 -0.0179
 9857W        W25666  16.795  13.819  15.210  0.1894  0.0716 -0.2230
 9858W        W25667   2.715  10.700  13.598  0.2400  0.2005  0.1076
 9859W        W25668   3.107  13.447  11.601 -0.1739  0.1832 -0.3673
 9860W        W25669   0.016  11.637  14.364  0.2587 -0.2397 -0.0662
 9861W        W25670  16.009  10.914  14.173 -0.0248 -0.1276 -0.1450
 9862W        W25671   8.764  12.351   0.069  0.2078  0.0149  0.0915
 9863W        W25672  16.174  10.661   2.425 -0.1342  0.3512 -0.1218
 9864W        W25673   2.572  15.947  13.877 -0.1073 -0.1293 -0.0827
 9865W        W25674   9.722   2.398   6.103  0.0243  0.1460 -0.4339
 9866W        W25675   6.442  18.262   0.692  0.1042  0.0339  0.2731
 9867W        W25676   5.019  17.727   5.435  0.2316  0.3568 -0.0840
 9868W        W25677  11.293   8.150  14.770  0.1462 -0.0360  0.0213
 9869W        W25678   1.030   6.419  14.883 -0.2280 -0.0005 -0.0398
 9870W        W25679  17.338  17.439  12.449  0.1542  0.1086  0.0488
 9871W        W25680  10.099   4.873   5.306 -0.0220 -0.3556 -0.2039
 9872W        W25681   2.945  16.390  14.769  0.1296  0.0790  0.0184
 9873W        W25682   5.211  15.939   2.933  0.2694  0.0423  0.1002
 9874W        W25683  10.602   2.795   1.964 -0.0698 -0.1049  0.1165
 9875W        W25684   1.283   6.085   1.544  0.1738 -0.3067 -0.0057
 9876W        W25685  14.944  14.194   1.860  0.0243  0.1724 -0.0484
 9877W        W25686  10.630   9.863  13.049 -0.4997 -0.1830  0.0374
 9878W        W25687   3.126   7.578  12.587 -0.0561  0.0624  0.2351
 9879W        W25688   3.127  10.477   4.980 -0.1725  0.0362 -0.1947
 9880W        W25689   0.005  14.883  10.927  0.0152 -0.1376  0.1761
 9881W        W25690   6.599  11.917   0.048 -0.0552 -0.4082 -0.0558
 9882W        W25691   6.210  11.414   1.120 -0.0391 -0.1495 -0.0336
 9883W        W25692  12.477   8.172   3.598 -0.4626  0.0746  0.0433
 9884W        W25693   8.007   8.469  15.069 -0.1161 -0.1263 -0.0425
 9885W        W25694   6.909  10.758  15.421  0.0915  0.1681  0.2448
 9886W        W25695  13.717  17.406  13.076 -0.1014  0.1886  0.4107
 9887W        W25696  13.702   3.709  14.919  0.3943 -0.1072 -0.0665
 9888W        W25697  16.765   5.471   4.329  0.6666 -0.0801 -0.1200
 9889W        W25698   4.351   4.884   1.899 -0.0517 -0.1148 -0.4348
 9890W        W25699   9.948   4.356   4.868 -0.0954  0.1448 -0.2289
 9891W        W25700  17.570  14.164  12.884 -0.0965  0.1376 -0.1064
 9892W        W25701  18.231  13.368   9.451 -0.0459  0.4003 -0.1476
 9893W        W25702   0.592   2.231  14.283  0.0066  0.1469 -0.0586
 9894W        W25703  15.505  12.471   4.006  0.0354 -0.2118 -0.0475
 9895W        W25704   5.135   7.140   4.841  0.3681  0.0297 -0.0710
 9896W        W25705   9.043   2.986   5.186 -0.1849 -0.0229  0.2307
 9897W        W25706  13.690   2.120  15.327  0.0710 -0.0859  0.0099
 9898W        W25707   9.172   8.856   1.301 -0.1304  0.0487  0.2699
 9899W        W25708  11.580   7.437  11.441  0.1693 -0.0888 -0.1906
 9900W        W25709  10.329   6.708  13.268  0.0788  0.2502 -0.0744
 9901W        W25710   6.324  12.648  12.014  0.3544  0.3783  0.0353
 9902W        W25711   5.022   5.917   3.191  0.2170 -0.0672 -0.1116
 9903W        W25712  14.641   7.041   4.406 -0.1179 -0.2875 -0.1023
 9904W        W25713   2.141   4.675  15.037  0.0183  0.0059 -0.1211
 9905W        W25714   6.768  14.616  12.173  0.0657 -0.1875  0.1546
 9906W        W25715   8.954  14.920  11.657  0.0924  0.2489 -0.5041
 9907W        W25716   8.085   6.096   3.907 -0.1842  0.1121  0.2045
 9908W        W25717  18.093  12.610  10.428 -0.0048  0.1218 -0.0307
 9909W        W25718  15.718  12.717  11.801 -0.4078  0.1521  0.1112
 9910W        W25719   2.779   9.114   4.626  0.1416 -0.0861 -0.0174
 9911W        W25720  18.277  15.878  15.157  0.0536  0.0118  0.1036
 9912W        W25721  12.591   0.567   2.566 -0.0688 -0.0454  0.1240
 9913W        W25722   4.186  15.164  10.522  0.0594 -0.3893  0.0428
 9914W        W25723  10.804  15.457   3.571  0.0137 -0.0489 -0.0935
 9915W        W25724   4.686   5.669   4.057 -0.1715 -0.1124  0.4721
 9916W        W25725   5.858   9.151  15.418 -0.3043  0.2263  0.0692
 9917W        W25726   3.647   3.171  11.494  0.1250 -0.2550 -0.2833
 9918W        W25727  14.017   0.187   0.358 -0.1098  0.0201 -0.0759
 9919W        W25728   5.267   7.546   1.497 -0.0144  0.1104  0.3350
 9920W        W25729  16.134  11.201  10.804  0.1446 -0.1722 -0.3808
 9921W        W25730   2.615  12.444  12.938 -0.2923  0.0819 -0.0615
 9922W        W25731   9.587   9.283   3.622 -0.0901 -0.3544  0.1242
 9923W        W25732   9.414  11.955   1.299  0.0410  0.0970 -0.3436
 9924W        W25733   6.235  14.829  12.224 -0.4468 -0.2195 -0.0384
 9925W        W25734  14.878   7.221  13.708 -0.3890  0.0228  0.3085
 9926W        W25735   8.740   2.712  10.860 -0.0050  0.3997 -0.2015
 9927W        W25736   7.555   6.749  13.533  0.2796  0.0183  0.1198
 9928W        W25737   7.140  14.171   5.109  0.0165  0.1805  0.1573
 9929W        W25738  15.960   7.481  11.836 -0.1252 -0.1303  0.0699
 9930W        W25739  11.280  14.080   2.606  0.1600  0.3971  0.0929
 9931W        W25740  13.451  12.251  10.674 -0.1197 -0.1442 -0.2489
 9932W        W25741  17.117   5.735  12.116  0.1690  0.2184 -0.0216
 9933W        W25742   6.261  14.534   4.235  0.2543 -0.3066  0.0993
 9934W        W25743   2.940   3.537   0.041 -0.0681  0.0820  0.3230
 9935W        W25744   2.328  16.615   4.637 -0.0884  0.1512 -0.0248
 9936W        W25745  12.688  13.031  13.497  0.0628  0.1649 -0.1661
 9937W        W25746   3.040  18.414  14.722 -0.1480  0.0221 -0.1880
 9938W        W25747   2.733  13.029   2.984 -0.0308 -0.2681 -0.1042
 9939W        W25748   1.000   8.192   1.356  0.0336  0.1594  0.2653
 9940W        W25749  13.945  16.072   0.936 -0.2879  0.3794  0.2078
 9941W        W25750  10.738   3.751   3.273  0.1206 -0.4605 -0.3138
 9942W        W25751   5.663  14.046   3.033 -0.0185  0.1183 -0.0495
 9943W        W25752   4.255   8.148  13.140  0.2822  0.1561 -0.1812
 9944W        W25753   7.709   5.884   0.655 -0.0914  0.1920 -0.3755
 9945W        W25754  16.092   4.728   2.573  0.1279 -0.4222 -0.0398
 9946W        W25755   5.122   0.851  12.637  0.3397  0.0503  0.1449
 9947W        W25756  15.439   2.552  15.256  0.0552  0.1832 -0.0409
 9948W        W25757  12.451  14.942   1.386  0.2836  0.2969 -0.0807
 9949W        W25758   2.732  16.869  10.907 -0.2246  0.1156 -0.0001
 9950W        W25759   9.670   6.719   4.232 -0.3214  0.0107  0.1453
 9951W        W25760   6.517  13.521   0.373 -0.1055 -0.4655  0.0105
 9952W        W25761  11.252   6.662   4.774 -0.2066 -0.4302  0.0249
 9953W        W25762  18.636   7.377  15.082  0.5129  0.3311 -0.0644
 9954W        W25763  17.113  12.086   1.634 -0.2754  0.0612  0.1438
 9955W        W25764  17.957  11.015   3.783 -0.0813  0.1970 -0.2846
 9956W        W25765  14.446   9.022   5.352 -0.1599 -0.2322 -0.1942
 9957W        W25766  14.494   5.841   5.619 -0.1623 -0.0643  0.1441
 9958W        W25767  12.028   6.979   4.100 -0.0237  0.1581 -0.0129
 9959W        W25768   0.114  16.311   2.743 -0.4713 -0.5921  0.0373
 9960W        W25769  11.528  11.995   4.929 -0.1985 -0.0710  0.2309
 9961W        W25770  15.444  15.511  11.767  0.0917  0.1733  0.4184
 9962W        W25771  16.484  13.863   5.571  0.0631  0.3037 -0.0700
 9963W        W25772  12.712   9.531   1.658 -0.1476  0.0217 -0.0919
 9964W        W25773   0.952   8.124   5.451 -0.1380 -0.2659 -0.0114
 9965W        W25774  16.189   7.242   4.735  0.1046  0.1282  0.1316
 9966W        W25775  10.584  15.690  11.654 -0.0208  0.3567  0.0787
 9967W        W25776   3.344  16.071   3.007  0.1056 -0.0112 -0.3899
 9968W        W25777   7.481   7.891   1.130  0.0099 -0.0463  0.2514
 9969W        W25778  18.234  11.634  13.266 -0.0126 -0.2582 -0.1882
 9970W        W25779  14.244  14.022   4.263  0.1963 -0.0850 -0.0133
 9971W        W25780  12.671   9.660   0.008  0.0690  0.3666 -0.3105
 9972W        W25781   8.079   4.963  14.722  0.0629 -0.0961  0.2863
 9973W        W25782  10.972  16.048   4.133  0.2393  0.1826 -0.1884
 9974W        W25783  10.964  15.166  10.051  0.1785  0.2427  0.2646
 9975W        W25784   7.836   2.745  12.915 -0.0870  0.2207  0.0023
 9976W        W25785   1.516   5.436   2.091  0.0183  0.0195 -0.1681
 9977W        W25786  12.013   6.219   3.138  0.1889  0.1225  0.0994
 9978W        W25787   5.057  14.905   3.662  0.2060 -0.0270 -0.0995
 9979W        W25788  13.767   7.406  15.476 -0.2552 -0.0771  0.1339
 9980W        W25789  15.523  14.648   0.895 -0.2820 -0.3133 -0.0480
 9981W        W25790  16.402  18.497  12.487 -0.1796 -0.1485 -0.3530
 9982W        W25791  18.370   2.105   0.412 -0.4731  0.1913 -0.1067
 9983W        W25792   0.798  13.766  12.695  0.2518 -0.0970 -0.1559
 9984W        W25793  18.004   2.254  11.056 -0.1321  0.1521 -0.1696
 9985W        W25794   8.468  13.473   5.168  0.1092 -0.1506  0.1225
 9986W        W25795   8.495   1.160  12.216  0.1861  0.2038  0.0422
 9987W        W25796   8.505  11.417   0.600  0.4075  0.2809 -0.0332
 9988W        W25797  10.291   7.977   4.537  0.0981 -0.2309 -0.1327
 9989W        W25798  18.442  14.144  12.035  0.0530  0.3623 -0.0824
 9990W        W25799  10.148   7.313   5.844 -0.0641 -0.0377 -0.2073
 9991W        W25800   9.214   5.999   1.526 -0.2497  0.1500  0.1311
 9992W        W25801   6.212   6.132   0.272  0.1367  0.0495  0.1427
 9993W        W25802   4.289   0.446  12.946 -0.0246  0.0241  0.1292
 9994W        W25803   3.367   8.141   0.927  0.0048 -0.2185 -0.1622
 9995W        W25804   3.786   0.097  10.470 -0.2486 -0.1529 -0.1124
 9996W        W25805  10.808   5.968  11.707  0.1380 -0.0654 -0.0026
 9997W        W25806   6.311   5.464   1.202  0.2911 -0.0177 -0.0318
 9998W        W25807  11.992  17.364  10.035  0.3551 -0.2485  0.1744
 9999W        W25808   5.843   7.320  12.170 -0.0384 -0.0450  0.1009
10000W        W25809   1.294  10.430   4.156  0.3053  0.0350  0.1154
10001W        W25810   8.397  16.415   0.386 -0.3109 -0.2395 -0.3132
10002W        W25811   3.041   3.997  11.568 -0.0615 -0.1542 -0.0935
10003W        W25812  12.771   9.211  13.736 -0.0587 -0.0835 -0.0500
10004W        W25813  18.668  13.858  11.045 -0.2691 -0.2437 -0.6408
10005W        W25814   8.509   4.105   2.625 -0.3410 -0.0878  0.1836
10006W        W25815   5.425   3.992  13.949  0.0021 -0.1707 -0.0410
10007W        W25816   3.875   6.841  11.935 -0.1409  0.2008  0.0287
10008W        W25817   7.749   7.670  13.021 -0.0480 -0.1865 -0.0546
10009W        W25818  18.726   1.630  11.952  0.2937 -0.1545  0.3717
10010W        W25819   7.812  16.189   5.202  0.0072  0.2661  0.2832
10011W        W25820   7.419   7.397   5.061 -0.0616 -0.2762 -0.2010
10012W        W25821  17.002  14.835   4.638  0.1064 -0.3444  0.0017
10013W        W25822  15.254  18.319   5.333 -0.0375  0.1316  0.0621
10014W        W25823   4.067   9.571  10.416  0.0047 -0.0041 -0.1778
10015W        W25824  18.745   7.735   4.146 -0.2071 -0.4298 -0.0134
10016W        W25825  14.137   3.592   2.451  0.1226 -0.1339  0.2669
10017W        W25826   6.716   2.314  11.318  0.0374 -0.2122  0.0663
10018W        W25827  18.335  10.731   4.443  0.0630 -0.1345 -0.2563
10019W        W25828   9.959   3.315  10.142 -0.1141 -0.1168  0.0224
10020W        W25829  16.172   6.426  11.772  0.3672 -0.0654 -0.0870
10021W        W25830  11.661  18.174   2.009  0.0802 -0.0434  0.0412
10022W        W25831   9.392   3.885   2.443  0.3048  0.1123  0.2382
10023W        W25832   2.848  18.211   2.597  0.1473  0.1179  0.0611
10024W        W25833   5.079   5.053  11.593  0.0336  0.0121 -0.2433
10025W        W25834  14.110   4.052  11.739 -0.2940  0.0405  0.0026
10026W        W25835  14.055   1.194  13.583 -0.0858 -0.3590  0.1488
10027W        W25836  13.238  16.132  11.973  0.1500  0.2262  0.1176
10028W        W25837  13.363  14.167   4.103 -0.0752 -0.0224  0.0629
10029W        W25838  14.016  18.754   5.610  0.2659  0.0015  0.0135
10030W        W25839  17.744   9.960  10.058  0.1091  0.1871 -0.2471
10031W        W25840  10.559   7.931  11.015  0.1805 -0.2991 -0.1467
10032W        W25841   3.540   4.213   0.369  0.4307 -0.0914  0.0442
10033W        W25842  10.140   8.623   2.186 -0.2847  0.1687  0.2997
10034W        W25843  14.111   3.967  10.103 -0.2968  0.1859  0.0567
10035W        W25844   8.351  15.157   4.665  0.0026 -0.5130 -0.0787
10036W        W25845  13.839   4.584  14.771  0.3531  0.1505  0.0422
10037W        W25846  10.775  11.917   1.798  0.1425 -0.1724 -0.1823
10038W        W25847   0.924   1.681  15.547 -0.2522  0.0217  0.2213
10039W        W25848  11.201   7.142  13.221 -0.5082 -0.2148  0.3057
10040W        W25849  13.066  14.385  12.984  0.0196  0.1112  0.0018
10041W        W25850   0.311  15.274   4.825  0.2338  0.1151  0.3036
10042W        W25851   2.310  18.705   1.838  0.0233  0.1792  0.0612
10043W        W25852  16.423  10.975  14.501  0.2685  0.4468 -0.2100
10044W        W25853  18.389  10.096  12.009  0.2840  0.1908  0.0503
10045W        W25854   2.827  13.507   1.857 -0.1207  0.0245 -0.1628
10046W        W25855  17.774  17.576  11.621  0.0544  0.0041 -0.0916
10047W        W25856   2.742  16.590   4.945 -0.0764 -0.1891 -0.2403
10048W        W25857   5.207   3.601  13.646 -0.1177 -0.0581 -0.1331
10049W        W25858  17.939   2.696  15.153  0.2270 -0.1608  0.0291
10050W        W25859  12.507   7.371   1.853  0.0245  0.0470  0.0142
10051W        W25860  15.296  16.163   2.864  0.0029 -0.1645 -0.0468
10052W        W25861   4.620  17.506  11.057 -0.1513 -0.2000  0.0590
10053W        W25862  16.123  15.132   4.015 -0.1963 -0.1264  0.1851
10054W        W25863   0.548   1.354   0.262 -0.0406  0.0281 -0.1806
10055W        W25864   2.082   6.281  14.361  0.2711  0.0779 -0.0048
10056W        W25865   1.757   8.402   2.023 -0.3276 -0.0961 -0.1161
10057W        W25866   3.696  11.204   0.964 -0.3609 -0.1029  0.2634
10058W        W25867   6.549  16.260   2.754 -0.1651  0.2277  0.1857
10059W        W25868   0.691  11.587   1.331  0.1468 -0.0352 -0.1438
10060W        W25869  15.154   4.073  14.046  0.0304 -0.2322 -0.0798
10061W        W25870   8.597  11.331  14.396  0.1724  0.0777 -0.2095
10062W        W25871  17.200   9.366  14.919  0.0977 -0.0457 -0.3773
10063W        W25872  14.555  18.380  11.145  0.0904  0.0006  0.0173
10064W        W25873  15.366  13.217   0.727  0.0390 -0.1356  0.1612
10065W        W25874   5.111   5.881  10.819 -0.3471  0.3354 -0.1481
10066W        W25875   6.328  12.904   3.008  0.0215 -0.4886  0.0660
10067W        W25876  14.975  17.610  14.993 -0.0835 -0.0451  0.0532
10068W        W25877  14.359   1.053  11.078  0.1146  0.3680 -0.1120
10069W        W25878   8.660   7.674  11.146  0.1456  0.3049 -0.1011
10070W        W25879   9.115  18.276   0.427  0.0649 -0.3428 -0.2290
10071W        W25880   9.477   3.275   2.993  0.0423 -0.1023  0.2822
10072W        W25881   8.322  15.923   2.577 -0.0084  0.0356  0.4501
10073W        W25882   9.679  15.942   4.314  0.1552 -0.2298  0.1808
10074W        W25883   0.173  15.922   5.514 -0.2426  0.1418 -0.1709
10075W        W25884   9.226   4.666  13.312  0.1144  0.1158  0.0452
10076W        W25885   9.128  17.235  11.030  0.1612 -0.1192  0.0473
10077W        W25886   7.140   8.637   2.286 -0.2248 -0.1291 -0.1395
10078W        W25887  10.765   0.351  12.289  0.1042  0.0823 -0.0619
10079W        W25888   7.224   1.812   0.696  0.2689 -0.2089 -0.3018
10080W        W25889  16.166  11.507   0.841  0.3685 -0.0103  0.1199
10081W        W25890  11.389  12.703  11.095  0.2627 -0.2658  0.0390
10082W        W25891  15.485   4.049  10.018 -0.0389  0.1637 -0.4986
10083W        W25892   8.088  11.060   4.433  0.2418 -0.4568 -0.2191
10084W        W25893  10.018  17.951  14.449 -0.2425  0.0997 -0.2378
10085W        W25894  14.254   1.622   2.255 -0.3655  0.0580  0.1015
10086W        W25895   2.783   4.213   3.648 -0.0079  0.1498 -0.0608
10087W        W25896   7.845  18.619  14.615 -0.2898  0.1081  0.3666
10088W        W25897   2.082   0.118  10.647  0.2134  0.0902 -0.1827
10089W        W25898   6.459  14.538  12.554 -0.0015  0.0295 -0.0977
10090W        W25899   8.424  12.408  10.734  0.2682  0.0637  0.1453
10091W        W25900   0.066   8.901   3.758  0.1718 -0.1752  0.2881
10092W        W25901   8.482  13.914  14.160  0.0194 -0.1425  0.3473
10093W        W25902  12.157   0.902  12.466  0.0481  0.0829  0.0418
10094W        W25903   8.789  16.597   2.466 -0.1912  0.0364  0.3310
10095W        W25904  15.016  13.388  15.204 -0.0774 -0.2169 -0.3335
10096W        W25905  13.627  10.649   4.071 -0.0121 -0.2641 -0.1726
10097W        W25906   1.650  16.164   3.060  0.0520  0.1561 -0.2204
10098W        W25907  16.579   5.745  14.813  0.0342 -0.0968 -0.1768
10099W        W25908   0.893  15.058  14.556  0.2506  0.3067  0.1939
10100W        W25909  13.883   2.993  14.197 -0.0906 -0.1405  0.0812
10101W        W25910   9.297  11.202   1.065  0.0072 -0.1045  0.0517
10102W        W25911  14.741   1.889   3.720  0.3189  0.0758 -0.0543
10103W        W25912   6.287   9.017  10.476  0.0496 -0.2442  0.1304
10104W        W25913  13.345   6.476  13.821 -0.0602  0.3481  0.1444
10105W        W25914   6.547   1.371  13.944 -0.3667  0.0086  0.1385
10106W        W25915  12.025  16.355  11.183 -0.0591  0.1590  0.0820
10107W        W25916   4.017  14.402  15.404  0.0105  0.1314  0.3034
10108W        W25917  18.659  15.394  14.404 -0.3359  0.0391  0.0665
10109W        W25918   0.602   0.724   1.422  0.3487 -0.1833  0.2852
10110W        W25919  11.681   6.573   2.883 -0.0274  0.4158  0.0752
10111W        W25920   1.872  12.843  14.827 -0.2769 -0.2591  0.0262
10112W        W25921  17.310   2.414  13.004  0.0451  0.0082 -0.0652
10113W        W25922   7.696  12.650   0.601 -0.0553 -0.0367  0.0302
10114W        W25923  11.298   9.262  14.055 -0.1294  0.0755  0.0849
10115W        W25924  12.030  18.504   0.826  0.0145 -0.2016 -0.1376
10116W        W25925  12.312  11.159   0.896 -0.3211  0.2059  0.0196
10117W        W25926  11.286   4.486  13.001 -0.0741 -0.1598  0.4159
10118W        W25927   4.124  13.143   0.970  0.0369 -0.0533 -0.2196
10119W        W25928  13.537  10.987   3.373  0.0384 -0.0248 -0.1460
10120W        W25929   5.958   8.001   1.027 -0.1079 -0.1723  0.0536
10121W        W25930  12.192  10.436   1.466  0.1706 -0.2746 -0.4454
10122W        W25931   5.885   9.416   1.269 -0.0092 -0.0861 -0.1188
10123W        W25932   7.908  12.088  11.301  0.0878  0.2457  0.0886
10124W        W25933   2.987  13.947   4.676  0.2823  0.2953 -0.0940
10125W        W25934  14.176   0.581   1.868 -0.2667  0.0075  0.1989
10126W        W25935  12.168  16.706   2.796  0.3323 -0.1820 -0.1571
10127W        W25936  15.579   1.919   1.653  0.0680 -0.0765  0.0314
10128W        W25937   8.073  12.181   0.530 -0.2157  0.2135  0.2917
10129W        W25938   4.945  11.207  15.015  0.1892  0.1188  0.1477
10130W        W25939   9.784   5.687  14.817  0.0391  0.1374  0.0978
10131W        W25940   4.116  12.596  13.171  0.1017 -0.1966  0.1425
10132W        W25941   4.420  17.695   1.728 -0.1375  0.3749  0.2422
10133W        W25942  17.934  13.589  14.895  0.0781  0.2561  0.0348
10134W        W25943   5.661   8.695  15.394  0.0164 -0.4062  0.3406
10135W        W25944   5.106  11.117  13.523 -0.0995  0.1243 -0.3478
10136W        W25945  14.467   0.823   3.512 -0.0770 -0.2116  0.0036
10137W        W25946  15.141   2.644  14.773 -0.0556  0.1739  0.2503
10138W        W25947  15.267  11.442  14.630 -0.1707 -0.2410  0.1576
10139W        W25948  11.708  15.062  11.627 -0.2101  0.0902 -0.3701
10140W        W25949  14.584   8.343  12.821  0.5020  0.2144  0.0265
10141W        W25950   7.240   7.120  12.542 -0.0403 -0.1376  0.2675
10142W        W25951  12.216   7.898   4.039 -0.0846 -0.0721 -0.0335
10143W        W25952   2.609   8.705  11.860  0.0140  0.0904 -0.0643
10144W        W25953  13.550   9.685   3.666  0.0684  0.2204 -0.0225
10145W        W25954   1.557   5.186  11.791  0.3450 -0.0094 -0.0536
10146W        W25955   7.244  14.061  10.578  0.1003  0.0135  0.1199
10147W        W25956  17.691  14.962  15.282  0.1176 -0.2018 -0.0131
10148W        W25957   9.967  17.755  10.865 -0.1829  0.0339  0.0970
10149W        W25958  13.974  14.914  14.058 -0.0181  0.1285 -0.1511
10150W        W25959   6.369  15.060  12.939  0.2231  0.6192  0.0121
10151W        W25960   0.561  17.897  13.449 -0.0100 -0.1983 -0.1295
10152W        W25961  18.127  18.209  14.705  0.2963  0.3066 -0.1602
10153W        W25962   5.468   8.933  14.315  0.1240  0.1256  0.1447
10154W        W25963  10.713   5.444  14.502 -0.1484  0.2920  0.2268
10155W        W25964  16.536   2.659   1.782 -0.3216 -0.2380  0.1763
10156W        W25965  15.109   3.577  14.871 -0.0428  0.1605 -0.0264
10157W        W25966   2.177   7.352   2.751 -0.0576 -0.0409 -0.1183
10158W        W25967   9.204   5.109   2.555  0.0179 -0.1060 -0.1100
10159W        W25968   4.089   5.550  11.105 -0.0581  0.1548  0.0969
10160W        W25969   3.266   9.147  11.239  0.1070  0.1526 -0.0009
10161W        W25970  18.615   8.764   4.937 -0.2447  0.0555 -0.1485
10162W        W25971   6.218   9.004   2.293  0.3028 -0.2576 -0.2611
10163W        W25972   6.106   6.378  12.318 -0.0458  0.1691  0.0415
10164W        W25973   1.610   5.644   5.577 -0.3322 -0.1121 -0.1525
10165W        W25974  12.313  16.258   3.531  0.2094  0.2681 -0.1800
10166W        W25975   8.879   5.873  12.498 -0.1565 -0.1341  0.0499
10167W        W25976   5.822   4.565  11.845 -0.1745 -0.1853 -0.3914
10168W        W25977   7.754  18.631   2.521 -0.1024 -0.2236  0.0651
10169W        W25978   3.817   8.448  13.096  0.2613  0.0320  0.3575
10170W        W25979   1.167  15.128   9.883  0.0008  0.1222  0.0102
10171W        W25980  15.273   4.815   3.134  0.2089 -0.1251 -0.0439
10172W        W25981  14.374  16.555   2.003 -0.0134 -0.2017  0.0579
10173W        W25982   8.258   7.993  15.364  0.1757 -0.0044 -0.1195
10174W        W25983   5.160  16.243   9.920 -0.2999 -0.1069  0.0726
10175W        W25984  11.570   2.957  15.295  0.0486  0.1569  0.1724
10176W        W25985  10.426  10.645   4.645  0.2435  0.0622  0.0703
10177W        W25986  14.089   3.162  11.773  0.4000  0.1419  0.0822
10178W        W25987   0.555   5.709   1.913  0.0263  0.2563 -0.2104
10179W        W25988   3.071   7.494   2.609  0.1947  0.4092  0.0873
10180W        W25989   9.506  12.470  12.419  0.3416  0.3426  0.0375
10181W        W25990  12.481  13.767   3.211  0.1749 -0.1480  0.0128
10182W        W25991   1.605  13.349  12.995  0.0333  0.0697  0.2389
10183W        W25992   7.084   2.116   1.195 -0.1536  0.1853  0.2228
10184W        W25993  11.620   1.293   2.005  0.4119 -0.2016 -0.2527
10185W        W25994  12.349   5.238   4.029 -0.1675  0.1530  0.0366
10186W        W25995  18.175   7.681  10.606  0.4884 -0.0909 -0.1429
10187W        W25996   3.252   9.807  12.349  0.0453 -0.1157 -0.0678
10188W        W25997   6.005   1.330   3.457  0.3673 -0.1196 -0.2041
10189W        W25998   8.115  13.681  13.893  0.2609  0.0099 -0.0522
10190W        W25999  13.120   2.472   4.233 -0.0911 -0.1062 -0.0482
10191W        W26000  10.995   6.287  13.367 -0.1266 -0.0939  0.0936
10192W        W26001  13.600   5.016   9.836  0.0236 -0.4892 -0.0020
10193W        W26002   0.260   5.357   1.002 -0.0423  0.1382  0.2910
10194W        W26003   2.039  15.451  10.722  0.0031 -0.2377 -0.1959
10195W        W26004  13.592   8.025  11.420 -0.0960 -0.1970  0.0326
10196W        W26005   1.029   1.166   5.143  0.0102 -0.0688 -0.1372
10197W        W26006   2.897   4.463  11.478  0.1751 -0.0354  0.4776
10198W        W26007   0.980  14.181   2.531  0.2127 -0.0011  0.0533
10199W        W26008  13.325  11.713   2.942 -0.1786 -0.0741 -0.0953
10200W        W26009  13.843  15.734   2.198 -0.0123 -0.0764  0.0246
10201W        W26010  16.297  15.274   3.514  0.2911 -0.1107  0.2562
10202W        W26011  10.214   2.614   2.481 -0.1154  0.1119 -0.0964
10203W        W26012   5.564  15.787   4.213  0.0033  0.2014 -0.2696
10204W        W26013   5.937  17.588   1.127  0.2338  0.1612  0.4709
10205W        W26014  13.775   2.080   5.664 -0.2950  0.0923 -0.1782
10206W        W26015   1.106  18.255   1.831 -0.0347 -0.0847 -0.1306
10207W        W26016   4.982  13.641   4.369  0.2283  0.1985  0.1692
10208W        W26017   3.899   3.681   4.256  0.0275  0.2394  0.1117
10209W        W26018   1.866  11.504  12.276  0.1285  0.2434  0.1238
10210W        W26019  17.840   1.381  12.049 -0.1239 -0.0918  0.0842
10211W        W26020   9.381  13.788  15.004 -0.0586 -0.2200 -0.1314
10212W        W26021   1.878  15.182   1.621  0.0672  0.0245 -0.0993
10213W        W26022   3.896  16.711  13.415 -0.0561 -0.1973 -0.1539
10214W        W26023  10.979   6.883   2.723 -0.1232  0.1379  0.5659
10215W        W26024  17.042  18.249   3.017  0.1949  0.1235  0.1463
10216W        W26025   6.036  18.214  13.279 -0.4319  0.1942  0.0536
10217W        W26026  16.711   8.275  14.070  0.0594  0.0406  0.0353
10218W        W26027  13.489  12.448   2.315  0.1740  0.0897  0.0437
10219W        W26028   0.384   3.840  12.995  0.2405 -0.3190  0.2603
10220W        W26029   3.441  16.493   5.321  0.0166 -0.0241  0.0365
10221W        W26030   8.104   3.363   5.443 -0.4661  0.1059 -0.0650
10222W        W26031  17.497   8.510  15.405 -0.0504 -0.1439 -0.1384
10223W        W26032   1.320  13.799  12.726  0.2403  0.2579  0.1633
10224W        W26033   2.480   7.321  14.586  0.0624  0.2226  0.1723
10225W        W26034  15.537  12.807  11.159  0.1336  0.1174 -0.0003
10226W        W26035  11.929   4.652   0.929 -0.0355 -0.1527 -0.0731
10227W        W26036  11.877  15.458   4.682  0.2137 -0.1124  0.2328
10228W        W26037  18.440   4.514   0.925 -0.0865  0.0523  0.0208
10229W        W26038   3.948   8.865   1.060  0.2350 -0.1381 -0.2429
10230W        W26039   6.395  17.832   0.394 -0.0641  0.0833 -0.0806
10231W        W26040  10.426   8.418  14.840 -0.0552 -0.3759  0.1175
10232W        W26041  13.197  14.789  15.300 -0.3134 -0.1613  0.0126
10233W        W26042   5.756  13.984   0.925 -0.0041 -0.0813  0.1668
10234W        W26043   4.716   7.186  13.616 -0.2236 -0.1326  0.0897
10235W        W26044   7.578   1.529   0.493  0.0046  0.2058  0.1862
10236W        W26045   0.346  14.666   0.647 -0.3656  0.1570  0.1548
10237W        W26046   8.986   6.082   3.668 -0.1844  0.0860  0.0532
10238W        W26047   6.477   4.381   3.710  0.1101  0.0444  0.3061
10239W        W26048   9.973  15.149   3.152  0.0131 -0.1713  0.0121
10240W        W26049  17.098   0.050  13.642 -0.2621  0.2191 -0.0198
10241W        W26050   6.944  18.709   5.020 -0.2914 -0.1144  0.0780
10242W        W26051  14.639  12.540  10.170 -0.0946 -0.0327 -0.0235
10243W        W26052   4.393  13.433  15.346  0.0328 -0.1091  0.0945
10244W        W26053   6.310   7.780  14.333 -0.3706  0.0238  0.2165
10245W        W26054  15.918   3.147   4.763 -0.0059 -0.1127  0.0600
10246W        W26055   6.496   1.274   3.056  0.1138 -0.1191 -0.3085
10247W        W26056   8.673  15.493  13.810  0.3511 -0.2248  0.0651
10248W        W26057   9.680   7.484  11.189 -0.0388  0.0995 -0.1032
10249W        W26058  10.767   4.005  11.876 -0.1852  0.1929 -0.0187
10250W        W26059   4.722   6.478   4.635 -0.1394 -0.0630 -0.0506
10251W        W26060   6.835   8.647   0.311 -0.1073 -0.1614 -0.2968
10252W        W26061   5.416   6.542   5.467 -0.0598  0.0207 -0.2573
10253W        W26062   6.574   0.817  12.100  0.3213  0.4802 -0.1418
10254W        W26063  15.453  15.382  11.238  0.1517 -0.0557  0.1006
10255W        W26064  11.898  18.738  15.370 -0.0019 -0.1440  0.0409
10256W        W26065  12.088  12.446   0.674 -0.3040 -0.1783  0.1867
10257W        W26066  10.809  17.566  15.243  0.2507  0.0533 -0.3231
10258W        W26067   2.110   9.897  14.416  0.0417 -0.1533 -0.0049
10259W        W26068   8.926   2.786  13.146 -0.4466 -0.0490  0.0549
10260W        W26069   3.983  17.507  12.512 -0.1408 -0.0962 -0.1975
10261W        W26070  12.157   2.189   4.665  0.4842 -0.1635  0.0311
10262W        W26071  13.151   1.072   1.069 -0.0520  0.4682  0.1800
10263W        W26072  10.347  10.606  12.977  0.0159  0.1048 -0.2756
10264W        W26073  10.321   4.351   5.198 -0.0521 -0.0862  0.0076
10265W        W26074   4.554   8.134   0.343 -0.0530 -0.2049 -0.1425
10266W        W26075   0.192  13.781  14.075  0.0284 -0.2119  0.0204
10267W        W26076   2.800  16.693   1.281 -0.1590  0.0197 -0.2081
10268W        W26077   6.924  14.889   2.534  0.0266  0.0572  0.2243
10269W        W26078   4.816   3.638  12.494  0.1314 -0.0921  0.0859
10270W        W26079   8.030   2.904   0.081  0.0666  0.2105 -0.2321
10271W        W26080  10.647  10.215  12.723  0.0762 -0.0350 -0.3936
10272W        W26081  12.276  15.280   3.066  0.1514  0.1122  0.4032
10273W        W26082  16.725   2.690  11.346  0.2505 -0.2213  0.0251
10274W        W26083   4.054  16.271  13.621 -0.0546 -0.1640  0.1129
10275W        W26084   8.786  13.825   0.556 -0.3425  0.1913 -0.0937
10276W        W26085  11.313   7.483   2.061  0.2045 -0.0993 -0.2667
10277W        W26086   0.645   5.081   0.761  0.0750  0.1407 -0.0977
10278W        W26087  14.997  12.227  11.246  0.1006  0.1826 -0.0249
10279W        W26088  12.191   3.339  14.956  0.1602 -0.1973 -0.2247
10280W        W26089   6.813   8.635   4.143  0.0581 -0.3447 -0.0635
10281W        W26090  12.693   7.004  14.903 -0.0317  0.2120  0.0339
10282W        W26091  11.473   0.068  11.350  0.1351 -0.3474  0.0223
10283W        W26092  13.649  13.267   0.693 -0.2122 -0.1127 -0.0849
10284W        W26093  15.646   7.717   3.164 -0.2372  0.2129 -0.2380
10285W        W26094  12.954   4.905  12.619 -0.0796  0.1649  0.2937
10286W        W26095   5.217  16.400   4.718  0.0500 -0.1008  0.0024
10287W        W26096  13.457  16.462   5.669 -0.1754  0.0791  0.3098
10288W        W26097   5.044  14.534  12.923 -0.1991  0.0253 -0.0930
10289W        W26098  10.972   4.825   1.917  0.0316  0.3358 -0.1037
10290W        W26099   3.021  12.155  12.057  0.0356 -0.3027 -0.1335
10291W        W26100  16.800  17.411   5.185 -0.0677 -0.3055 -0.0684
10292W        W26101  17.660  14.594   3.759  0.2476 -0.1874  0.2527
10293W        W26102   3.931  10.927  15.123  0.3156 -0.0744  0.0930
10294W        W26103  10.963   4.342   4.478 -0.1580  0.2006  0.3661
10295W        W26104   9.864   5.130   3.168  0.3559  0.2733  0.0637
10296W        W26105  13.628  10.878  13.113  0.1972 -0.0677 -0.1257
10297W        W26106   2.902   9.525  11.044  0.0281  0.2035 -0.2182
10298W        W26107   6.421  14.631   3.216 -0.1941 -0.2017 -0.0193
10299W        W26108  11.005  12.618   4.575  0.2125  0.0306 -0.4033
10300W        W26109   0.307  12.168  12.773  0.1008 -0.1415  0.5411
10301W        W26110  13.874   0.353  12.143  0.0250  0.0106 -0.0507
10302W        W26111  11.118  18.631  14.887 -0.1667 -0.0119  0.1702
10303W        W26112  14.136   5.457   2.561 -0.1630 -0.2060  0.1453
10304W        W26113   3.783  15.586   2.509 -0.2362  0.3132 -0.1122
10305W        W26114   0.740   1.183   3.881  0.2658 -0.0692  0.1137
10306W        W26115  12.932   8.817  12.357 -0.1089 -0.0080  0.1744
10307W        W26116  12.162   1.349   2.866  0.0496  0.1457 -0.0319
10308W        W26117  11.558   9.176  10.166  0.0111  0.3171 -0.2444
10309W        W26118  17.442  17.222   2.261 -0.0239 -0.0241  0.1414
10310W        W26119  16.747   3.500  11.668 -0.0279  0.2435 -0.2769
10311W        W26120  16.883   0.757   5.279  0.1476 -0.1987 -0.2835
10312W        W26121   6.960  11.875   1.303 -0.1194  0.1813  0.2522
10313W        W26122   5.064   1.373  10.440  0.0335 -0.0134 -0.2916
10314W        W26123   6.943  14.595  14.015 -0.0465 -0.2226  0.2683
10315W        W26124   0.952   5.126   0.280 -0.1425 -0.2222 -0.4163
10316W        W26125   9.425  13.329   3.862 -0.0644  0.1065  0.0921
10317W        W26126  18.069  17.061   2.677 -0.0910 -0.0664 -0.2569
10318W        W26127  15.703  12.425   1.443 -0.0745 -0.4151  0.1922
10319W        W26128   2.624  12.216  14.684 -0.1890  0.1096  0.2350
10320W        W26129  14.695  10.666  15.504 -0.0193  0.1765 -0.0299
10321W        W26130   0.535  16.947   2.269 -0.4832 -0.1510 -0.3141
10322W        W26131   5.880   8.467  12.718  0.0724 -0.0408 -0.0864
10323W        W26132   1.991   4.410  14.118  0.2744  0.3686  0.1305
10324W        W26133   8.769  14.398   2.469 -0.4187 -0.2609  0.0420
10325W        W26134   9.594   7.514   4.834  0.0258 -0.2062  0.0617
10326W        W26135   4.307   2.394   2.394  0.3728 -0.2705  0.2868
10327W        W26136  11.900   7.834  14.023 -0.1215 -0.0991  0.3184
10328W        W26137  13.736  14.665  15.468  0.2396  0.0080  0.3871
10329W        W26138   3.002   0.709  11.537 -0.1290  0.3274 -0.3454
10330W        W26139   0.953  15.149  12.711  0.1671  0.0658 -0.1086
10331W        W26140  18.724   9.202  10.617 -0.0722 -0.0699 -0.0183
10332W        W26141   1.910  10.303  10.773 -0.0992 -0.1505  0.1393
10333W        W26142   0.799   1.615  11.664  0.1142 -0.1145 -0.2847
10334W        W26143  15.839   7.541   5.715  0.0266  0.1869  0.1167
10335W        W26144   8.193  10.525   2.766 -0.1861  0.0909 -0.4133
10336W        W26145  16.573  17.472  14.070  0.2147 -0.1088  0.1025
10337W        W26146  14.845   4.375   3.330  0.1302  0.0202  0.0902
10338W        W26147   7.776  18.483  10.188 -0.0393  0.3088  0.1721
10339W        W26148  13.463  13.992  13.118 -0.2064  0.0943  0.1364
10340W        W26149  16.978   5.394  12.551  0.0669 -0.0663  0.2410
10341W        W26150   0.312   0.850  13.620  0.0251  0.0855  0.1328
10342W        W26151  12.428   2.603   4.631 -0.1740  0.1339 -0.1798
10343W        W26152  14.078  11.951  14.857  0.0794  0.0550  0.4707
10344W        W26153   2.343   3.395   2.976  0.0189 -0.5588  0.0324
10345W        W26154   4.823  17.636  12.733 -0.3138 -0.1233 -0.0119
10346W        W26155  13.794   9.721  10.963 -0.4089 -0.2710  0.0298
10347W        W26156   4.867  16.979  11.806  0.2395  0.0548  0.0807
10348W        W26157   3.419  12.475  11.967  0.3031  0.1134  0.1136
10349W        W26158   9.479  13.199   6.005  0.0430 -0.1892 -0.0927
10350W        W26159   5.907  16.211   0.027 -0.1529  0.0197 -0.0502
10351W        W26160   0.803  14.458  14.052 -0.1933  0.0324  0.1414
10352W        W26161  15.651   5.144   2.516 -0.0841  0.0407  0.0325
10353W        W26162   5.119  10.788  15.428  0.0134 -0.3806  0.3110
10354W        W26163  15.161  17.354  11.439  0.0614  0.0154 -0.2024
10355W        W26164  16.271  18.739   0.617 -0.0545  0.1385  0.0651
10356W        W26165  18.471   0.277   2.706 -0.1087  0.2687 -0.0902
10357W        W26166   1.964  17.243   2.379 -0.5042 -0.1662 -0.0360
10358W        W26167   9.598   4.602  14.439 -0.0545 -0.0975  0.1897
10359W        W26168   9.301  15.457   2.302 -0.4989 -0.2484  0.2001
10360W        W26169   4.549   5.851  12.792 -0.3680 -0.2349 -0.1602
10361W        W26170   2.752   3.091  15.316 -0.0100 -0.2063  0.0737
10362W        W26171  16.957  17.796   1.043  0.3103 -0.0026 -0.3901
10363W        W26172  16.619   1.607  13.817 -0.4420  0.0420 -0.0380
10364W        W26173   4.394   7.538   4.449 -0.0576  0.1475  0.3689
10365W        W26174  16.915  16.745   3.553 -0.1223 -0.1336  0.3758
10366W        W26175   1.394  12.326   2.312  0.0391 -0.3060  0.1483
10367W        W26176   7.168   8.557  13.894 -0.0905  0.3114 -0.0179
10368W        W26177  11.620   2.349  12.996  0.2542 -0.0501  0.0531
10369W        W26178   7.490   0.955  10.690  0.3464 -0.1433 -0.3308
10370W        W26179   4.434  14.612   0.733  0.0538 -0.0118 -0.1241
10371W        W26180  16.817  12.125   0.637 -0.4507  0.1300 -0.0970
10372W        W26181   7.664  10.447   0.041 -0.2045 -0.2372  0.3779
10373W        W26182  14.659  14.852   1.544  0.0862  0.2929  0.3645
10374W        W26183   0.509  14.212   0.898  0.0079  0.3184  0.1934
10375W        W26184   6.985  18.681   4.150  0.1925  0.0045 -0.2457
10376W        W26185   3.740  15.759  10.832 -0.0947  0.0141 -0.0597
10377W        W26186   5.147  15.225  15.051 -0.1867 -0.4069  0.0778
10378W        W26187   9.286  15.590  11.057  0.2508 -0.1331 -0.2548
10379W        W26188  13.762  12.532   3.715  0.1554  0.1032 -0.1380
10380W        W26189  11.944  12.805   4.711  0.0860  0.0366 -0.1637
10381W        W26190  16.495   4.765  13.123 -0.0090  0.0493 -0.1142
10382W        W26191  17.970  10.809  12.705  0.1206  0.2127 -0.1963
10383W        W26192  13.105   6.095   5.113 -0.2836 -0.1049  0.0334
10384W        W26193   5.429   5.448  15.370  0.0075 -0.2679 -0.0798
10385W        W26194   3.506  12.555   0.680 -0.1562  0.0638 -0.1818
10386W        W26195  14.014   2.504   2.562  0.1185  0.0403 -0.3050
10387W        W26196   3.025   6.606   3.506 -0.0229 -0.4112 -0.1686
10388W        W26197   3.520  16.166  13.640 -0.3830 -0.1392  0.1910
10389W        W26198   3.176  10.983   9.941 -0.0802 -0.0222  0.2501
10390W        W26199   2.252  18.318  13.706  0.0513 -0.0512  0.3372
10391W        W26200  13.859   8.600   1.632 -0.0351  0.0447  0.2293
10392W        W26201   2.582   6.803   4.682  0.0636 -0.2195 -0.0810
10393W        W26202  10.191   8.399   5.016 -0.2443  0.1133  0.0368
10394W        W26203   3.035   3.549   4.116 -0.1360  0.0611  0.1049
10395W        W26204   0.844  16.736   0.950 -0.0940  0.1109 -0.0618
10396W        W26205  18.771   0.406   1.850  0.2234 -0.0974  0.0882
10397W        W26206   8.875  13.449   4.383  0.2382  0.3270 -0.0286
10398W        W26207   4.190   8.934   5.305 -0.1382 -0.0369 -0.1321
10399W        W26208  16.307  13.813  12.634 -0.1591  0.3940  0.0447
10400W        W26209   5.050   4.511  12.339 -0.1179  0.1042 -0.2086
10401W        W26210   2.343  11.213  11.384  0.0374 -0.2361 -0.0094
10402W        W26211   7.929  10.816   0.926 -0.1105 -0.0110  0.1386
10403W        W26212   6.837  16.310   1.592 -0.0416 -0.2303 -0.1424
10404W        W26213   1.147   7.670  12.165  0.1322 -0.2573  0.1142
10405W        W26214   4.253   1.055  10.739 -0.0635  0.1124 -0.1714
10406W        W26215   8.542  15.680   4.119 -0.1328 -0.0596  0.3179
10407W        W26216  17.598  15.003   3.485  0.1694 -0.0968 -0.2182
10408W        W26217  11.234   9.308   5.154  0.1094 -0.1274  0.0204
10409W        W26218  16.187  14.896   5.678 -0.1656 -0.2209  0.0016
10410W        W26219   3.744   1.576  12.792  0.0824 -0.3277 -0.0964
10411W        W26220   8.927   9.636  13.604 -0.0706 -0.0772  0.0563
10412W        W26221  11.062   2.861  15.388  0.0455 -0.0644  0.3519
10413W        W26222  17.526   0.900   5.879  0.0966 -0.1283 -0.1842
10414W        W26223  13.019  18.504   4.815 -0.1328 -0.3144 -0.2998
10415W        W26224   4.044  18.528   2.082 -0.2548  0.2075 -0.0457
10416W        W26225  10.359  15.337   3.826  0.5232  0.2862 -0.4114
10417W        W26226   4.597  10.395   1.644 -0.2494  0.2239  0.0510
10418W        W26227   7.334   0.510   4.105  0.1938  0.0088 -0.0955
10419W        W26228  13.331   5.228   2.892  0.1824  0.1493  0.0320
10420W        W26229   0.156   0.714   4.780  0.2518 -0.2992 -0.2083
10421W        W26230   0.849   4.403   0.134 -0.3137 -0.1834  0.0368
10422W        W26231  13.236  13.675   4.238 -0.0547  0.3669  0.4228
10423W        W26232   8.516   4.805   2.131  0.2141 -0.1641  0.3398
10424W        W26233   7.998   7.543   4.278  0.0518  0.1776 -0.0067
10425W        W26234  13.321   7.919  12.477  0.1261  0.2560  0.0690
10426W        W26235   7.884   0.460   2.650  0.1997 -0.0954  0.2344
10427W        W26236  12.057  10.112  13.266  0.0360  0.1566 -0.1110
10428W        W26237  14.041   2.315   3.088  0.0549  0.0997  0.0359
10429W        W26238  12.293   9.207   4.887 -0.1242 -0.2782 -0.0484
10430W        W26239  16.875  13.639   0.091  0.1894 -0.0806 -0.0275
10431W        W26240   0.186  12.458  12.297  0.0409  0.3069 -0.2662
10432W        W26241  12.578  11.419  14.502 -0.1567 -0.1032 -0.2534
10433W        W26242  11.242  12.325  13.431  0.2189 -0.2179 -0.1568
10434W        W26243  12.519  18.397  13.027 -0.2607 -0.1844  0.1868
10435W        W26244  10.323  10.228  12.017  0.0250 -0.3303 -0.0565
10436W        W26245   5.019  14.673  11.612 -0.3266  0.0350  0.1411
10437W        W26246   1.141   2.759   2.208  0.0989 -0.0165 -0.0124
10438W        W26247  18.238   9.426  11.265 -0.1245 -0.0826  0.1317
10439W        W26248  12.911  16.872   2.184 -0.1153 -0.1414 -0.2433
10440W        W26249  12.950   9.635  13.376  0.3067 -0.3238  0.3485
10441W        W26250   3.228   7.049  10.765 -0.2187  0.2988  0.0561
10442W        W26251  17.172  15.449   1.713  0.0563  0.1096  0.0913
10443W        W26252  15.832  13.273   4.520  0.1534  0.1734  0.1502
10444W        W26253   1.528   0.959  14.262 -0.4056 -0.0732  0.1460
10445W        W26254   0.404  11.032  13.476  0.0241  0.0580  0.0204
10446W        W26255   6.619   3.453   1.820 -0.0197 -0.0864 -0.2508
10447W        W26256   7.402   5.096  10.611  0.2401  0.0490 -0.3257
10448W        W26257  16.772   0.393  13.723 -0.1520 -0.1286 -0.0214
10449W        W26258   1.137   4.091  11.969 -0.0091  0.4271 -0.2851
10450W        W26259  13.251  13.361   3.268 -0.0423  0.3339  0.2675
10451W        W26260   0.891   3.979   3.617  0.2900  0.2575 -0.0937
10452W        W26261  13.278   9.785  12.242 -0.1880 -0.1417  0.3146
10453W        W26262   5.545   5.189  11.879  0.0956  0.7392  0.1196
10454W        W26263  10.753   3.331   0.841 -0.1946  0.2904  0.0364
10455W        W26264  10.298   2.152   5.128  0.2460 -0.2349 -0.0273
10456W        W26265  16.753  12.666   1.047  0.0728 -0.1526  0.1656
10457W        W26266   8.910  16.881   3.853 -0.0561 -0.1223  0.0445
10458W        W26267   5.548   5.304  14.009 -0.0030  0.0203  0.1335
10459W        W26268  16.504   0.727  14.992  0.0576  0.0977 -0.0764
10460W        W26269   8.859   5.649   5.797 -0.1325  0.1964 -0.3085
10461W        W26270   8.573  15.572  14.541  0.0233 -0.0008 -0.2831
10462W        W26271  15.902   8.179   1.045 -0.2410  0.1694  0.0165
10463W        W26272   6.054   7.241  11.233 -0.0907 -0.1948 -0.1465
10464W        W26273   8.621  10.534  11.795 -0.2482  0.0987 -0.0387
10465W        W26274  12.017  16.721  10.308 -0.1370  0.0150 -0.1703
10466W        W26275  16.813   2.191  10.568 -0.0101  0.1088 -0.3907
10467W        W26276   9.127   3.012  13.659 -0.2465 -0.0543  0.0541
10468W        W26277   7.084   5.447   5.266  0.0386 -0.0887  0.2506
10469W        W26278  11.057  10.315  12.384  0.1071 -0.0092 -0.2064
10470W        W26279  11.058   9.724   4.901 -0.2769 -0.1650 -0.0745
10471W        W26280   3.604   9.569   5.836  0.0961 -0.0427 -0.4403
10472W        W26281  17.944  10.185  13.780 -0.2143  0.2829  0.1704
10473W        W26282   6.645  14.189   2.480 -0.1070  0.0519  0.0674
10474W        W26283   8.205  14.385   4.920 -0.1954 -0.1617 -0.0270
10475W        W26284   0.789  14.876   0.749 -0.2016  0.2794  0.3363
10476W        W26285  16.932  18.313  13.568  0.1373 -0.0695  0.1119
10477W        W26286   6.674   4.371  13.059  0.2248 -0.1322  0.0267
10478W        W26287   9.047  11.959   0.212  0.0256 -0.1725  0.2519
10479W        W26288  13.915   7.530   2.132  0.1225 -0.2331 -0.0079
10480W        W26289  12.651   8.694   3.467 -0.0652  0.1371  0.1173
10481W        W26290   2.430   7.102  12.049  0.0366  0.3806  0.0936
10482W        W26291   7.855  17.735  15.259 -0.0422 -0.1089 -0.0784
10483W        W26292  17.051  16.606   0.001 -0.0476 -0.0595  0.1508
10484W        W26293   0.596   5.136   5.038 -0.0223  0.3306  0.0941
10485W        W26294  14.340   1.879   0.166 -0.0555 -0.1358  0.2963
10486W        W26295  17.870   6.498   5.800  0.2694  0.0492 -0.1414
10487W        W26296  13.185  13.279   0.495  0.0047  0.1274  0.3413
10488W        W26297   5.656   3.500   2.663  0.2041  0.1337  0.1054
10489W        W26298   0.082   0.180   0.583  0.0350  0.2028  0.1811
10490W        W26299  12.974   3.663   5.210  0.1140 -0.0774 -0.0416
10491W        W26300   4.605  14.318  11.529  0.0249  0.0973  0.2617
10492W        W26301  14.390  10.396   1.569  0.2006 -0.0465  0.0870
10493W        W26302   6.144  10.558   3.082  0.0677  0.2882 -0.2103
10494W        W26303   8.595  15.498   3.435 -0.0374 -0.0712 -0.0577
10495W        W26304  17.728  13.806  12.527 -0.0607  0.0605  0.2229
10496W        W26305   6.211   4.101   3.364 -0.0092 -0.0851 -0.1213
10497W        W26306  14.713   9.626  14.895 -0.3208 -0.0449  0.0821
10498W        W26307  16.669   9.354   5.051  0.0557  0.1164  0.1740
10499W        W26308   3.681  13.195   0.860  0.3200  0.1180 -0.0283
10500W        W26309  15.376  11.180  13.391 -0.2109  0.1332 -0.1059
10501W        W26310  14.317  11.788   1.396 -0.1524 -0.0520 -0.0067
10502W        W26311   1.686   2.146   1.032 -0.0771  0.0257  0.0092
10503W        W26312   1.707   7.418   2.560 -0.0890  0.4029  0.0417
10504W        W26313  10.286  15.895  15.362  0.3773 -0.1449 -0.0060
10505W        W26314   9.498   4.768  15.223  0.2919 -0.2657  0.0473
10506W        W26315   5.398  13.362   4.169 -0.1712  0.0559  0.1659
10507W        W26316  17.160   4.165  14.312  0.0155  0.2282  0.0224
10508W        W26317  16.977  12.165   5.069 -0.1140  0.2064 -0.0021
10509W        W26318  15.084  18.163   3.935  0.0700 -0.2654  0.0634
10510W        W26319   4.888  14.870   2.782  0.1360  0.2515 -0.4469
10511W        W26320  14.121  13.093   0.931 -0.0994  0.4457 -0.0360
10512W        W26321  11.904   6.521   1.857 -0.0589 -0.0352  0.2384
10513W        W26322  16.025  18.027  15.517  0.2343  0.0923  0.2929
10514W        W26323  18.633  10.985   3.139  0.2739  0.1260 -0.2112
10515W        W26324   9.433   7.531   4.273 -0.1516 -0.3684  0.1400
10516W        W26325   0.076  16.129  12.335 -0.0310 -0.1240 -0.0227
10517W        W26326  10.183   4.154   0.733 -0.1996  0.1094  0.2012
10518W        W26327   0.392   3.153   1.608 -0.1364 -0.3080  0.0259
10519W        W26328   0.829  17.335  12.409 -0.2193  0.3648 -0.1022
10520W        W26329  18.761  11.476   3.342 -0.1417 -0.3265  0.1140
10521W        W26330  13.042   3.064  12.119  0.0911  0.1984  0.2570
10522W        W26331  14.244   6.570  11.315 -0.1220  0.0601 -0.2299
10523W        W26332  14.967   8.020   3.933 -0.2972  0.2351 -0.1079
10524W        W26333  12.725   2.468  11.513 -0.1986  0.0148  0.0450
10525W        W26334  12.802   7.178   4.042  0.0852 -0.0168 -0.2471
10526W        W26335   4.430  17.352  13.013  0.1314 -0.2362  0.2873
10527W        W26336   3.032  18.587  10.822 -0.3744 -0.3735  0.0577
10528W        W26337  14.962   1.418  11.595  0.1972 -0.1194 -0.1935
10529W        W26338   2.610   6.414   1.061  0.2026  0.1898 -0.0289
10530W        W26339  18.281   4.432   1.584  0.0526  0.1318  0.0836
10531W        W26340  15.917   6.591  14.281 -0.0875  0.2211  0.1381
10532W        W26341  17.112  14.451   2.164 -0.1402  0.6029  0.0134
10533W        W26342   6.795   4.724  14.489  0.1441  0.3068 -0.4902
10534W        W26343   2.279  17.476  14.001 -0.1040 -0.2091 -0.0125
10535W        W26344   3.565  15.735  15.114  0.0903 -0.0118 -0.0443
10536W        W26345   8.843  18.282   3.874 -0.0480 -0.1931  0.3143
10537W        W26346  14.546  16.799  14.272  0.1004 -0.2649 -0.2582
10538W        W26347   5.810  10.956  14.826  0.1883  0.0323 -0.3197
10539W        W26348   5.078   7.599   0.501  0.0216 -0.2020  0.1244
10540W        W26349   2.778   6.499  13.203 -0.1616  0.2018  0.1366
10541W        W26350   9.652  10.954  15.220 -0.0350 -0.1212  0.0335
10542W        W26351  13.253  13.001  12.386  0.0017 -0.1903  0.1319
10543W        W26352  17.498   0.820   1.400  0.1393  0.2086  0.2148
10544W        W26353  16.084   1.331   4.171  0.1710  0.0033 -0.2820
10545W        W26354   2.199  17.831  13.289 -0.3303  0.1537 -0.0293
10546W        W26355   0.657   2.811  14.174 -0.0834  0.2751  0.1828
10547W        W26356   5.813   3.560  12.415 -0.1878 -0.1952  0.1090
10548W        W26357   7.313  10.561  14.593 -0.0785  0.0092 -0.2477
10549W        W26358  18.215   8.801   5.249  0.0156 -0.0185  0.0046
10550W        W26359   0.809  17.647   2.412  0.3224  0.1193  0.0185
10551W        W26360  14.627  10.431  14.127  0.1929  0.0644 -0.1694
10552W        W26361   0.923  16.370   4.893  0.3325 -0.2723 -0.0546
10553W        W26362   3.277   2.296   4.065 -0.0195  0.0463 -0.1441
10554W        W26363   5.303   8.930   3.325  0.2521  0.0776 -0.1554
10555W        W26364   5.966   8.544  11.741  0.1922 -0.0128 -0.1500
10556W        W26365   0.975   3.665   9.938 -0.2322  0.0688 -0.1358
10557W        W26366  15.705  17.681  13.821 -0.1529  0.0347 -0.2267
10558W        W26367   7.510  18.259  14.695 -0.0829 -0.4440  0.0702
10559W        W26368   2.368  17.210  14.791 -0.0731  0.1136  0.0497
10560W        W26369  11.904   1.292  14.587  0.1384 -0.1203 -0.1013
10561W        W26370  15.119   7.441  10.742 -0.0888  0.1348  0.1946
10562W        W26371  11.889   0.486  13.009  0.3181 -0.1131 -0.2279
10563W        W26372   8.897   3.797   3.530  0.1831 -0.1402  0.0457
10564W        W26373  10.485  10.783   0.832 -0.1098  0.1184  0.1564
10565W        W26374  18.263   4.176   3.369 -0.2934  0.2151  0.0637
10566W        W26375   9.640   8.185  15.333  0.2975  0.2071  0.1433
10567W        W26376  11.891  11.822   1.599 -0.1436 -0.0015  0.0550
10568W        W26377  10.101  12.397  13.155  0.1008 -0.0505  0.1419
10569W        W26378   8.311  15.758   1.380 -0.1879 -0.3051  0.0240
10570W        W26379  10.206  11.081   0.114 -0.2220 -0.3567  0.0082
10571W        W26380  14.323  10.803   1.287 -0.0940 -0.1695 -0.1777
10572W        W26381   7.595   3.348   4.888  0.1380  0.0616 -0.0800
10573W        W26382  12.600  10.356   3.355  0.3435 -0.1897 -0.3739
10574W        W26383  15.357   3.288  14.535  0.1738  0.0944  0.3535
10575W        W26384   1.050   0.229   4.104  0.0554  0.3256 -0.1931
10576W        W26385  12.536   7.520  14.898 -0.1169  0.0225 -0.4179
10577W        W26386   0.890   9.863  14.143  0.4147  0.2711  0.0804
10578W        W26387   4.720  11.369  14.468 -0.1144  0.0084  0.1926
10579W        W26388  14.843  14.367   3.021  0.1779  0.3860  0.2310
10580W        W26389  13.631  12.410   3.204 -0.2015 -0.1515 -0.0126
10581W        W26390  10.511  12.834  11.318 -0.1165  0.2630  0.3491
10582W        W26391  17.082  10.842   2.548 -0.4112  0.1146  0.1950
10583W        W26392  13.356   6.679   4.150  0.1198  0.1409  0.1983
10584W        W26393  14.457  18.630   5.118  0.0736 -0.1844  0.2699
10585W        W26394   9.938  15.536  15.194 -0.2983  0.0885  0.3025
10586W        W26395  15.461  10.228  14.574 -0.0614 -0.1956 -0.0297
10587W        W26396   6.628   5.155   1.319 -0.1988 -0.0974  0.0820
10588W        W26397  11.501   2.086   4.056 -0.3257  0.2342  0.0899
10589W        W26398   8.930  12.035   3.460  0.0852 -0.0542  0.1693
10590W        W26399   6.042  10.240  10.457 -0.3514 -0.0910 -0.0254
10591W        W26400  13.245   0.089   3.481 -0.2028 -0.0415 -0.2901
10592W        W26401  15.849  15.081  15.174 -0.0669  0.0825 -0.0358
10593W        W26402   0.599  15.170  13.426 -0.2416  0.0488  0.2403
10594W        W26403  15.232  18.689   2.621  0.1661  0.3355  0.1369
10595W        W26404  13.017  12.731   2.406  0.2249 -0.2382  0.1528
10596W        W26405   8.071  18.052   4.208 -0.1572 -0.2317 -0.1524
10597W        W26406   4.219   2.312  13.056 -0.3546  0.2572  0.0301
10598W        W26407  15.092   0.278   0.058 -0.1886  0.0827  0.2881
10599W        W26408  10.869  17.726  11.234  0.0089 -0.3965  0.0146
10600W        W26409  12.087   7.729   2.234  0.2324  0.0722  0.1325
10601W        W26410   5.640  13.291   1.906  0.1229 -0.0463 -0.2039
10602W        W26411   2.326  18.493  12.578 -0.0195  0.2413 -0.1312
10603W        W26412  16.452   9.692   3.896  0.1286  0.0105 -0.2463
10604W        W26413   3.442   7.134   4.817  0.5627  0.1881 -0.3528
10605W        W26414  16.228  10.219   1.465  0.1621 -0.0316 -0.0496
10606W        W26415   2.729  11.969  10.929  0.1886  0.1639  0.3479
10607W        W26416  13.638   1.308   3.969  0.1618 -0.0772  0.0441
10608W        W26417  12.031   2.453   1.486  0.5278 -0.0668 -0.0545
10609W        W26418   3.555  18.767  12.140  0.0901  0.0810 -0.2390
10610W        W26419   1.160   7.795  13.196  0.1574 -0.0698 -0.1858
10611W        W26420  15.307  10.084  12.273  0.0368  0.4414  0.4347
10612W        W26421   8.848  11.915  10.942  0.2630 -0.2377 -0.0432
10613W        W26422  13.244   2.008   6.149 -0.0705 -0.1341  0.2569
10614W        W26423   7.997   2.276   3.031  0.0499  0.0113  0.1341
10615W        W26424  17.333  11.160  14.208 -0.0683  0.1051  0.0085
10616W        W26425   1.782  10.265   1.035  0.1723  0.0585  0.1125
10617W        W26426   5.997  13.134  13.942 -0.0078  0.1945 -0.0429
10618W        W26427   5.358   5.452  13.576 -0.0756  0.1184  0.2443
10619W        W26428  12.590  14.478   2.637 -0.2395  0.2641 -0.1084
10620W        W26429  17.245  16.643  15.049 -0.1510 -0.0998  0.0160
10621W        W26430   9.495   1.434  13.463  0.1152 -0.0352  0.0757
10622W        W26431  12.965  12.401  10.818 -0.0463 -0.2071 -0.0612
10623W        W26432  10.232  10.198  10.640 -0.2017  0.0316  0.1592
10624W        W26433  13.280   3.477  11.169 -0.0925  0.1465  0.0564
10625W        W26434   8.897  12.146   5.088  0.4130  0.0808  0.2636
10626W        W26435  10.622  14.862   5.790 -0.2184  0.0742 -0.0224
10627W        W26436   6.599   2.038  12.757  0.1550 -0.2746  0.1860
10628W        W26437   0.824   7.063  14.879  0.0553  0.0124  0.0013
10629W        W26438   2.308   9.736  11.224  0.2314 -0.3651 -0.0555
10630W        W26439   3.748  17.946   3.145  0.0067  0.0686  0.5172
10631W        W26440   4.176   9.265   4.290 -0.1574 -0.0712 -0.2056
10632W        W26441   9.857  10.426  10.445  0.1399 -0.1412 -0.0073
10633W        W26442   2.643  15.429  13.871 -0.1373 -0.2700  0.0988
10634W        W26443   5.444   4.193  11.099 -0.2948 -0.2413 -0.1833
10635W        W26444  13.593  17.840   1.846  0.2812 -0.1040  0.2522
10636W        W26445  15.612  15.979  11.625  0.1493 -0.1548  0.0787
10637W        W26446  16.364  15.446   4.563 -0.0202  0.0688  0.2148
10638W        W26447  17.492  12.434   0.344 -0.1789  0.0246 -0.2224
10639W        W26448  13.795   6.943  15.201  0.0793 -0.3719  0.1728
10640W        W26449   7.359  12.451  11.959  0.2750 -0.1965 -0.1375
10641W        W26450   5.184  10.243   3.748 -0.1051  0.0802 -0.3144
10642W        W26451  14.207   5.845   0.219 -0.1842  0.2775 -0.3850
10643W        W26452  18.369   4.497   3.945  0.0424  0.4460 -0.2342
10644W        W26453  12.392   3.903   1.049 -0.1173 -0.1780  0.0146
10645W        W26454  13.482   3.088  11.813  0.2106 -0.1046 -0.2437
10646W        W26455   4.913   2.775   2.536  0.1359  0.5071  0.0447
10647W        W26456   5.105  11.614  14.697 -0.1584  0.1759  0.2213
10648W        W26457   3.926  13.468   2.149  0.0106 -0.1296 -0.1629
10649W        W26458   4.376   6.147   1.527 -0.0387 -0.0997 -0.2083
10650W        W26459   7.691   5.770  12.184 -0.0929  0.0325  0.0596
10651W        W26460  11.648   4.041  11.501 -0.0213  0.1705 -0.1322
10652W        W26461   9.749   0.533   0.964  0.0260  0.2032  0.1383
10653W        W26462  10.886  17.107   1.465  0.1514  0.1037 -0.0342
10654W        W26463   3.608   3.755   1.305 -0.2023  0.0271  0.0993
10655W        W26464   1.136  16.384   1.882  0.0218  0.1969  0.3120
10656W        W26465  10.750  11.364  11.634  0.4335 -0.3426  0.1265
10657W        W26466  15.715  11.012   1.558 -0.1806  0.2038  0.1408
10658W        W26467   6.164  10.216  13.443 -0.1820  0.1529 -0.0783
10659W        W26468   8.443  10.975  14.657 -0.3572 -0.1909 -0.0733
10660W        W26469  15.843  10.520   4.149  0.2759 -0.2613 -0.1903
10661W        W26470   6.883   1.325  14.354 -0.0077 -0.1172 -0.0589
10662W        W26471   5.661  10.484  11.616 -0.2325 -0.0421  0.1781
10663W        W26472   8.116  11.049  10.134  0.0220 -0.1950  0.0962
10664W        W26473   1.605   5.933  14.438 -0.0285  0.1286 -0.2194
10665W        W26474  16.241   6.584   1.267 -0.1872  0.0695 -0.1830
10666W        W26475   5.439  16.274  10.801  0.1038  0.0413  0.0720
10667W        W26476   6.927   2.516  13.319 -0.1892  0.2006 -0.0292
10668W        W26477   3.642  15.401   9.533  0.1532 -0.3595  0.0638
10669W        W26478  13.695  15.605  12.816 -0.3915 -0.0604  0.1498
10670W        W26479  16.474   1.052   4.080  0.0200 -0.2482 -0.0608
10671W        W26480   6.124  16.958  10.994 -0.3311 -0.0199 -0.1753
10672W        W26481  16.790   7.983  14.555  0.1105  0.1711  0.1672
10673W        W26482  18.413  10.818   3.953 -0.3226 -0.1452  0.0367
10674W        W26483   2.519  15.885  10.690  0.1625 -0.1947  0.2438
10675W        W26484   1.737  11.282   2.919  0.0902 -0.2675 -0.0134
10676W        W26485  15.107   3.081  12.048 -0.0341 -0.0528  0.0357
10677W        W26486   2.439   1.772  14.891  0.2643 -0.2321  0.5539
10678W        W26487   5.144   8.059  11.719 -0.0385  0.0001  0.0090
10679W        W26488  14.202   3.077   2.528  0.0693 -0.0479 -0.1517
10680W        W26489  13.518   3.885  11.233 -0.0118 -0.1201 -0.1434
10681W        W26490  16.033  16.803   1.143 -0.1572  0.0011 -0.2002
10682W        W26491   4.270   5.011   4.593 -0.0258 -0.2511  0.5928
10683W        W26492   0.091   4.257  12.945  0.2358  0.1518 -0.0831
10684W        W26493  14.418  14.384   0.388  0.0069  0.1327  0.0563
10685W        W26494  14.790  16.783   2.338  0.0180  0.1573  0.0439
10686W        W26495   2.766   9.222   0.637  0.1754  0.0768  0.2160
10687W        W26496   6.136  17.392  10.504 -0.0578 -0.0846  0.0192
10688W        W26497  12.618   7.863   4.916  0.1171 -0.4228  0.0618
10689W        W26498  11.329  13.935  15.264 -0.1890  0.0282 -0.0167
10690W        W26499  10.665  16.012  11.110  0.0027 -0.0896 -0.1793
10691W        W26500   5.695   8.762  12.084 -0.1815 -0.0949  0.0078
10692W        W26501  18.376  15.043  11.145 -0.4291  0.0547 -0.2080
10693W        W26502  10.830   0.947  10.812 -0.0502  0.0701 -0.2969
10694W        W26503  17.713  17.285   3.985 -0.0223 -0.1203  0.4396
10695W        W26504  13.913  17.696   2.253  0.2011  0.2620  0.0764
10696W        W26505   0.909   4.266   4.056  0.0538  0.0812  0.0570
10697W        W26506  12.355   7.622  14.135 -0.0841 -0.2341 -0.0708
10698W        W26507   3.572   4.211   2.487  0.0444 -0.1247  0.2649
10699W        W26508  10.873  12.088   0.267  0.0343 -0.0412  0.0142
10700W        W26509  14.264  15.253   4.765 -0.0736 -0.2183  0.1356
10701W        W26510   2.512  12.306   5.362 -0.1340 -0.2510 -0.0524
10702W        W26511   5.376   6.648  12.253  0.2959  0.1338  0.4358
10703W        W26512  10.852  14.795  13.198 -0.0984 -0.0171  0.1634
10704W        W26513   2.367   4.477   5.581  0.0793 -0.0346 -0.2303
10705W        W26514   8.725  10.994   0.406  0.2910 -0.0235 -0.1028
10706W        W26515   5.302   5.017   2.671  0.3385 -0.0648  0.3461
10707W        W26516  12.551  17.466  14.944 -0.0954  0.1286 -0.1600
10708W        W26517  11.009  11.424  14.689 -0.0797 -0.2361  0.0723
10709W        W26518   9.751   9.676  12.750 -0.2666 -0.2787 -0.0959
10710W        W26519   2.797  17.566   4.634 -0.1660  0.3072 -0.1166
10711W        W26520  16.652   7.363   1.222 -0.3469 -0.0831  0.1481
10712W        W26521  15.045   5.944   2.413 -0.1693  0.0240 -0.2298
10713W        W26522   0.976   1.119   5.645 -0.3665  0.2379 -0.0064
10714W        W26523   4.863  17.948   0.591 -0.1833  0.0339 -0.3789
10715W        W26524   6.550   6.841   5.852 -0.1617  0.1836  0.1176
10716W        W26525   7.319   9.559   0.482  0.2860 -0.0439  0.1000
10717W        W26526  14.744   7.740   0.694  0.0362 -0.1222  0.1782
10718W        W26527   5.694  15.521  12.338  0.1029 -0.0738  0.0208
10719W        W26528   2.235   6.143   1.949  0.0864 -0.0336  0.1040
10720W        W26529  15.220  13.496  12.683 -0.0707 -0.4026 -0.5182
10721W        W26530   5.993   7.464  13.770 -0.1808 -0.1188  0.1851
10722W        W26531   0.609   5.992  12.120 -0.3243  0.2066  0.0866
10723W        W26532   7.174   6.751   3.798  0.1964 -0.3333  0.1976
10724W        W26533  13.501   3.428  15.425  0.0357  0.0419  0.0235
10725W        W26534   1.776  11.537  10.697  0.3837 -0.1585 -0.0977
10726W        W26535   5.022   6.851   5.413 -0.3751 -0.1060 -0.0858
10727W        W26536   8.222   4.935  13.202  0.0748  0.1322  0.3613
10728W        W26537   0.787   3.705   5.124  0.2517  0.1949 -0.0696
10729W        W26538   7.624  12.821   2.811 -0.0070  0.0381  0.4821
10730W        W26539   4.299  13.165   2.123  0.0097  0.0114 -0.3481
10731W        W26540   9.762  17.239  13.182 -0.0767 -0.0076  0.1053
10732W        W26541   0.918   5.755  12.888 -0.3490 -0.1466  0.1226
10733W        W26542  11.704  18.496   5.146  0.0532  0.1786  0.3310
10734W        W26543   4.416  17.856   2.667 -0.2465  0.0909  0.0753
10735W        W26544   1.126   9.286  11.124 -0.1489  0.5116  0.0016
10736W        W26545   2.687  16.483  12.323 -0.2344  0.0248 -0.0644
10737W        W26546   1.096  14.846   3.749 -0.2509  0.3347 -0.3588
10738W        W26547   0.129   4.118   4.563  0.1746 -0.2435 -0.0479
10739W        W26548   5.487   6.083   2.043 -0.0910 -0.0009 -0.0686
10740W        W26549   8.233  14.916  10.035 -0.0865  0.1399  0.0834
10741W        W26550   2.648  11.672   1.658 -0.1552  0.0298 -0.3015
10742W        W26551  11.712   7.420  13.355  0.0742 -0.0197 -0.4179
10743W        W26552   0.523  18.713   0.719  0.0071 -0.0543 -0.2846
10744W        W26553   1.866   9.709   0.874  0.3964  0.0689 -0.1115
10745W        W26554  12.903   8.615   0.921 -0.0395  0.2352  0.1165
10746W        W26555   8.984  11.795  14.934 -0.2038 -0.2353  0.1559
10747W        W26556  14.606   8.073   2.331 -0.1745 -0.0288  0.1934
10748W        W26557  16.156  15.003   4.654 -0.1532 -0.0950 -0.0809
10749W        W26558   3.956   3.129  14.507  0.3981 -0.0261  0.1331
10750W        W26559   2.802   5.268   0.651 -0.1200  0.4508 -0.3552
10751W        W26560   9.594   5.428  14.382  0.3206 -0.1298  0.0634
10752W        W26561   0.743  11.056   3.663 -0.0650 -0.1019 -0.0192
10753W        W26562   9.374   8.086   3.227  0.1885 -0.0870 -0.1006
10754W        W26563  10.393  15.833   4.906 -0.0372 -0.0076 -0.2104
10755W        W26564   8.481   2.122  11.494 -0.2014  0.1552 -0.0653
10756W        W26565  10.458   3.818   4.606 -0.1079 -0.0734 -0.1625
10757W        W26566  12.050   8.662   2.492 -0.0671 -0.1350  0.1840
10758W        W26567  17.497  18.346  12.308  0.3146 -0.0101 -0.2865
10759W        W26568   1.740  12.374   4.874 -0.1447 -0.1603 -0.1350
10760W        W26569  10.087   9.758   4.557  0.0344  0.0656  0.2767
10761W        W26570  12.722  11.264   2.265  0.0228  0.0450  0.0862
10762W        W26571   8.868  16.634   5.504  0.2675 -0.0118 -0.3258
10763W        W26572   1.043   4.879   1.059  0.0649 -0.1710 -0.0350
10764W        W26573  15.334  12.286   2.784  0.0471  0.3385 -0.0796
10765W        W26574   1.522   7.888   4.227 -0.1925  0.3487  0.0073
10766W        W26575  13.537   5.274  12.132 -0.2266  0.0099 -0.0198
10767W        W26576  14.968   2.108   5.789  0.3448  0.3694 -0.0751
10768W        W26577  13.755   5.690   3.187 -0.1803 -0.1226  0.3165
10769W        W26578   7.168   8.155   2.301 -0.1336  0.1420 -0.0758
10770W        W26579   7.019   6.748   2.898 -0.2957 -0.2547  0.0093
10771W        W26580  12.013   9.403  14.972  0.3518 -0.1877 -0.0594
10772W        W26581  11.501  16.583  15.190  0.0688 -0.1999 -0.0287
10773W        W26582  18.548  12.667  12.565  0.0997 -0.2081  0.0601
10774W        W26583   1.607  10.906   4.402 -0.1697 -0.0641 -0.1992
10775W        W26584  13.833   5.007   0.640 -0.0703 -0.3184  0.2196
10776W        W26585  16.389  17.860   2.233  0.1879 -0.0826 -0.1700
10777W        W26586  10.171  14.572   4.488  0.4007  0.1072  0.1670
10778W        W26587   0.823  10.708  13.612  0.2308  0.3150 -0.1861
10779W        W26588   3.112  10.405   5.577 -0.0452 -0.1344 -0.3625
10780W        W26589   8.312   1.248   1.309  0.2375 -0.1753  0.1313
10781W        W26590   8.370  14.206  11.529 -0.1221 -0.4425  0.0560
10782W        W26591   2.359  14.063  14.806 -0.0854  0.2619 -0.3030
10783W        W26592   0.456  18.452  13.488  0.0659  0.1083 -0.2618
10784W        W26593  16.441   6.418   0.175 -0.0415 -0.1788  0.0162
10785W        W26594  11.104   1.872  14.853  0.2705 -0.1201  0.3437
10786W        W26595  15.315   9.209   3.472 -0.0568  0.0373 -0.0606
10787W        W26596  13.691  10.102   2.909 -0.0403  0.3915 -0.0070
10788W        W26597  12.251   4.039   2.986  0.4268 -0.1676 -0.1072
10789W        W26598  13.259  12.706   1.268 -0.2716 -0.1332 -0.0165
10790W        W26599  10.767   9.264   4.981 -0.0703 -0.0987  0.2619
10791W        W26600   3.191   5.809  10.149 -0.1180  0.2742  0.0356
10792W        W26601  11.611   6.451   5.072 -0.1194 -0.1315 -0.0229
10793W        W26602  14.739  14.420   1.359 -0.3419 -0.0279 -0.0695
10794W        W26603   1.945   2.375  12.959 -0.5328 -0.1905 -0.3400
10795W        W26604   1.773  11.347  12.924  0.1160 -0.0649 -0.0640
10796W        W26605  13.572  15.495   2.607  0.0345 -0.3923  0.1760
10797W        W26606   5.023   7.796   5.050 -0.0452 -0.3625  0.0458
10798W        W26607   9.922   0.459   2.189  0.1852 -0.0111  0.0134
10799W        W26608  18.601   1.444  14.128 -0.0797 -0.0992  0.0106
10800W        W26609  11.235   8.021  13.133 -0.0464 -0.0144  0.0391
10801W        W26610   9.770  14.852  14.285  0.3382 -0.2002 -0.1070
10802W        W26611  15.104   8.152   4.755  0.0054  0.2955  0.1145
10803W        W26612  16.146  10.073   2.488 -0.0676 -0.0254  0.0380
10804W        W26613  17.171   2.685  11.025 -0.0348 -0.1062  0.2534
10805W        W26614  14.282   4.896  12.228 -0.1159 -0.1676  0.2777
10806W        W26615   3.667  16.923  15.235 -0.0580 -0.0443 -0.0046
10807W        W26616   7.971   1.707   1.531  0.0909 -0.1314 -0.0649
10808W        W26617  15.831   9.123   0.439 -0.4362 -0.0348 -0.2967
10809W        W26618   7.582   3.337   1.692  0.0651  0.0443 -0.0787
10810W        W26619   0.050   0.554   2.296 -0.0218 -0.0513 -0.4040
10811W        W26620  10.666  15.694  13.316  0.4626  0.0232 -0.0380
10812W        W26621   9.835  10.268   5.111  0.1486  0.1275  0.2714
10813W        W26622  16.952  10.772   1.513  0.2144 -0.1690 -0.3014
10814W        W26623   4.983   4.182  11.464  0.0696  0.1520  0.0960
10815W        W26624  13.168   0.823  12.568 -0.0468  0.0232  0.3601
10816W        W26625   9.417   3.434  15.266  0.1717  0.2635 -0.0187
10817W        W26626  11.515  17.588  10.825 -0.0935  0.1778  0.3382
10818W        W26627  14.873  17.957  14.122 -0.1212 -0.0958  0.1965
10819W        W26628   2.988  12.355  10.673  0.2765  0.0326  0.1039
10820W        W26629   3.125   6.418   1.896  0.0675 -0.1042  0.3070
10821W        W26630   7.209  10.424   0.716 -0.0766 -0.0668  0.0104
10822W        W26631  13.523   8.475  11.695  0.4338  0.1662 -0.0924
10823W        W26632   3.610   1.069   3.383 -0.0326  0.1480  0.1783
10824W        W26633  14.570   9.124  14.808 -0.4938 -0.5119  0.1695
10825W        W26634  16.426   6.356   3.164  0.2695  0.2475 -0.0594
10826W        W26635  17.702   7.846  10.705  0.0024 -0.0831 -0.3825
10827W        W26636  10.927  17.775  14.257 -0.0145 -0.0163 -0.1434
10828W        W26637  14.352   5.002   0.842 -0.1561  0.1660 -0.0236
10829W        W26638   4.537  15.285   1.962  0.1500 -0.2639  0.0792
10830W        W26639   7.741   3.868  10.436  0.1397 -0.0421  0.1108
10831W        W26640  17.553  16.368   0.872 -0.2424 -0.1873  0.0851
10832W        W26641  18.746   5.301  11.202  0.0878 -0.3255 -0.1851
10833W        W26642   2.382   0.892   1.426  0.1823  0.4349  0.1967
10834W        W26643  12.940  18.061   0.401  0.2229  0.0703 -0.2399
10835W        W26644  15.887  11.410   3.018 -0.1719  0.0780  0.2991
10836W        W26645   2.261   2.652  14.293 -0.1473  0.0463 -0.2076
10837W        W26646   8.002  18.293   2.159  0.0439  0.1368 -0.1643
10838W        W26647   1.693  11.774   2.112 -0.1608  0.2878 -0.1474
10839W        W26648   4.362   4.459  12.675 -0.0028  0.1696 -0.2351
10840W        W26649   5.934  17.655   2.155  0.2790 -0.0810 -0.2541
10841W        W26650   3.918   4.973   5.851 -0.1284  0.1322  0.1125
10842W        W26651   1.706   5.134  14.759 -0.1524  0.1540 -0.2978
10843W        W26652   4.169   7.727   3.051  0.0884  0.2787  0.2196
10844W        W26653   8.721   8.194   4.017  0.3767 -0.0288  0.2532
10845W        W26654   7.772   2.796   2.513 -0.0839  0.2334  0.0109
10846W        W26655   0.243   1.207   4.874  0.3733  0.1926  0.2037
10847W        W26656   4.880   6.022  15.272 -0.3273  0.0816  0.0123
10848W        W26657  10.379   6.213  14.557 -0.0366  0.0941  0.0933
10849W        W26658  11.107  18.350   1.151 -0.1465  0.0622  0.1043
10850W        W26659   1.228  12.775  13.965  0.1789  0.1615  0.2819
10851W        W26660  18.417  16.184   1.941  0.0096  0.2316  0.2941
10852W        W26661   9.427   1.696   4.841  0.2336 -0.0589  0.1801
10853W        W26662   6.435  16.716   2.462  0.0966  0.0683  0.0032
10854W        W26663  15.041   7.396   0.289  0.2121  0.1937  0.3166
10855W        W26664   2.307   9.138  13.695 -0.0105 -0.4049  0.1433
10856W        W26665   1.363   0.625   4.136 -0.3335 -0.1709 -0.3175
10857W        W26666  13.018  13.357  11.043 -0.0991  0.1740  0.0893
10858W        W26667  16.723  14.522   3.739  0.4257  0.3039  0.0385
10859W        W26668  10.382   6.369  13.715 -0.0061 -0.1527  0.3557
10860W        W26669   4.075   4.847  11.635 -0.0715 -0.2524  0.1142
10861W        W26670   0.591  10.571  14.362  0.1583 -0.0619  0.1504
10862W        W26671   1.265   0.919  12.766  0.1610 -0.1300 -0.2215
10863W        W26672  13.910  16.513   2.797 -0.1474 -0.2179 -0.2132
10864W        W26673   0.589  17.018  13.906  0.2751  0.1873  0.0784
10865W        W26674   8.898   0.790  12.087  0.0378 -0.2590  0.0723
10866W        W26675   5.455   7.802   2.416  0.2370 -0.3396 -0.2657
10867W        W26676   4.092  16.457   2.513  0.3376 -0.0015 -0.1705
10868W        W26677  13.120  14.764   2.743  0.0258  0.1727  0.5554
10869W        W26678   1.625  11.150  12.016  0.2325 -0.2749  0.0071
10870W        W26679  16.938  13.975  14.298 -0.0395 -0.2938 -0.3213
10871W        W26680  15.771   3.636  11.542  0.0814  0.3618  0.3020
10872W        W26681  10.855   0.423   0.835 -0.0633 -0.1741  0.0307
10873W        W26682  10.009   0.126   2.642  0.0042  0.0050  0.0158
10874W        W26683   4.019  15.923   1.711 -0.1223  0.0645 -0.0270
10875W        W26684   0.190   8.264   1.607  0.1718  0.0255 -0.0852
10876W        W26685   5.814   2.793   0.967  0.1421  0.2347 -0.2380
10877W        W26686  13.350   6.883   0.484 -0.0638  0.1360  0.0468
10878W        W26687   6.970   7.938  12.186 -0.0266  0.0901  0.0316
10879W        W26688   3.221   9.809  13.916  0.2916 -0.3817 -0.0009
10880W        W26689  17.848  11.932  11.536  0.1059  0.1979 -0.1355
10881W        W26690  11.238   5.774   3.579 -0.1087  0.0710 -0.2088
10882W        W26691   8.765  12.800  12.877 -0.1305 -0.2856 -0.2338
10883W        W26692  14.483   8.712   4.304 -0.1504  0.0675  0.2007
10884W        W26693  14.206   9.700  13.665 -0.1978 -0.2406  0.1631
10885W        W26694   9.756  10.016  14.137  0.0217  0.1622  0.1777
10886W        W26695  16.724  17.553  13.048 -0.3674 -0.3283 -0.1239
10887W        W26696   3.375   6.264   9.927  0.1171  0.1534  0.0275
10888W        W26697   3.747  16.458   0.915  0.1488 -0.4180  0.0941
10889W        W26698  11.862   6.667  11.173  0.0464 -0.0164 -0.4495
10890W        W26699   9.496   9.943  10.901 -0.2038  0.1911 -0.1429
10891W        W26700   2.367   8.738   4.672 -0.0658  0.2209  0.0214
10892W        W26701   7.970   1.290  12.432  0.1560  0.0930  0.2747
10893W        W26702   3.969   9.140  14.385 -0.0666  0.1189  0.2220
10894W        W26703   5.753   5.122  15.558 -0.1015 -0.0946  0.3478
10895W        W26704   3.093   4.916   5.275  0.2384 -0.3370  0.1659
10896W        W26705   3.359  16.377   2.430 -0.0711 -0.3104 -0.0920
10897W        W26706  11.242   5.674  11.896  0.0482  0.1102  0.0298
10898W        W26707   3.308   3.592   0.330 -0.3578 -0.1694 -0.0009
10899W        W26708   4.942   8.456  12.415 -0.1000  0.2609  0.1072
10900W        W26709  14.348   7.937   3.920  0.2346  0.2234  0.3387
10901W        W26710  10.041   9.123  11.076 -0.0869  0.2760  0.0210
10902W        W26711   1.583   5.952   9.374  0.1243  0.1001  0.3802
10903W        W26712  14.993   5.266   4.151  0.4812  0.2137  0.0541
10904W        W26713   8.943   4.634  15.169  0.2512  0.1516 -0.1733
10905W        W26714  10.560  18.437   2.068 -0.0563  0.0426  0.2252
10906W        W26715  12.711   4.041   4.174  0.0822 -0.1020  0.4903
10907W        W26716   9.919   8.907   5.117  0.1528  0.0551 -0.0859
10908W        W26717   6.526   8.553  15.527  0.3246 -0.0219 -0.2181
10909W        W26718   1.181  10.400   2.043 -0.0537 -0.0780  0.2930
10910W        W26719  13.879  17.504   4.524  0.2615  0.2442  0.3250
10911W        W26720  10.730   2.488   5.016 -0.0580  0.3274  0.0926
10912W        W26721   3.596   3.098  13.335  0.0644 -0.1230 -0.0293
10913W        W26722   6.422   8.442  12.597 -0.0795  0.1991  0.1806
10914W        W26723   9.028   7.756   1.973 -0.1519  0.1595  0.0872
10915W        W26724  10.468  14.853   1.059 -0.0977 -0.4845 -0.0618
10916W        W26725  15.234   9.690   3.685 -0.2180 -0.1836 -0.0742
10917W        W26726  18.575   4.110   1.297  0.0535  0.1929 -0.0117
10918W        W26727  15.616  13.894  14.211  0.0180 -0.1538 -0.0927
10919W        W26728  12.399   8.856  12.556  0.4200 -0.1511 -0.1880
10920W        W26729   5.581  13.914   2.199  0.0608  0.0751 -0.3315
10921W        W26730  16.681   9.497  15.182  0.2205  0.0194  0.1182
10922W        W26731  10.215  10.467  12.513  0.4583  0.2006  0.1025
10923W        W26732  10.640   0.868   6.493  0.0095 -0.1395  0.1281
10924W        W26733  18.380  11.967  14.258  0.3351  0.0772 -0.0430
10925W        W26734   9.207  14.482  11.827  0.1300 -0.0699  0.0021
10926W        W26735   1.459   6.719  12.137 -0.0724  0.0252  0.3402
10927W        W26736  14.087   0.713   5.671  0.1474 -0.0695  0.3407
10928W        W26737   0.153   2.768   1.925 -0.1481  0.2132 -0.0682
10929W        W26738   5.762   4.073   1.979 -0.3015 -0.1040 -0.1977
10930W        W26739  14.990  11.734  11.339  0.1855  0.2408 -0.2437
10931W        W26740   2.808   1.659   4.658 -0.1883  0.0273 -0.4244
10932W        W26741   6.470  15.581   4.252 -0.0149 -0.6029  0.3490
10933W        W26742  16.672  10.928   4.089 -0.3046  0.0491 -0.0581
10934W        W26743   9.842  14.207   0.848  0.1566 -0.0670  0.1118
10935W        W26744   7.703   1.245  11.061  0.2404 -0.0521 -0.1784
10936W        W26745   3.857   5.520   0.471  0.0345 -0.2157  0.1563
10937W        W26746   0.392   6.526   3.421  0.2076  0.0499 -0.0074
10938W        W26747  10.434   0.423   5.035  0.2450  0.1146 -0.1453
10939W        W26748  18.231   8.633   2.014  0.0689  0.1725  0.0168
10940W        W26749   8.902   4.631  13.822  0.0162  0.1443 -0.0459
10941W        W26750   1.405   7.296  13.877 -0.0910 -0.0964 -0.1896
10942W        W26751   0.246   7.655  11.973 -0.1706 -0.1233 -0.1086
10943W        W26752  14.248   5.879   1.266 -0.0344 -0.0074 -0.0162
10944W        W26753   2.677   2.684  14.848 -0.2736 -0.3647  0.0686
10945W        W26754   0.948   0.523   9.977 -0.2325 -0.2001 -0.3262
10946W        W26755  16.615  18.057   3.095  0.2051  0.0812  0.2161
10947W        W26756   4.548   3.113   3.250 -0.2058  0.1635 -0.0295
10948W        W26757  10.229   9.303   2.965  0.1793  0.2030 -0.0927
10949W        W26758   5.499  18.619  13.213 -0.4071 -0.0402  0.1022
10950W        W26759  16.894   4.427   1.514 -0.0791  0.1575 -0.3643
10951W        W26760   4.153   4.162   2.026 -0.0319  0.0782  0.0687
10952W        W26761   4.603   5.131   5.276 -0.0939 -0.0647  0.3309
10953W        W26762  12.128  12.062   3.743 -0.1719 -0.1230  0.0026
10954W        W26763  10.479   4.226   4.303  0.0625 -0.0800  0.0012
10955W        W26764   5.359   1.253  12.706  0.0614  0.1889  0.3092
10956W        W26765   2.091   0.165   0.107  0.2175 -0.3772 -0.2888
10957W        W26766   7.181   7.330   1.806 -0.1247  0.1692 -0.1427
10958W        W26767   6.226  12.724   0.280  0.0137 -0.2989 -0.0221
10959W        W26768   7.572  16.659  12.215  0.0801 -0.3737  0.1980
10960W        W26769   3.845   7.947   0.922  0.0632  0.1240  0.1888
10961W        W26770  15.783   7.787   0.608 -0.0288 -0.0537 -0.4036
10962W        W26771  15.885  13.242   1.122 -0.1314  0.0940  0.0235
10963W        W26772  12.026   0.258  12.172  0.0072  0.1805 -0.2892
10964W        W26773  12.623  10.063  15.093 -0.0439 -0.4354 -0.3155
10965W        W26774  11.046   6.119  15.383  0.1349 -0.0261 -0.1905
10966W        W26775   0.175   0.600  10.319  0.1272 -0.0779  0.1045
10967W        W26776  17.097   6.246   5.437 -0.1202 -0.0942  0.3299
10968W        W26777   2.772  11.677   3.496 -0.0248  0.0129 -0.0833
10969W        W26778   3.162  12.817   0.170  0.1691 -0.1438  0.1003
10970W        W26779   2.626  15.518   4.318  0.1439  0.1074 -0.1194
10971W        W26780   7.075  15.754  11.879  0.0328 -0.0889  0.0131
10972W        W26781  16.146  18.295  12.895  0.1966  0.2066  0.0481
10973W        W26782   2.763   7.442   3.474 -0.0917  0.1983  0.2087
10974W        W26783   0.194   5.982  13.204  0.4923  0.0476 -0.6035
10975W        W26784   2.828   7.222  10.528  0.0179  0.2058  0.0263
10976W        W26785   5.339  10.696   0.682  0.0454 -0.0206  0.5346
10977W        W26786   5.095   7.021  12.491 -0.2389 -0.0531 -0.1628
10978W        W26787   8.291  14.387   2.378  0.1200 -0.1110  0.4158
10979W        W26788  15.994   1.469   0.873  0.0769 -0.1008  0.0985
10980W        W26789   3.931   0.196   4.561 -0.1085  0.0358 -0.0789
10981W        W26790  13.482  11.030   6.035 -0.2005  0.4821  0.0221
10982W        W26791   2.829   6.769   0.688 -0.0349 -0.4816  0.0191
10983W        W26792  11.285   0.671   0.510  0.2168 -0.0070  0.0387
10984W        W26793   8.048  12.015   5.224 -0.1482 -0.3014  0.1460
10985W        W26794   7.030  16.860  14.082 -0.0562 -0.1698 -0.0161
10986W        W26795   5.701  13.249   9.673 -0.0877 -0.1715  0.2316
10987W        W26796   3.587  18.725   4.338  0.1462  0.0132  0.0255
10988W        W26797  18.426   5.268   0.339  0.1104  0.0880 -0.1977
10989W        W26798  15.913  10.959  13.704  0.0519  0.2182  0.3257
10990W        W26799  15.054  10.737   0.976 -0.0319 -0.0040 -0.0958
10991W        W26800   4.338  11.858   1.038 -0.1796 -0.0439 -0.1249
10992W        W26801   5.068   7.150   1.124 -0.2349  0.1317 -0.1030
10993W        W26802  15.999   4.140  12.582 -0.1385  0.0871  0.0645
10994W        W26803   4.723   6.840  14.084 -0.0919 -0.2054 -0.0444
10995W        W26804   7.745  11.140   5.460  0.0359 -0.1337 -0.0810
10996W        W26805  18.574  15.955  11.435  0.2912 -0.0625  0.0286
10997W        W26806   5.331   7.073   1.555  0.1350 -0.0671  0.1343
10998W        W26807  16.759  16.757  15.159  0.0173 -0.0974  0.0744
10999W        W26808   0.929  11.413  14.417  0.0067  0.0320 -0.0897
11000W        W26809   3.607  18.313   5.573 -0.0182 -0.2066 -0.1835
11001W        W26810  10.493   4.695   2.729  0.0539 -0.1639  0.0376
11002W        W26811  10.564   3.804  12.960 -0.0948 -0.0372  0.0974
11003W        W26812   3.401  16.881   2.395  0.0655  0.2447 -0.0147
11004W        W26813   6.983   6.219  15.354  0.1654  0.0291  0.1213
11005W        W26814   8.974   7.233   0.081 -0.0197  0.3317 -0.2157
11006W        W26815  11.969  11.500   2.721 -0.1124 -0.2435 -0.2420
11007W        W26816   1.352  10.460  13.409 -0.0715 -0.0068 -0.1847
11008W        W26817   0.594   4.311   4.483 -0.3642  0.0400 -0.0425
11009W        W26818   8.623  10.324  12.628  0.4688  0.0985  0.1218
11010W        W26819   0.945   3.351  11.251 -0.2689 -0.1938  0.0241
11011W        W26820   0.407  11.996  10.512  0.0527  0.1658 -0.0621
11012W        W26821  18.259   2.159   5.311 -0.3458  0.1174 -0.0687
11013W        W26822  13.246   6.342  14.333  0.1868  0.1053 -0.0156
11014W        W26823  13.590   9.749   0.005  0.0022 -0.5561  0.2199
11015W        W26824  16.530   9.923  11.553 -0.1576  0.0444  0.0069
11016W        W26825   5.678   8.790   2.268  0.1880  0.1119  0.2629
11017W        W26826  14.355  11.586   4.565 -0.1268  0.4354 -0.2151
11018W        W26827  14.792   6.577   1.424 -0.1972  0.1247 -0.1210
11019W        W26828   7.503   7.663  13.509  0.1784  0.2917  0.1489
11020W        W26829   2.941  13.415   3.295 -0.1588  0.2354 -0.2433
11021W        W26830  16.586   4.258   0.823 -0.3714  0.0531  0.0787
11022W        W26831  17.379   0.022   4.336  0.0585  0.0523 -0.1972
11023W        W26832   6.794   7.625  15.012 -0.1794 -0.0599  0.3512
11024W        W26833   0.596   1.088   4.366 -0.0558 -0.0835 -0.0273
11025W        W26834   0.275  18.389   5.272  0.4088  0.2018 -0.0244
11026W        W26835   4.379  15.083   1.515 -0.2608  0.0572  0.1704
11027W        W26836  17.620   3.467   4.331  0.1902  0.1355  0.0866
11028W        W26837   4.989  11.964  12.233 -0.1720  0.3292  0.2376
11029W        W26838  14.229   6.461  13.094 -0.0175  0.1661 -0.1764
11030W        W26839  10.951  17.958   0.177  0.0281 -0.0151  0.1132
11031W        W26840   4.002  16.706  11.764  0.1239 -0.0798  0.1083
11032W        W26841   8.589   6.326  11.191 -0.3291  0.1404  0.0413
11033W        W26842  18.542  13.239  13.838  0.2460  0.0216  0.2897
11034W        W26843   9.267   3.114  11.655 -0.0727 -0.0636  0.1790
11035W        W26844  12.647   1.514   2.078  0.0935  0.0431 -0.3975
11036W        W26845   6.345  17.463  12.790  0.0393 -0.1625  0.1219
11037W        W26846  12.020  13.541   0.823  0.0591 -0.0774 -0.0557
11038W        W26847   3.339   4.095   1.009  0.1288 -0.2875 -0.1403
11039W        W26848   8.059   4.268  15.012 -0.0714  0.1761  0.0584
11040W        W26849  14.596  11.370  10.958  0.0221  0.2074 -0.2800
11041W        W26850  15.545   0.489  13.759  0.0489 -0.5470 -0.2372
11042W        W26851  14.545   0.130  12.597 -0.0950  0.1440  0.0320
11043W        W26852   2.911  11.172  13.149  0.0803 -0.2598 -0.1770
11044W        W26853  16.997  15.482   1.162  0.0115  0.0927 -0.0051
11045W        W26854   7.803   5.259   3.893  0.0543 -0.4285  0.1027
11046W        W26855  15.134   6.118  11.244 -0.1028 -0.0795 -0.0599
11047W        W26856   4.049  17.550   4.855  0.2520  0.1890  0.0533
11048W        W26857   7.868   8.891  15.350  0.4116  0.0591  0.0993
11049W        W26858   8.962  13.151   1.793 -0.1764  0.1486 -0.2054
11050W        W26859   5.269  17.869  12.054  0.2447  0.2262 -0.2208
11051W        W26860  13.118   8.138   2.087  0.1368  0.0032 -0.2198
11052W        W26861  15.351   0.464  12.485 -0.0626  0.1527  0.3300
11053W        W26862  17.384  14.496   4.843 -0.1046  0.0908  0.0915
11054W        W26863   2.149   3.985  13.053  0.0751 -0.0359 -0.0502
11055W        W26864  17.581   0.179  11.503  0.0233 -0.1320  0.1645
11056W        W26865   3.808  15.319  10.056 -0.0204 -0.0688  0.2334
11057W        W26866  13.547  10.606   0.581 -0.2811 -0.1744  0.0324
11058W        W26867   2.773   3.375  14.082 -0.1202 -0.3955  0.4044
11059W        W26868  15.201   1.621   2.245 -0.0639  0.1429 -0.2420
11060W        W26869   2.959  13.190   5.066 -0.0760 -0.1208 -0.3322
11061W        W26870  15.235   2.668  13.422 -0.2707 -0.0688 -0.1088
11062W        W26871   0.976  16.344  13.047  0.1710 -0.0562  0.2071
11063W        W26872   5.010   3.749   1.543  0.2713  0.1077 -0.1088
11064W        W26873   2.258   0.714  12.390  0.1785  0.1290  0.1994
11065W        W26874   6.551   8.456  13.093 -0.1818  0.1731 -0.3297
11066W        W26875  11.900  14.894  11.169 -0.1725  0.3417 -0.0975
11067W        W26876   7.990   4.580  12.539 -0.0179  0.0361  0.0193
11068W        W26877   0.700   6.643   4.171  0.0441 -0.2620  0.2608
11069W        W26878  15.113  10.895  12.686  0.0093 -0.1616  0.0834
11070W        W26879  10.682  13.424  14.762  0.3969  0.0185  0.0710
11071W        W26880  16.644  13.795   4.370 -0.3011  0.0895  0.3197
11072W        W26881  18.195  14.972   0.635  0.0890  0.2062 -0.1748
11073W        W26882   3.058   9.027  14.446  0.2125 -0.0373 -0.2000
11074W        W26883  17.237   4.373  12.624  0.0850  0.0147 -0.1697
11075W        W26884  18.355   6.369  11.116 -0.2336 -0.0846 -0.3112
11076W        W26885   0.955  15.703   0.218  0.2396 -0.0648  0.1409
11077W        W26886   8.491   1.639   4.259  0.0386 -0.1741  0.4140
11078W        W26887  13.450   1.831   1.639  0.1730  0.1163  0.2595
11079W        W26888  16.357  11.326   2.710 -0.2524  0.1234 -0.1335
11080W        W26889  11.514  13.376   0.892 -0.0790 -0.3191  0.0206
11081W        W26890   3.397  12.031  11.766  0.0716 -0.0378 -0.1998
11082W        W26891   1.926   7.298  14.556  0.1953 -0.1293 -0.0832
11083W        W26892   5.919   2.444   0.570 -0.0432  0.1230 -0.1010
11084W        W26893  12.472   8.193   4.446 -0.0708  0.2617 -0.0067
11085W        W26894  12.724  13.751   4.201  0.0704  0.2525 -0.0453
11086W        W26895  11.201   6.992  14.582 -0.1306  0.0850  0.0073
11087W        W26896  11.385  13.707  10.603  0.2187 -0.3280 -0.1818
11088W        W26897  13.114   4.389  12.116  0.1866  0.0118 -0.1457
11089W        W26898   3.207  18.671   2.823  0.0446  0.1061 -0.0279
11090W        W26899  18.306  17.008   0.669 -0.1964 -0.4548 -0.1904
11091W        W26900  10.024  12.122   4.341  0.1980 -0.2826 -0.1822
11092W        W26901  15.429   2.308  12.712  0.0411  0.0524  0.0216
11093W        W26902  15.909  15.191  12.766  0.1351  0.1420  0.2327
11094W        W26903   9.410   0.377   1.314  0.0493  0.2157  0.0136
11095W        W26904   8.639   5.325   4.442  0.1024  0.0352 -0.1831
11096W        W26905  10.262  14.341  11.166  0.2940  0.1716  0.1150
11097W        W26906  11.682   1.778   2.163  0.0772  0.0992 -0.0523
11098W        W26907   7.369  17.055  15.483 -0.3102  0.1206 -0.4572
11099W        W26908  18.147  13.298  15.202 -0.0983 -0.1609 -0.0698
11100W        W26909  12.674  14.742  12.977  0.0044 -0.1959 -0.0838
11101W        W26910   0.824   1.818  14.005 -0.0786  0.0800 -0.0269
11102W        W26911   7.658   5.539   2.888 -0.1067 -0.0203 -0.0690
11103W        W26912   3.947   1.488  13.853 -0.0395  0.3271  0.3456
11104W        W26913  13.641  14.300   4.706 -0.2265  0.1609  0.1707
11105W        W26914   5.421   5.240   0.890  0.0673 -0.0506 -0.0671
11106W        W26915   8.819   0.952  11.066 -0.0108  0.1686  0.2384
11107W        W26916   6.291   7.322   2.838  0.1149  0.1674  0.1090
11108W        W26917   7.061  17.598  13.661  0.2934  0.0459 -0.2175
11109W        W26918  11.886  10.365  14.782 -0.1797  0.0013  0.0489
11110W        W26919  13.438   3.003  10.988  0.1034 -0.1926  0.2734
11111W        W26920   4.151  17.811   5.354 -0.0257  0.4985 -0.2318
11112W        W26921  16.394  16.356   0.808  0.1582  0.2488  0.0793
11113W        W26922   9.719  11.764  14.544 -0.1738 -0.4280  0.4750
11114W        W26923   8.101   1.979   2.641 -0.2866  0.2305  0.1654
11115W        W26924  11.865   3.917   1.065 -0.0877  0.0405 -0.1812
11116W        W26925  11.878  10.774   0.377 -0.1366 -0.1617 -0.3044
11117W        W26926  13.569   7.012  12.835  0.0651  0.1787 -0.0300
11118W        W26927   9.508  18.732  13.028  0.3187  0.0119  0.3617
11119W        W26928   5.723  12.383  14.000  0.1577 -0.2225  0.1440
11120W        W26929   8.554   6.193  14.985 -0.0202 -0.0224 -0.0509
11121W        W26930   2.730  15.415  12.618  0.2696  0.0491  0.0150
11122W        W26931   0.061   3.705   1.537  0.1332  0.1938 -0.1121
11123W        W26932   7.961   5.624   4.215  0.1511  0.0360 -0.1256
11124W        W26933   5.315  13.603  12.814 -0.1677 -0.0747 -0.0816
11125W        W26934  12.222   4.025  13.055  0.1267 -0.3993  0.4464
11126W        W26935   5.921   6.425   3.720  0.0549 -0.0085 -0.1510
11127W        W26936   0.404  13.870  13.517  0.1818  0.1354  0.0116
11128W        W26937  17.705  12.680   2.168 -0.0238  0.1234 -0.1492
11129W        W26938   2.116   6.971  13.784  0.0697 -0.1451  0.0301
11130W        W26939   3.979   9.598   3.608  0.0320  0.0134 -0.0045
11131W        W26940   4.224  10.787   2.907  0.0514  0.1834 -0.1195
11132W        W26941   6.170  13.548  15.098  0.0720  0.3558 -0.2504
11133W        W26942  18.470  16.815  10.604  0.1095 -0.5171  0.3384
11134W        W26943   3.059   4.835   1.548  0.1564 -0.0027 -0.1873
11135W        W26944  17.234  17.379   4.226 -0.0554 -0.2561  0.0582
11136W        W26945   6.529  10.336  13.080  0.0241 -0.3064  0.1619
11137W        W26946  16.065  13.390  12.792 -0.1983 -0.2031 -0.0796
11138W        W26947  16.743  13.497  14.313  0.1560 -0.1320 -0.2874
11139W        W26948  13.773  15.560  11.182  0.0387 -0.1142 -0.3641
11140W        W26949  10.498   3.591  13.409  0.2874  0.3608  0.3669
11141W        W26950   0.350   9.580  10.785 -0.1408  0.3246  0.3102
11142W        W26951   8.848   0.317   0.074 -0.1319  0.0999  0.3247
11143W        W26952  13.520  10.635   4.754 -0.2039  0.0487  0.0477
11144W        W26953   5.842   1.964   2.674  0.0879 -0.1339  0.1780
11145W        W26954   9.872   3.000  12.438  0.0185 -0.2650 -0.3132
11146W        W26955  16.687  14.668   0.876  0.1060  0.0037  0.1135
11147W        W26956   3.443   5.181  14.564  0.2185  0.0380 -0.3100
11148W        W26957  16.684  10.128  14.449 -0.1029 -0.1590 -0.0567
11149W        W26958   8.495   8.460  15.209  0.1176  0.3838 -0.2868
11150W        W26959   4.760   7.013  14.884  0.3119 -0.0377 -0.1352
11151W        W26960  14.350  15.825  13.495  0.0204  0.3962 -0.1975
11152W        W26961   2.950  17.834   2.266  0.2855  0.1780  0.0529
11153W        W26962   0.540   1.913   2.184  0.1016 -0.1358  0.1257
11154W        W26963  16.960   8.769   4.588  0.0987  0.0631 -0.0576
11155W        W26964   1.943   8.415  11.029  0.1697 -0.1787 -0.0643
11156W        W26965   5.636   8.331   3.967 -0.3761 -0.2111  0.2480
11157W        W26966   0.651  18.195  14.469 -0.0689  0.1722  0.2152
11158W        W26967   9.056  18.199   3.290 -0.2379  0.3201 -0.0065
11159W        W26968   2.861   2.234   1.013 -0.0234  0.2892 -0.1063
11160W        W26969   6.733   4.138  12.650 -0.0286  0.3845  0.0056
11161W        W26970  10.784  13.695  15.284 -0.0081  0.2450 -0.4048
11162W        W26971  12.990  17.166  12.244  0.3423 -0.0168 -0.1635
11163W        W26972  17.524  17.761   3.070  0.1918  0.0860  0.2634
11164W        W26973   7.200  16.622   1.529 -0.2764 -0.0112  0.1363
11165W        W26974  12.023  10.299  14.290  0.0661  0.2479  0.0862
11166W        W26975   0.987   6.434  13.795  0.2421  0.1121 -0.1308
11167W        W26976   4.122  15.663  10.411 -0.1926 -0.2403  0.0837
11168W        W26977   5.399   0.542  13.821 -0.2022  0.1916  0.1223
11169W        W26978   1.379  17.029   0.770 -0.2517  0.2939  0.2769
11170W        W26979  10.111  13.289  12.906 -0.3069  0.2469 -0.1814
11171W        W26980   5.199  10.880   4.434 -0.0290  0.3876  0.0913
11172W        W26981  16.232   8.447   3.887  0.2568 -0.2157  0.1803
11173W        W26982   0.640   1.490   4.733 -0.2238 -0.0944  0.1129
11174W        W26983   3.682   8.329   4.219 -0.0041 -0.2249  0.0436
11175W        W26984   6.152   3.537   1.477 -0.0702 -0.0523 -0.0360
11176W        W26985   8.430   1.209   2.765  0.4097 -0.0161 -0.0432
11177W        W26986  13.740  15.315  12.379 -0.1845 -0.5366 -0.1797
11178W        W26987  14.048   9.811   0.907  0.0601 -0.1453  0.0229
11179W        W26988   9.744  18.304   0.972  0.1325  0.2692 -0.0815
11180W        W26989   0.511   0.849  15.533 -0.1712  0.2257 -0.0407
11181W        W26990  16.621   3.344   3.867 -0.1621  0.1346 -0.1209
11182W        W26991  11.407   1.252   2.444  0.1137  0.0581 -0.0215
11183W        W26992  12.658  11.646   4.850 -0.0784  0.1420 -0.0524
11184W        W26993   0.245   0.131  10.615 -0.2301 -0.2228  0.2378
11185W        W26994   2.515   8.045  14.908 -0.2745  0.1362 -0.1707
11186W        W26995  11.133  13.500  12.981  0.3582  0.1279  0.1511
11187W        W26996  11.177  18.163  12.177  0.3008  0.1051  0.2338
11188W        W26997  14.517  13.117   1.811 -0.1021 -0.0528  0.3398
11189W        W26998   9.183   9.640  15.399 -0.0612  0.0553 -0.1024
11190W        W26999   4.984   5.022  15.168 -0.3885  0.1297  0.0727
11191W        W27000  17.622  13.776  14.403 -0.1465 -0.2680 -0.0420
11192W        W27001   2.800  16.805  10.411 -0.1621 -0.0780 -0.0843
11193W        W27002  17.433   8.355  12.216 -0.1872  0.1554 -0.2187
11194W        W27003   4.181   6.152  11.915  0.1033 -0.1310  0.1598
11195W        W27004   2.345   5.483   1.494  0.1189  0.0368  0.4868
11196W        W27005   9.732   3.550   5.114 -0.0271  0.2735  0.1175
11197W        W27006  18.569   0.843   1.052  0.1985  0.0585  0.0766
11198W        W27007  10.193   9.544   0.662 -0.0790 -0.2265  0.1116
11199W        W27008   6.587   3.981  14.103 -0.1474 -0.3045 -0.2485
11200W        W27009  12.634   4.229  13.820  0.2365  0.1727 -0.1895
11201W        W27010  17.653   4.992   5.507  0.1272  0.1325 -0.1034
11202W        W27011  15.966   7.209  14.057 -0.4005 -0.2770 -0.1110
11203W        W27012   5.659   0.268  12.977 -0.1288  0.1271  0.1756
11204W        W27013  16.887  13.759   4.834  0.0214  0.1386  0.1512
11205W        W27014   5.601   5.548  13.104 -0.1309  0.2747  0.1994
11206W        W27015   2.322   2.232   3.202 -0.2136 -0.3154  0.0388
11207W        W27016   6.541   5.024   3.528 -0.1012 -0.0559  0.1303
11208W        W27017  17.108   1.646   3.127 -0.0190  0.0725  0.2371
11209W        W27018   4.016  10.049  13.091  0.2732 -0.3410 -0.1230
11210W        W27019  12.360   2.846  14.844  0.2687  0.0453  0.1575
11211W        W27020   1.379   0.837   2.277 -0.1464  0.1190 -0.1101
11212W        W27021  12.596  11.391  11.352  0.1604  0.3588  0.3285
11213W        W27022   0.721   0.314   2.709 -0.3954 -0.2182  0.0253
11214W        W27023  18.241   1.286   1.680  0.0821  0.1217 -0.3317
11215W        W27024  14.290  15.163  11.259  0.4509 -0.1053 -0.3679
11216W        W27025  12.683   1.116   2.393  0.0257 -0.0212 -0.1376
11217W        W27026   6.987   5.610   4.304  0.0495  0.0580 -0.0822
11218W        W27027   0.292  10.888  15.102  0.2545  0.1171  0.2420
11219W        W27028  14.932   2.034   4.959  0.4518 -0.2330 -0.1634
11220W        W27029   8.090  16.053   3.962 -0.0361 -0.1872 -0.0117
11221W        W27030   9.410   9.005   4.397 -0.2927 -0.0908  0.1190
11222W        W27031   0.154  16.238  12.790  0.2478 -0.1085 -0.0176
11223W        W27032   3.263  12.228   2.604 -0.0970  0.4367  0.1203
11224W        W27033   2.352  14.917   0.041  0.0051  0.1572 -0.2049
11225W        W27034   5.866   2.106  12.317 -0.0691  0.3716  0.0139
11226W        W27035   6.146  18.087   1.044  0.3153 -0.2783  0.1517
11227W        W27036   5.749   2.098   3.173  0.1048 -0.0032  0.0380
11228W        W27037   7.997  10.403   1.878 -0.1707  0.3099 -0.2159
11229W        W27038  12.034  11.098  12.115 -0.1245  0.0305  0.0044
11230W        W27039   3.233  11.852  10.615 -0.0874  0.0824  0.0536
11231W        W27040  14.064  11.937  12.136 -0.2830  0.0794 -0.2470
11232W        W27041   6.041   8.077  11.668 -0.0148 -0.2655  0.0648
11233W        W27042  14.683   7.877  10.578  0.3126 -0.0099  0.3505
11234W        W27043  18.611   0.452   5.586 -0.0975 -0.1114 -0.1432
11235W        W27044   4.920  17.590  13.633  0.0443 -0.0870 -0.0326
11236W        W27045   5.662  15.048  11.518  0.0232 -0.0273  0.3693
11237W        W27046   1.023   8.577   2.695 -0.0673 -0.0822 -0.0629
11238W        W27047   1.600   3.456   0.067 -0.2537  0.0210  0.3085
11239W        W27048   1.346  15.446   3.444  0.0210 -0.3773 -0.3750
11240W        W27049  11.032   7.777   1.146  0.2265  0.0456 -0.1876
11241W        W27050   1.944  12.743  10.036 -0.3428 -0.0740  0.0574
11242W        W27051   3.285   0.043  10.499 -0.0502  0.0959  0.0078
11243W        W27052   4.914  11.897  14.268  0.0411  0.0009 -0.2032
11244W        W27053  12.622   6.534  13.655 -0.1932 -0.1854 -0.1818
11245W        W27054   7.564  16.360  13.115 -0.1075 -0.1187 -0.3998
11246W        W27055   5.946   3.122  12.123  0.7095 -0.0090  0.2877
11247W        W27056   7.158  12.513   1.339  0.1699  0.1219 -0.0238
11248W        W27057  11.287   7.993  15.475  0.0590 -0.0356 -0.1859
11249W        W27058   9.953  18.490  13.282  0.3209 -0.0833  0.1131
11250W        W27059  16.328  16.413  11.407 -0.0025 -0.1981  0.2163
11251W        W27060   0.563  18.482   1.220  0.1954 -0.2731  0.3440
11252W        W27061   2.908  14.770   2.801  0.3089 -0.1818 -0.1193
11253W        W27062   9.214  11.602   4.400  0.1625 -0.0093  0.0822
11254W        W27063  15.303  10.725   5.382  0.0862 -0.0069 -0.1679
11255W        W27064   4.288  12.535   4.610 -0.5497 -0.1717  0.1736
11256W        W27065  15.516   7.128  14.387 -0.0045  0.0255  0.1712
11257W        W27066  16.200   4.502  14.026  0.2412  0.0673 -0.1914
11258W        W27067   1.369  10.264   3.425 -0.4063  0.0571 -0.2547
11259W        W27068   0.752   6.683  15.206  0.0167  0.1186 -0.0599
11260W        W27069  14.615   4.165  13.249  0.1743 -0.4210  0.1169
11261W        W27070   1.583   9.760  14.776  0.1328  0.0485  0.5518
11262W        W27071  17.382   0.102   0.339 -0.1328 -0.0831  0.0788
11263W        W27072   4.560  13.571  10.628 -0.2686  0.0424  0.0348
11264W        W27073  12.286  11.599   2.298  0.0348 -0.4654 -0.1248
11265W        W27074  14.401  18.766  11.489  0.0062  0.1708 -0.0574
11266W        W27075   5.886  11.731   3.011  0.0671  0.1987 -0.1428
11267W        W27076  15.492   3.375   2.474  0.0720  0.0510  0.1347
11268W        W27077  17.021   8.962   1.350  0.2848 -0.1962  0.0788
11269W        W27078  16.914   1.017   5.719  0.2042  0.0816  0.2935
11270W        W27079   9.151  16.175  12.198  0.0265  0.2861 -0.1666
11271W        W27080   3.216   6.134   2.411 -0.0179 -0.1366 -0.1171
11272W        W27081  10.635   0.220  15.010  0.2038 -0.0659  0.1667
11273W        W27082  18.267  13.049  13.386  0.3707  0.0240 -0.0358
11274W        W27083  12.673   8.843   4.977  0.3562  0.0260 -0.0634
11275W        W27084  13.347   2.970   1.018 -0.2289  0.0586  0.0065
11276W        W27085  12.371  11.822  11.188  0.2523  0.1131 -0.0595
11277W        W27086  17.611  16.836  14.584 -0.0847  0.1690  0.1593
11278W        W27087  10.454  13.508   5.439 -0.3716  0.0573  0.1880
11279W        W27088  16.820  15.844  13.976  0.3048  0.2830 -0.1742
11280W        W27089  17.974  14.600   1.467  0.2092  0.0725 -0.0374
11281W        W27090   7.669   8.236   3.079 -0.2645 -0.1060 -0.0136
11282W        W27091   0.587  15.477  11.995 -0.3153  0.0529 -0.1157
11283W        W27092   8.395   9.668  14.308 -0.2182 -0.0537 -0.0057
11284W        W27093   5.167   4.008  10.697 -0.3658 -0.3471  0.2651
11285W        W27094   0.093  16.134   0.354  0.2760  0.0687  0.1555
11286W        W27095  15.876  13.652   2.979  0.0537  0.0086 -0.2306
11287W        W27096  14.917   4.421   2.282  0.2493 -0.0726  0.0791
11288W        W27097  18.317   2.543  13.429  0.1429  0.2579 -0.1960
11289W        W27098   8.531  17.179   0.132 -0.1527  0.0781  0.0335
11290W        W27099   9.161   4.701   0.104 -0.0109 -0.0565  0.0114
11291W        W27100   7.682   6.611  11.426  0.0473 -0.1660  0.3042
11292W        W27101   7.047  10.582   1.194 -0.2566 -0.0904 -0.1748
11293W        W27102   7.123   1.178  10.440 -0.1380  0.4864 -0.0274
11294W        W27103   1.250  12.541  13.097  0.1579  0.0262  0.2047
11295W        W27104   8.531  17.804  14.482 -0.2616  0.0887 -0.1047
11296W        W27105   4.022  13.704   3.164 -0.0337 -0.1658 -0.4902
11297W        W27106  18.198   9.939  12.434 -0.0131 -0.2260  0.2729
11298W        W27107  12.623   0.674   0.166  0.0368 -0.1968  0.0384
11299W        W27108   9.177  13.022  15.553  0.1447  0.0228  0.1527
11300W        W27109  12.502   8.379  15.297 -0.1225  0.3344  0.0883
11301W        W27110  11.931  17.254   6.260 -0.0243  0.3041 -0.2674
11302W        W27111  12.076   9.808   4.411  0.0417  0.1300  0.1938
11303W        W27112   0.610   2.722   2.997 -0.1718  0.2826 -0.0989
11304W        W27113  17.432   5.210   0.797 -0.1933 -0.0109  0.1839
11305W        W27114   3.604  13.143   3.487 -0.0347 -0.0295 -0.1873
11306W        W27115  13.464  16.944   1.994 -0.1941  0.1423  0.2126
11307W        W27116   6.718  12.654   2.717  0.4481  0.3236  0.3187
11308W        W27117   8.076  16.879  14.644 -0.2402 -0.2088  0.2585
11309W        W27118  18.543  10.061  11.524  0.2637  0.2061  0.0754
11310W        W27119   4.783   3.082   1.245 -0.0879  0.1226  0.1895
11311W        W27120   9.219  12.301  11.059 -0.5365 -0.0385  0.1588
11312W        W27121  12.673  17.613   2.040 -0.0339  0.0109  0.0511
11313W        W27122  18.754   3.472  11.773 -0.4093 -0.0971 -0.0448
11314W        W27123   8.095   8.480   0.018  0.0611 -0.0747  0.1467
11315W        W27124   0.227   7.256   3.614 -0.0400 -0.2222  0.0967
11316W        W27125  18.454  14.100   1.210 -0.0662 -0.1785 -0.1432
11317W        W27126  18.011   9.280   1.262  0.1524  0.2765 -0.2199
11318W        W27127   9.685   0.906   2.237  0.1781 -0.2023  0.3169
11319W        W27128  14.095   2.581  11.420  0.0406 -0.0123  0.0287
11320W        W27129  11.718   4.689   3.593  0.1595 -0.0045 -0.1889
11321W        W27130   9.632  14.254  10.481 -0.1500  0.1162  0.0658
11322W        W27131  10.718  15.244   2.633 -0.3203 -0.2820 -0.0118
11323W        W27132  17.662  10.720  11.804 -0.1706 -0.2175 -0.1826
11324W        W27133  12.463   5.475   0.298  0.1210 -0.1688 -0.2501
11325W        W27134   9.105   5.097  15.208 -0.1176  0.1310  0.0185
11326W        W27135   0.804   3.267   2.502 -0.3956 -0.0210  0.0136
11327W        W27136  13.734   2.875   2.638  0.0862 -0.1770 -0.1034
11328W        W27137  18.055   3.823  14.943  0.0694 -0.2404 -0.2261
11329W        W27138   1.783   3.565   1.122  0.3730 -0.2116  0.0152
11330W        W27139   6.359   1.463  13.471  0.3723 -0.0248  0.2197
11331W        W27140  14.786   3.893   5.722  0.0073  0.0323 -0.2748
11332W        W27141  15.338   9.669  12.646 -0.0987  0.4421 -0.1348
11333W        W27142  13.128   4.210   2.089 -0.1078 -0.1778  0.0643
11334W        W27143   4.980   9.702   1.140  0.1993  0.0150  0.0798
11335W        W27144   7.170   0.173  15.366 -0.0886 -0.6062  0.2164
11336W        W27145  17.698  18.102   0.466 -0.2264  0.1172 -0.2690
11337W        W27146  17.435  11.904   1.140  0.1142  0.0878 -0.0808
11338W        W27147   2.588   5.304  11.846  0.2738 -0.1105 -0.0979
11339W        W27148  12.400  16.702  13.544 -0.0728  0.2131 -0.1552
11340W        W27149   0.243  15.634   0.275  0.2266  0.0902 -0.0079
11341W        W27150   8.395  15.498   2.326  0.0346  0.2682 -0.1912
11342W        W27151  10.889   8.575   4.420  0.3345  0.0770  0.5464
11343W        W27152   9.531   5.475  10.929 -0.1539 -0.2132  0.1665
11344W        W27153   7.932   7.272   2.611  0.1090 -0.0861  0.4465
11345W        W27154   5.020   4.946   0.731 -0.1892 -0.0334  0.0979
11346W        W27155   6.703  15.542   3.459  0.0039 -0.2430 -0.1388
11347W        W27156  17.427   5.091   2.757  0.0383 -0.1260  0.0851
11348W        W27157  14.824   4.373  14.297  0.0539  0.0175  0.4234
11349W        W27158   5.642  16.654   3.527  0.0836  0.2715 -0.0367
11350W        W27159   6.748  18.260  12.485  0.0412 -0.0068 -0.2486
11351W        W27160   6.226   1.453   1.247  0.0930  0.3685  0.1689
11352W        W27161   9.870   5.703  12.157  0.3095 -0.2048 -0.0024
11353W        W27162   4.075   0.029  12.199  0.1916 -0.0228  0.2089
11354W        W27163  12.628  17.582   2.510 -0.0152  0.1002 -0.3541
11355W        W27164   7.379  12.530   1.810 -0.1179  0.1077 -0.0797
11356W        W27165   6.193   8.937   3.699  0.1894  0.0981  0.1832
11357W        W27166   4.322  17.115  12.582  0.1863 -0.1409 -0.0345
11358W        W27167  14.225   2.227  13.642 -0.0333 -0.1119 -0.0168
11359W        W27168  18.390   5.119  12.110  0.1761  0.1000 -0.0118
11360W        W27169   4.548   1.725   0.810 -0.1564 -0.2526  0.1100
11361W        W27170   7.418   3.667  12.324 -0.4583 -0.0628 -0.1411
11362W        W27171  16.694  15.495  12.486 -0.3128 -0.2066 -0.1375
11363W        W27172   2.706   9.793  14.105 -0.0664 -0.0919  0.0742
11364W        W27173  14.036  16.291   4.592 -0.0226 -0.2689  0.0715
11365W        W27174   2.662  10.470  11.217 -0.0135  0.1212  0.3454
11366W        W27175  10.991   3.441   2.409 -0.0278  0.0430  0.1604
11367W        W27176   8.987   6.514  15.103 -0.1474  0.0626  0.0289
11368W        W27177  14.825  12.959  13.284 -0.3589  0.0689  0.2532
11369W        W27178   6.584  13.990  11.392  0.2694 -0.0543  0.0006
11370W        W27179  17.828   3.985   4.679 -0.1655  0.2283  0.0940
11371W        W27180  12.051   4.057   5.550  0.1115 -0.0763  0.0721
11372W        W27181  17.916   9.376  13.677 -0.5622  0.2898  0.0705
11373W        W27182  17.561   9.125   3.935  0.5372 -0.2717 -0.3241
11374W        W27183   8.066   7.445  11.594  0.0275  0.2402  0.0128
11375W        W27184  17.822  11.495   2.896  0.0342  0.0696 -0.1421
11376W        W27185   1.994  17.666  11.884  0.1400 -0.1047  0.3201
11377W        W27186   2.734  12.679   2.247 -0.2141 -0.1921 -0.2623
11378W        W27187  11.007   5.064   1.442  0.1744 -0.3959  0.1235
11379W        W27188  12.222  10.373  15.169  0.1194 -0.2330  0.1051
11380W        W27189   4.097  17.377   3.989 -0.0322  0.0155 -0.0128
11381W        W27190   8.891   5.821   4.669 -0.1719 -0.1040  0.2804
11382W        W27191   5.141   1.967   2.029 -0.1514 -0.0085 -0.4891
11383W        W27192  11.876   9.088  11.778 -0.0610  0.0041 -0.1152
11384W        W27193   8.315   5.475   2.686 -0.1143  0.1335 -0.0909
11385W        W27194  14.734   6.177   3.375 -0.1531 -0.2057  0.4186
11386W        W27195  10.727   2.822  14.081 -0.3012  0.0299  0.1681
11387W        W27196  17.252   0.011   0.859 -0.1999  0.0416  0.2750
11388W        W27197  17.410   7.997   0.054  0.1245  0.0265 -0.0881
11389W        W27198  13.032  10.994   5.803 -0.0489 -0.3008 -0.0786
11390W        W27199  15.450   5.858  10.867  0.1221 -0.0147  0.1982
11391W        W27200  18.672   9.862   4.409  0.1277  0.0030 -0.1720
11392W        W27201  15.476   4.320   1.607 -0.2049 -0.0436  0.0915
11393W        W27202   4.462  10.587   1.153  0.1591 -0.0134 -0.1599
11394W        W27203  16.388   7.749   2.742  0.2462  0.0756  0.3185
11395W        W27204   9.608  16.613  10.613 -0.1223  0.0114  0.0707
11396W        W27205  10.156   5.029  11.077 -0.0904  0.0943  0.1599
11397W        W27206   2.397   8.012  13.207  0.1441 -0.1207  0.0204
11398W        W27207   3.832  15.027  13.656 -0.1228 -0.0805  0.0909
11399W        W27208  15.508  15.964  14.570 -0.1660  0.0402 -0.1909
11400W        W27209  11.720   0.368   0.295  0.0074 -0.1650 -0.0502
11401W        W27210  13.810   5.813  14.395  0.3075 -0.2435  0.0185
11402W        W27211  13.115   5.731   5.597  0.1855  0.0616  0.0140
11403W        W27212  14.123  14.284   0.795  0.0411  0.0215 -0.1326
11404W        W27213  18.213   8.589  15.198  0.2503  0.1440 -0.1651
11405W        W27214  14.962  17.703   1.237 -0.1942 -0.1143  0.2259
11406W        W27215   2.854   1.272  11.691 -0.1130 -0.0391 -0.1016
11407W        W27216   6.478   2.328  13.211 -0.0884  0.0194 -0.1092
11408W        W27217  11.066   1.083  13.399 -0.1739 -0.0094  0.0142
11409W        W27218   9.779  16.034  13.816  0.0793  0.0445 -0.2759
11410W        W27219   7.464   8.076  13.246  0.1670 -0.2812 -0.3072
11411W        W27220   7.718  10.101   2.207  0.0230 -0.1917 -0.1395
11412W        W27221  15.079   0.791  12.201  0.1025  0.1437  0.0315
11413W        W27222   8.539   5.122   6.003  0.1204  0.1161 -0.1092
11414W        W27223   0.683   8.258   3.222 -0.0446  0.1104  0.0473
11415W        W27224   7.243  12.530  13.037  0.0260 -0.0599  0.5129
11416W        W27225   3.817  16.662  14.805  0.1575 -0.2662 -0.0099
11417W        W27226   9.569   9.628   3.153  0.1862  0.2687 -0.2404
11418W        W27227   0.051   7.693   0.283  0.3663  0.0809 -0.0357
11419W        W27228   4.901  16.176   3.353 -0.0900 -0.2265  0.1587
11420W        W27229   0.897  16.678  12.635 -0.3669  0.1650  0.3044
11421W        W27230   7.738  10.629  11.798  0.0200 -0.1734 -0.0710
11422W        W27231   2.598  11.656   0.682  0.1936  0.2222  0.1521
11423W        W27232   0.910   1.344   1.204 -0.1626  0.0448 -0.2900
11424W        W27233   1.217  15.216  13.764  0.1112  0.2240 -0.1602
11425W        W27234  18.602  16.104   0.823 -0.2468  0.4067  0.1617
11426W        W27235   7.843   4.675   1.400  0.1999  0.3050  0.0716
11427W        W27236   7.256  14.790  12.015 -0.0435  0.3141  0.0461
11428W        W27237   7.175  12.549   2.939  0.1043  0.0670  0.1261
11429W        W27238  16.929   0.162   2.596  0.2499  0.1170 -0.0321
11430W        W27239   4.555   5.766  13.860 -0.1837 -0.0831  0.1145
11431W        W27240  17.086  11.617  14.523  0.1607 -0.1393 -0.0463
11432W        W27241   8.853  17.874  13.837 -0.2681 -0.1692 -0.1812
11433W        W27242   6.323  13.408   3.661 -0.1319 -0.0123 -0.1095
11434W        W27243   1.841  13.549   2.647 -0.0450 -0.0398  0.3078
11435W        W27244  12.191  12.382   2.827 -0.2932  0.2177  0.0173
11436W        W27245   0.928   3.405   5.609 -0.1659  0.1052  0.0669
11437W        W27246   4.554   3.575   1.248  0.2606  0.1074 -0.0161
11438W        W27247  13.634  16.542  12.052 -0.2025 -0.3432 -0.3409
11439W        W27248   8.625  16.647   0.007 -0.3463  0.0891  0.0419
11440W        W27249  17.227   8.424   2.777 -0.4228 -0.0758  0.1414
11441W        W27250   2.431  14.097   0.664 -0.0343 -0.2743  0.0169
11442W        W27251   8.155  13.106  15.210 -0.1201  0.3374 -0.2340
11443W        W27252  18.642   4.976   4.517 -0.1554 -0.1969 -0.3260
11444W        W27253   7.665  14.571  14.852  0.0776 -0.1146 -0.0696
11445W        W27254   4.759  10.539  11.587  0.0216  0.2656  0.0450
11446W        W27255   3.014  12.489   9.605  0.4509 -0.0546  0.1388
11447W        W27256  10.258  17.228  14.101 -0.2799  0.1596 -0.0081
11448W        W27257  15.367  16.535  13.678 -0.0011  0.2609 -0.2424
11449W        W27258  16.838  12.440  11.599 -0.0518  0.2603 -0.0428
11450W        W27259   2.060  16.147  10.653  0.3119  0.2622  0.1002
11451W        W27260   6.012  13.635  13.509  0.1483  0.0800 -0.0160
11452W        W27261   2.583   1.763  10.067  0.2803 -0.1352  0.0315
11453W        W27262  10.741  16.860   2.696 -0.1268 -0.1792 -0.1002
11454W        W27263   2.400  10.922   4.171  0.0252 -0.1798  0.2130
11455W        W27264   3.672   3.979   3.041  0.0143 -0.2269 -0.1313
11456W        W27265  14.205  11.689  12.718  0.0403 -0.2128 -0.0367
11457W        W27266   4.753   8.821   3.464  0.3643  0.2423  0.1231
11458W        W27267   0.255   9.952  11.112  0.0354 -0.0649  0.2827
11459W        W27268  16.332  12.398   3.963 -0.0790  0.1011 -0.1237
11460W        W27269  17.786  15.119   2.189  0.0337 -0.1770  0.1537
11461W        W27270  11.054   2.408   1.806  0.3404  0.0845  0.3510
11462W        W27271  13.596  12.607  12.402 -0.1077  0.2188 -0.2029
11463W        W27272  14.567   7.884  12.158 -0.1671 -0.2817  0.0898
11464W        W27273   3.938  18.379   1.409 -0.1351 -0.4659  0.1024
11465W        W27274  12.520  11.105  12.888  0.1411 -0.1694 -0.1078
11466W        W27275  10.392  11.958   2.199  0.3325  0.1086  0.3523
11467W        W27276  15.335  11.940  11.668  0.0831  0.1042 -0.1496
11468W        W27277  14.888  18.758   4.148  0.3405  0.0806  0.0594
11469W        W27278   5.917   2.981   1.449  0.3771  0.0371 -0.0750
11470W        W27279   0.599   7.066   2.858 -0.2506 -0.3463  0.3262
11471W        W27280   6.016  10.205   2.602 -0.2501  0.2603  0.1675
11472W        W27281   5.437   6.188   3.954  0.0147  0.0771  0.2267
11473W        W27282   6.911   0.578  13.991  0.1350  0.0236 -0.4087
11474W        W27283   9.627  17.928   2.860 -0.1330  0.3293 -0.0112
11475W        W27284  10.611  13.182   3.071 -0.3021 -0.3174 -0.1191
11476W        W27285  16.513  14.651   5.187  0.0007  0.1233 -0.3087
11477W        W27286  15.404   9.400   0.569  0.1139  0.0208  0.3827
11478W        W27287   9.861  12.410   5.154  0.0761  0.2309 -0.2407
11479W        W27288   6.044  18.283   0.406 -0.0843  0.0263 -0.1596
11480W        W27289  17.064   4.913   1.663 -0.3817  0.2978 -0.2286
11481W        W27290  10.228  10.923  13.646 -0.1869 -0.0865 -0.0759
11482W        W27291  11.591  10.445   2.085 -0.1128  0.2375 -0.0406
11483W        W27292  15.843  15.364   5.547 -0.0778  0.0409  0.0231
11484W        W27293  14.499  17.895  10.349  0.2822  0.1244 -0.0120
11485W        W27294   2.658  14.887  11.220  0.1914 -0.0231 -0.0225
11486W        W27295  14.466   3.975   2.625  0.2088  0.1884  0.0237
11487W        W27296   9.133   4.120  11.995 -0.2415  0.0395 -0.4926
11488W        W27297   4.802   1.616   0.352  0.4515 -0.2321 -0.2002
11489W        W27298  12.458  12.478   4.931 -0.0193 -0.0659 -0.2811
11490W        W27299  10.156   3.021  15.409  0.0972 -0.0903 -0.0432
11491W        W27300  17.318   6.658   9.789 -0.1096  0.1773 -0.3755
11492W        W27301   8.276  14.109   1.874 -0.1717 -0.1115  0.1057
11493W        W27302   7.466  13.718  12.733 -0.0252 -0.2631 -0.2562
11494W        W27303   9.712   9.495   0.609 -0.2096 -0.1159  0.0235
11495W        W27304  18.701   6.755   3.557 -0.2728  0.1103 -0.3232
11496W        W27305   7.761  16.765  10.999 -0.1626  0.0300 -0.0805
11497W        W27306  12.629  16.871  14.304 -0.3501 -0.1100  0.2880
11498W        W27307   0.540  18.611  14.704  0.0310 -0.3143 -0.0725
11499W        W27308   7.107  17.989  14.485  0.2531  0.0432  0.1145
11500W        W27309   2.467   7.081   0.906  0.4534  0.0557 -0.1898
11501W        W27310  17.020  13.413  13.333  0.1205 -0.1866  0.0201
11502W        W27311   4.065  14.434   0.396  0.2848 -0.4285  0.0263
11503W        W27312  16.589   3.650  12.184 -0.0773  0.4266 -0.0041
11504W        W27313  11.673   9.514  13.748  0.1563  0.0326 -0.2305
11505W        W27314   4.855  15.527   4.535 -0.2208  0.0269  0.3919
11506W        W27315   9.691   0.999  10.931  0.2711  0.0441 -0.2128
11507W        W27316  18.682   8.184   1.193 -0.0118 -0.3547  0.1531
11508W        W27317  15.029   6.731  12.681  0.0724 -0.1886 -0.3845
11509W        W27318  12.234  13.595   1.737 -0.0704  0.1390  0.0167
11510W        W27319  16.117   2.739   0.008  0.0317  0.0439 -0.2074
11511W        W27320   5.860   7.857   2.074  0.0554 -0.1550  0.4655
11512W        W27321   2.252  16.372   0.094  0.0369 -0.0990  0.2062
11513W        W27322  12.700  12.733   3.853 -0.1758  0.0256  0.1772
11514W        W27323   0.269   1.690  11.458  0.3040 -0.1053 -0.0667
11515W        W27324   9.108   0.453   4.749 -0.3548 -0.2992  0.3110
11516W        W27325  10.256   4.200   2.518  0.2331 -0.0178 -0.0556
11517W        W27326  18.440  17.879   4.838  0.1600  0.1490 -0.1901
11518W        W27327  16.905  13.257  14.776  0.4434 -0.3006  0.1182
11519W        W27328  17.120   8.491   1.237 -0.3794  0.1545  0.0268
11520W        W27329   2.332  13.866   1.523 -0.0791  0.4401 -0.0546
11521W        W27330  17.250   7.664  10.314 -0.2643  0.0508  0.0754
11522W        W27331   8.573  17.259  11.368  0.2623  0.0910 -0.1834
11523W        W27332  16.334   5.494  11.861 -0.2245  0.1161  0.1358
11524W        W27333   0.700   5.906   5.345 -0.2507  0.0165 -0.1657
11525W        W27334  10.450  15.643   0.845  0.2436 -0.0900  0.1597
11526W        W27335  17.269  15.344  15.010 -0.1318 -0.1260  0.2480
11527W        W27336   1.066  10.759  14.469 -0.0041 -0.3239 -0.1029
11528W        W27337  17.637  13.334  15.220  0.0517  0.0178  0.1142
11529W        W27338   4.303   8.717  13.022  0.0669 -0.2854  0.3253
11530W        W27339  14.648  15.486  13.203 -0.2288  0.0510  0.5107
11531W        W27340   9.832   9.465  12.310 -0.2179 -0.1065  0.2010
11532W        W27341   0.228   4.094   2.699  0.1122  0.1589  0.0769
11533W        W27342   4.733  12.408  15.478 -0.0500 -0.5362  0.1067
11534W        W27343   1.228   1.357  13.145 -0.1644 -0.0690  0.0253
11535W        W27344   5.171   3.734  12.970 -0.0338 -0.3538 -0.1132
11536W        W27345   2.707   2.033   9.693  0.0572 -0.2004  0.5206
11537W        W27346  12.472  12.350  13.424  0.0215 -0.0504 -0.6694
11538W        W27347  11.853   5.486  14.013 -0.1860 -0.0401  0.2495
11539W        W27348  11.760   0.721   4.186 -0.2072  0.2421  0.1272
11540W        W27349  16.611  17.915  13.861 -0.0772 -0.2100 -0.0263
11541W        W27350  11.052   5.935   0.263 -0.0260  0.2316 -0.1181
11542W        W27351   4.697   2.382   2.915 -0.0451 -0.1359 -0.5916
11543W        W27352  16.103  12.493  12.035  0.1998 -0.1866 -0.1982
11544W        W27353   3.813  15.953   5.287 -0.4067  0.3815  0.0873
11545W        W27354  18.230  10.366   0.547 -0.1989 -0.1654  0.2037
11546W        W27355   5.913  10.321   1.852 -0.2624 -0.0541  0.0979
11547W        W27356   7.871  11.974   1.506 -0.0754  0.0568  0.2031
11548W        W27357   5.387  18.359   3.646  0.0728 -0.0944 -0.2018
11549W        W27358   8.260   5.890  11.279  0.0437  0.1243  0.0678
11550W        W27359  17.699   4.013  14.519 -0.3289  0.1131  0.4880
11551W        W27360   1.600   5.997   1.064  0.3218  0.0807  0.1386
11552W        W27361  16.685   4.047   2.609  0.0784  0.0116  0.0014
11553W        W27362   5.924   1.222   0.869 -0.0615  0.0443 -0.6350
11554W        W27363  10.612   6.160   1.163  0.2759 -0.4276 -0.2201
11555W        W27364   4.180   6.300   2.074  0.2807  0.1687  0.1666
11556W        W27365   1.734   9.056  12.428 -0.1341  0.3782 -0.3726
11557W        W27366  11.672  16.343  12.030 -0.0761 -0.1832  0.4215
11558W        W27367  14.020   9.066  14.734 -0.1584 -0.0019  0.1436
11559W        W27368   7.410   0.344   0.861 -0.2698 -0.0232  0.0782
11560W        W27369  12.960   9.966   1.598 -0.0047  0.0029  0.1439
11561W        W27370   0.138   2.933  14.852  0.1216 -0.1137 -0.1873
11562W        W27371  13.404  11.409  12.980  0.0962 -0.0613 -0.0986
11563W        W27372   9.576  13.813   0.036  0.2191 -0.0346  0.1125
11564W        W27373  10.272  11.834   4.669 -0.0061  0.1465 -0.0485
11565W        W27374  14.943   6.593   3.787  0.0144  0.2239 -0.1052
11566W        W27375  10.548  11.655   1.148 -0.0530  0.0647  0.1069
11567W        W27376   6.759  12.953   1.366  0.1512 -0.0214  0.0243
11568W        W27377   0.718  10.131   5.507  0.2754  0.1156  0.0667
11569W        W27378  16.685  12.850   4.638  0.2498  0.0164  0.0908
11570W        W27379   8.267   9.453   0.123  0.0251 -0.0750 -0.3363
11571W        W27380  18.228   7.730  15.132 -0.1530  0.1706  0.0129
11572W        W27381   8.169   3.754   3.189 -0.0408 -0.1865 -0.2090
11573W        W27382  12.756  17.751  12.122  0.0513  0.3723 -0.1044
11574W        W27383   6.028   8.248  14.205 -0.1859  0.1389 -0.0834
11575W        W27384  12.765  11.364  10.720 -0.1797  0.2622 -0.1676
11576W        W27385   5.781   7.300  13.028 -0.2899 -0.0154 -0.0759
11577W        W27386  10.354   0.031  14.093  0.1949 -0.0946 -0.0029
11578W        W27387   9.121   8.773  12.026  0.0196 -0.2841  0.0893
11579W        W27388   6.752  10.307   4.245 -0.0058 -0.0523 -0.0536
11580W        W27389   3.633  16.610  10.901  0.1152  0.2300  0.2100
11581W        W27390   7.015  18.283  11.955  0.4814  0.0813  0.2286
11582W        W27391   0.487   1.357  10.236 -0.1364 -0.0001 -0.1733
11583W        W27392   0.464   5.931  13.602 -0.1886 -0.2893  0.0162
11584W        W27393   6.456   3.722  13.241 -0.0853 -0.2990  0.1070
11585W        W27394   1.726  11.372  13.501  0.0817 -0.3060  0.0382
11586W        W27395  14.603  11.264   3.735  0.0803  0.2962 -0.4649
11587W        W27396  12.008   5.312   4.648 -0.1146 -0.3365  0.1276
11588W        W27397  18.299  12.319   2.406 -0.1484 -0.0250 -0.2713
11589W        W27398  11.279  11.662  13.640  0.2409 -0.0300  0.1270
11590W        W27399  10.066   2.090  12.929  0.0936  0.2891 -0.0856
11591W        W27400  13.681   5.038   1.601  0.1133 -0.0177 -0.0395
11592W        W27401   5.005   1.844   4.365  0.0272 -0.0517  0.0135
11593W        W27402  13.955  14.579  10.784  0.2790 -0.1292  0.0486
11594W        W27403  13.551  12.423   4.847  0.0975 -0.0918 -0.1470
11595W        W27404  13.316   5.466   1.411  0.2936  0.0969 -0.1477
11596W        W27405   8.287  15.557  14.111 -0.1226 -0.0861  0.3345
11597W        W27406  16.382  16.844   3.516  0.1655  0.0848 -0.0035
11598W        W27407   8.259  13.686   4.205 -0.0375 -0.0320  0.2879
11599W        W27408   4.119  12.688   0.870 -0.0127 -0.0815 -0.1006
11600W        W27409  16.726   7.617   5.155 -0.1550  0.4042 -0.2953
11601W        W27410   6.297   1.792  13.958  0.1906  0.1563 -0.1999
11602W        W27411   3.518  10.865   2.819 -0.1800 -0.2614 -0.1799
11603W        W27412   6.568   4.741  15.297  0.3189 -0.1293 -0.0835
11604W        W27413   8.725   7.386   2.900  0.1943  0.0549  0.1123
11605W        W27414   8.124  17.626   1.526 -0.2701 -0.0350  0.3493
11606W        W27415  13.723   0.455   2.777 -0.1176 -0.2496  0.5562
11607W        W27416  15.984  17.765  12.570  0.3980 -0.0991  0.0776
11608W        W27417   0.258  13.375  12.037 -0.2681  0.3060 -0.0803
11609W        W27418   1.373   4.337   0.511 -0.1361  0.0065 -0.1758
11610W        W27419   8.447   9.845  12.670  0.3259  0.2162 -0.2537
11611W        W27420   9.273   6.281   1.034  0.0269  0.0834 -0.0057
11612W        W27421  14.067  14.662   3.799 -0.1927  0.2300  0.5145
11613W        W27422   6.800   6.000   1.715 -0.1552 -0.2101 -0.3623
11614W        W27423  17.601  13.197   4.222 -0.1758  0.1270 -0.2165
11615W        W27424   8.981   5.958  14.267 -0.0168 -0.1436 -0.0646
11616W        W27425  17.697  12.087   3.896 -0.2603  0.0169 -0.0498
11617W        W27426  12.323  11.767  12.578 -0.1088 -0.1664  0.0443
11618W        W27427  10.908   4.875   4.703 -0.1359  0.1681 -0.0704
11619W        W27428   9.959   5.060  13.722  0.2664 -0.1863  0.5010
11620W        W27429   2.906   6.252  11.235 -0.1670  0.1349  0.1307
11621W        W27430  11.788   5.111  13.704 -0.1479 -0.2254  0.2773
11622W        W27431   5.256  10.051   5.518  0.0641  0.1700  0.0943
11623W        W27432  18.063   9.455   0.711 -0.2806 -0.2455 -0.1884
11624W        W27433  15.708  12.651   0.152 -0.1706  0.1633  0.2730
11625W        W27434  16.013   3.592  12.300 -0.0223 -0.0104 -0.0179
11626W        W27435  17.838   0.465   3.201  0.0729 -0.1278  0.1735
11627W        W27436   0.974  13.664   4.935 -0.0135 -0.1135 -0.2498
11628W        W27437  11.504   9.520  14.948  0.2814 -0.0834  0.1562
11629W        W27438   8.466  10.789  15.144 -0.3359 -0.0977 -0.2455
11630W        W27439   1.773  14.008   4.387 -0.1711 -0.1838  0.0554
11631W        W27440   9.735   9.050   3.197  0.6143  0.2105 -0.1268
11632W        W27441  17.154   8.619  11.140 -0.2036  0.0934  0.2542
11633W        W27442  11.021  16.571  10.133  0.1770 -0.1204  0.2016
11634W        W27443  18.227   1.182   1.159  0.0500  0.0687 -0.0892
11635W        W27444   7.706   3.936   0.135  0.1439  0.1662 -0.0859
11636W        W27445   2.613   0.092  10.801  0.0789  0.3205 -0.0658
11637W        W27446   0.629  12.851  11.575  0.0557 -0.0666  0.3223
11638W        W27447   4.209  14.598   2.396 -0.2222 -0.0997  0.3299
11639W        W27448   6.269  16.433  12.977  0.1301 -0.0583  0.0700
11640W        W27449   1.643   2.715   2.347 -0.0271 -0.1183  0.1025
11641W        W27450   7.787  11.018  13.825 -0.1065 -0.2611 -0.0906
11642W        W27451   2.498  15.266  11.467 -0.1606  0.1134  0.2842
11643W        W27452  17.253  12.122  12.949  0.2749 -0.0131  0.0653
11644W        W27453   5.006  13.214   0.097 -0.0694  0.1900  0.0555
11645W        W27454   5.941  11.722  12.770  0.1369  0.1714  0.1602
11646W        W27455   9.572  16.987  10.974  0.0904  0.1559 -0.0078
11647W        W27456   3.745  11.266   3.581 -0.1579  0.4572  0.2649
11648W        W27457  12.112  10.493  13.560 -0.1470 -0.0019  0.2201
11649W        W27458   6.500   4.442  10.904  0.1787 -0.0682  0.0037
11650W        W27459  11.864   7.697  12.375 -0.1124  0.1350  0.0223
11651W        W27460   4.553   7.519  13.934 -0.0733 -0.2139 -0.0387
11652W        W27461  16.981   6.269  11.270  0.1205 -0.2997  0.1353
11653W        W27462   5.659  10.911  13.629 -0.0879 -0.1489  0.0274
11654W        W27463   8.651   8.830   0.603  0.0485 -0.2462 -0.1097
11655W        W27464  15.274  12.806  13.421  0.0936 -0.0581  0.1462
11656W        W27465  11.387   0.876   4.887 -0.2488 -0.2219 -0.0804
11657W        W27466  10.577   8.016  11.526  0.0160  0.2063  0.2416
11658W        W27467  17.911   5.881  15.426  0.1476 -0.0529  0.2808
11659W        W27468   8.736   1.951   1.667  0.4131 -0.1932 -0.0008
11660W        W27469   3.818   2.352   3.914  0.3091  0.0918 -0.0324
11661W        W27470  16.050   4.537  11.056 -0.0373 -0.0310 -0.1794
11662W        W27471   7.364   0.589   1.833  0.0348  0.0996  0.1685
11663W        W27472   6.105  13.465  12.453  0.0486  0.1633 -0.2051
11664W        W27473  16.345   3.746   2.396  0.0121 -0.2160  0.2831
11665W        W27474   8.432   6.307   2.145 -0.0738 -0.5493  0.1740
11666W        W27475   0.459   9.833  12.456  0.1827 -0.0489  0.2718
11667W        W27476   6.493   9.855  12.614  0.0380 -0.2326 -0.0262
11668W        W27477   3.247   8.627   5.914  0.2005  0.0062 -0.2822
11669W        W27478  10.496   2.569  13.714 -0.0370  0.3158  0.1469
11670W        W27479   0.002  17.764  12.773  0.1007 -0.0916  0.1617
11671W        W27480  15.880   8.881   1.185 -0.0949 -0.0669 -0.1233
11672W        W27481   6.993  14.995  11.122  0.1347  0.0928  0.3370
11673W        W27482  13.364   7.043  12.372 -0.1088 -0.1030 -0.1543
11674W        W27483  18.303   9.629   4.848  0.0403  0.2777  0.4047
11675W        W27484  11.441   0.251   4.469 -0.2449 -0.0647  0.4038
11676W        W27485  17.602   5.126   1.729 -0.0499  0.0017 -0.0512
11677W        W27486  17.232   9.086   2.579 -0.3038  0.0563  0.0302
11678W        W27487   3.910  14.865   0.036 -0.1965 -0.1530  0.0259
11679W        W27488  16.193  15.322  13.427 -0.3108  0.0439  0.2168
11680W        W27489   2.007  12.699  15.323 -0.2504  0.2914 -0.0867
11681W        W27490   8.523   1.179  15.060  0.1674  0.0589 -0.1479
11682W        W27491   6.374   2.483  12.497  0.1473 -0.0578 -0.0854
11683W        W27492  14.569  15.878  14.505 -0.3186 -0.0014  0.0745
11684W        W27493   9.640   7.269   3.596  0.1804 -0.3419 -0.1569
11685W        W27494  15.767  15.751   1.982  0.1080 -0.0642 -0.1426
11686W        W27495  11.973   8.097   3.619 -0.1806 -0.3145  0.1215
11687W        W27496  14.037   5.457  14.703 -0.0426 -0.2017 -0.2209
11688W        W27497  15.445  12.636   2.377  0.0986  0.2012 -0.2217
11689W        W27498   5.794  16.951  11.815  0.2815 -0.1539 -0.2866
11690W        W27499   6.088  12.289   4.161 -0.1217 -0.1226  0.1046
11691W        W27500   5.898   7.256   3.158  0.1398  0.1027 -0.0206
11692W        W27501   0.701  16.094   3.073  0.0584  0.1463  0.2909
11693W        W27502  15.138   8.066   2.489 -0.2108  0.0806 -0.2417
11694W        W27503   7.368   1.663   5.087 -0.1151  0.0095 -0.0413
11695W        W27504  15.589  12.307  12.939 -0.0133 -0.0854 -0.0219
11696W        W27505  13.926   0.844  11.256 -0.4472 -0.2920  0.0006
11697W        W27506   9.883   0.925   5.289 -0.0649  0.3328 -0.1186
11698W        W27507   4.566  14.963   3.280  0.0790  0.0031 -0.2978
11699W        W27508  10.675  16.114  13.636  0.1513 -0.0308  0.1206
11700W        W27509   0.154  14.047   3.059  0.1232 -0.3078 -0.0411
11701W        W27510   6.132  18.073  11.624  0.0577  0.0952  0.0558
11702W        W27511   4.864   3.550   0.886 -0.2036  0.2353  0.0234
11703W        W27512   9.046  11.793  11.380  0.1570  0.0255  0.0479
11704W        W27513   2.130  11.959   0.417  0.0534  0.1583 -0.2379
11705W        W27514   5.377  12.965   2.242  0.1354 -0.2206  0.1332
11706W        W27515  13.900  17.946   0.570 -0.0417  0.1150  0.1131
11707W        W27516  12.916  14.058   5.441  0.0720 -0.1003 -0.0395
11708W        W27517   4.971   9.398   2.237 -0.1029  0.2427  0.1025
11709W        W27518   4.886  15.830  10.256 -0.1494  0.3434 -0.0735
11710W        W27519  14.157  12.784   0.335  0.2118  0.0091  0.0726
11711W        W27520   6.043   2.368   3.529  0.4606 -0.3530 -0.0873
11712W        W27521   7.598  11.272  12.314  0.2446 -0.1076  0.1539
11713W        W27522   4.564  13.196   3.027  0.3733 -0.4216  0.1434
11714W        W27523  18.331  17.922   2.073  0.2053 -0.3874 -0.1205
11715W        W27524  15.124  12.254   1.966  0.0045 -0.0573 -0.1073
11716W        W27525   0.256  14.138  11.329  0.0554 -0.0141  0.0461
11717W        W27526   2.827   1.339  14.745  0.3309 -0.0038 -0.1494
11718W        W27527  10.958   8.444  15.492 -0.0462  0.2520  0.0646
11719W        W27528   0.113  18.105  10.339  0.2033 -0.2207  0.3443
11720W        W27529   7.037   8.632  15.363  0.3801  0.0789  0.1025
11721W        W27530   8.874  10.353  12.183  0.1776  0.1511 -0.0586
11722W        W27531   8.963   7.971  12.475  0.5410 -0.2002 -0.0443
11723W        W27532  15.451  17.870   5.253 -0.0709 -0.0899 -0.0273
11724W        W27533  13.403   1.557  11.697  0.1308  0.0171  0.1443
11725W        W27534   4.738   4.575   1.180  0.5007 -0.3858  0.0373
11726W        W27535   9.122  17.403  12.275  0.0500 -0.5291  0.0820
11727W        W27536   4.237   8.767  10.909  0.0402  0.1343 -0.0764
11728W        W27537   8.717  15.006  14.589  0.2056 -0.1158  0.0265
11729W        W27538   3.499  15.746   3.790 -0.1443  0.1076  0.4468
11730W        W27539  11.524  11.665   2.836  0.1744  0.2731  0.0137
11731W        W27540  10.272  11.275  12.061 -0.0927  0.2610  0.0581
11732W        W27541  14.818   9.893   2.961 -0.0345  0.2803  0.1083
11733W        W27542  15.099   7.278   0.831  0.2969  0.2830 -0.0128
11734W        W27543  10.000   1.983   3.083  0.1378  0.1753 -0.0557
11735W        W27544   5.850  14.872   4.148  0.0635 -0.2164  0.0725
11736W        W27545   4.404  17.903  10.858  0.0486 -0.1980  0.0317
11737W        W27546   5.915  12.613  15.395  0.0029 -0.4378 -0.0161
11738W        W27547   4.960   4.060   2.304  0.1478  0.0299 -0.0116
11739W        W27548   0.526   0.103  11.035 -0.0949 -0.1860  0.5027
11740W        W27549  12.213   2.902   2.891  0.2605  0.1525 -0.0183
11741W        W27550   6.026  13.471   0.244 -0.0188  0.0880  0.3891
11742W        W27551   8.458  13.609  15.141 -0.0535  0.0562  0.2251
11743W        W27552   9.216   9.677  10.575  0.2454  0.1944  0.1042
11744W        W27553  12.838  14.370  14.366  0.1452 -0.3047 -0.0437
11745W        W27554  10.969   3.391   1.268  0.0885 -0.1230 -0.0796
11746W        W27555   0.425  15.960  15.509  0.1507  0.0975 -0.1030
11747W        W27556  14.444  17.914  12.695 -0.2010  0.3626  0.2574
11748W        W27557   2.563  17.328  12.641  0.0775 -0.2965 -0.0787
11749W        W27558  15.767   3.781   3.103  0.2677 -0.1961 -0.1635
11750W        W27559  18.740  11.146  14.360 -0.3410  0.2705  0.1908
11751W        W27560  18.318   0.194  11.979  0.1872  0.1082 -0.0416
11752W        W27561   9.614   2.097  11.873  0.1178 -0.1583 -0.0132
11753W        W27562   4.745  10.381  13.522  0.2551  0.2774 -0.0678
11754W        W27563   8.244   2.670  10.680 -0.1672  0.1720 -0.0919
11755W        W27564   1.001   7.068   1.606 -0.0934 -0.3606 -0.0505
11756W        W27565   6.702  13.064  14.646  0.1448  0.1120  0.2115
11757W        W27566   8.264   2.853  12.629 -0.1703 -0.3068  0.1350
11758W        W27567  17.107  11.312  10.734 -0.2681  0.0917 -0.3416
11759W        W27568  12.518   6.717   2.361  0.0791  0.1908  0.2126
11760W        W27569   6.169  15.928  12.473  0.0868 -0.0368  0.0121
11761W        W27570   7.735  13.008   4.279 -0.0394  0.1906  0.1133
11762W        W27571  14.302  15.059  10.758 -0.5201  0.4242 -0.1583
11763W        W27572   7.441  16.116  13.543 -0.0522  0.7112 -0.4000
11764W        W27573   8.226  18.154   1.430  0.1116  0.0916  0.0987
11765W        W27574   5.661   5.907   4.247  0.2885  0.2188 -0.0533
11766W        W27575  13.253  16.509  14.427 -0.3309 -0.0450  0.4097
11767W        W27576   8.509   9.603  11.102  0.0299 -0.0537 -0.0956
11768W        W27577   5.629   5.907   2.679  0.0239 -0.2160 -0.3111
11769W        W27578   9.771   3.465   4.572  0.2444  0.1833 -0.2991
11770W        W27579   3.640   9.212   0.813  0.4202  0.0137 -0.2458
11771W        W27580   3.444   6.304  12.532 -0.0256  0.3906  0.1287
11772W        W27581  16.556  10.864   2.668  0.4266 -0.0097 -0.1669
11773W        W27582  14.238   4.114   0.935  0.0608 -0.0444  0.2626
11774W        W27583   4.619   2.163  14.796  0.4945  0.0027 -0.0316
11775W        W27584  12.326  16.568   1.742  0.3622  0.1856  0.2136
11776W        W27585   2.940  13.557  14.378  0.0704  0.0539 -0.0587
11777W        W27586   4.357   7.258   2.885 -0.3020 -0.3103  0.4584
11778W        W27587   1.698  14.397  14.056  0.0273 -0.1561  0.0132
11779W        W27588  13.495   4.415  13.968 -0.1545 -0.1664 -0.1251
11780W        W27589   0.984  10.758   1.333 -0.1963  0.0811 -0.1098
11781W        W27590   9.300  17.369   0.047 -0.0606 -0.3029 -0.0785
11782W        W27591   3.212  14.671   2.227 -0.4979  0.0924  0.3675
11783W        W27592   2.488   2.643   3.573 -0.3713 -0.2858  0.0271
11784W        W27593   9.621  13.957   1.768 -0.3419 -0.1041 -0.1010
11785W        W27594  14.766   5.782  14.186 -0.0961  0.3145  0.0574
11786W        W27595  17.178   0.066   9.699 -0.0566  0.1196  0.0949
11787W        W27596  13.956  12.742  12.731 -0.2870 -0.2007 -0.0451
11788W        W27597  14.480  13.530  14.872  0.0964 -0.0806  0.3312
11789W        W27598  15.813   7.805   3.631 -0.0377  0.4151  0.2290
11790W        W27599  18.595  13.667  12.752 -0.3377 -0.0149 -0.3045
11791W        W27600   6.781  17.746   4.280  0.0176 -0.2753  0.2674
11792W        W27601   6.397   9.621   2.877  0.1737  0.3396 -0.3168
11793W        W27602  18.069   0.606   4.890  0.0245 -0.1044  0.2954
11794W        W27603  15.013   0.512   1.442 -0.1445  0.1138  0.1299
11795W        W27604  18.094   0.123  14.337 -0.2052 -0.0643 -0.3438
11796W        W27605  16.036   7.732   0.049 -0.2234  0.0263  0.0458
11797W        W27606  14.153   8.065  12.904  0.1458  0.1487  0.3341
11798W        W27607   8.161   3.883   2.056  0.1781  0.0636 -0.0100
11799W        W27608  15.471  13.072   1.341 -0.1351 -0.0579 -0.2946
11800W        W27609  15.434  15.398  15.210 -0.0688 -0.1173 -0.1529
11801W        W27610   6.824  10.747   5.188 -0.1962 -0.0286 -0.1766
11802W        W27611   4.291   2.190   0.015  0.0547 -0.0503 -0.2569
11803W        W27612   8.748   0.584  12.900 -0.3711  0.1206  0.1304
11804W        W27613   4.495   0.811   3.807 -0.1072 -0.3995  0.2672
11805W        W27614   9.565  15.689   1.532  0.0301  0.0391  0.4035
11806W        W27615  17.449  12.905  14.919 -0.2271  0.0245  0.2215
11807W        W27616  13.062  11.068   3.449 -0.1988  0.2391 -0.1140
11808W        W27617   3.734  12.019  13.579  0.3135  0.2389  0.0570
11809W        W27618   9.411  12.088   3.161  0.2864 -0.0627 -0.0747
11810W        W27619  10.321   4.864   3.180 -0.1015  0.6397 -0.0712
11811W        W27620   0.944  13.297  12.411 -0.3932  0.2519 -0.1088
11812W        W27621  15.572   6.682  14.661 -0.0652 -0.2465  0.0977
11813W        W27622  14.020  13.918  15.079 -0.0486  0.3129 -0.4336
11814W        W27623   0.481   1.598  10.666  0.0760 -0.1497  0.0517
11815W        W27624  13.951  11.818   4.247 -0.0972  0.3040  0.1067
11816W        W27625   3.771   4.569  11.309 -0.1023 -0.0566  0.1351
11817W        W27626  17.343  10.459   1.850  0.1228 -0.2734  0.0862
11818W        W27627   4.312   8.629   3.615  0.3296  0.3970  0.2744
11819W        W27628   0.491   6.936   9.625  0.0379 -0.1221  0.0890
11820W        W27629   1.270   7.696  12.732 -0.0747  0.0914  0.2941
11821W        W27630  10.673   7.543   4.461 -0.2947  0.0968  0.0661
11822W        W27631  13.034   3.028  14.125 -0.2739  0.1273 -0.2772
11823W        W27632   7.757  15.086  13.462 -0.1718 -0.1328 -0.1784
11824W        W27633  16.838   2.298   1.969  0.2854 -0.1682 -0.0071
11825W        W27634  17.094  17.235  12.876  0.1318  0.0433  0.4577
11826W        W27635   8.073   3.331   0.451  0.2538  0.0069 -0.0232
11827W        W27636  16.423  10.943   4.975 -0.1098  0.1377  0.0622
11828W        W27637   8.317   0.161  14.692  0.1923 -0.2977  0.0183
11829W        W27638   6.374  12.944  10.611  0.4427  0.0116  0.1581
11830W        W27639  14.393  14.499   1.814 -0.2846 -0.1520 -0.2785
11831W        W27640  13.596  11.405   1.656 -0.2614 -0.1936 -0.0764
11832W        W27641   8.278  17.919   1.882 -0.0903  0.0884 -0.2308
11833W        W27642  14.964  11.881   4.299  0.1885 -0.0019 -0.0554
11834W        W27643  11.538  15.717   0.401  0.0711  0.1984  0.2731
11835W        W27644  11.697   0.579  14.803  0.0061 -0.2433  0.1065
11836W        W27645   7.102   0.609   0.500  0.0279  0.2970  0.1128
11837W        W27646  17.838  15.036  11.657 -0.0463  0.2169  0.2402
11838W        W27647   6.463   9.327   0.373 -0.1087 -0.2195 -0.0877
11839W        W27648   2.583   5.611  11.416 -0.1614  0.1229  0.1148
11840W        W27649   8.196   8.268  10.763 -0.0218  0.1079  0.0879
11841W        W27650   6.473  18.215   2.588  0.1366 -0.2299  0.0831
11842W        W27651   3.625  10.625  15.343 -0.1975  0.3461  0.0696
11843W        W27652  11.721   6.529   3.429 -0.4234 -0.1512  0.2884
11844W        W27653   0.938   3.468   0.675 -0.2467 -0.1817  0.1084
11845W        W27654   0.597  12.494  12.542  0.0287 -0.2077 -0.1471
11846W        W27655   4.972   5.393   2.416  0.0191  0.2668 -0.4097
11847W        W27656   4.854   2.690  11.229  0.2160  0.2645  0.1042
11848W        W27657  10.111  13.228   0.501 -0.1713 -0.0283  0.1134
11849W        W27658   2.338   4.160  11.413  0.0514 -0.1435 -0.3539
11850W        W27659  14.090   8.791   4.836  0.1529 -0.1199 -0.1500
11851W        W27660  12.147  11.834  13.958  0.0043 -0.2316 -0.0856
11852W        W27661  12.380   4.458   5.611 -0.2767  0.1315  0.0587
11853W        W27662  14.025  12.252  13.005 -0.0550  0.0513 -0.0616
11854W        W27663  13.252   5.877  14.791 -0.0198  0.2919  0.1595
11855W        W27664  10.158  12.657  12.708 -0.1379 -0.2766  0.2122
11856W        W27665   3.043  17.410  12.458  0.0439  0.2383 -0.0400
11857W        W27666  14.955   4.988  11.455 -0.0998 -0.0784  0.1689
11858W        W27667   3.354   8.280   3.767 -0.1183 -0.1151 -0.2016
11859W        W27668  18.606  18.619   3.884 -0.3471  0.2266 -0.0920
11860W        W27669  16.195  10.194  15.243  0.1096  0.1987  0.0369
11861W        W27670   5.231  16.626  14.770  0.0969 -0.0642 -0.1232
11862W        W27671   2.523   9.435  11.531  0.1989 -0.0404 -0.1624
11863W        W27672  12.922   9.063   1.185 -0.2759 -0.1703  0.0131
11864W        W27673   8.084   6.908  11.552 -0.0753 -0.0029 -0.1925
11865W        W27674  15.702  16.357   0.343 -0.0171 -0.0747 -0.1749
11866W        W27675   1.559   1.323  12.750  0.4301 -0.0744 -0.0543
11867W        W27676   0.202   0.572  11.721  0.0292 -0.1542  0.1109
11868W        W27677   7.986   2.022   0.619 -0.1681 -0.1436  0.0815
11869W        W27678  13.326   7.213  11.554 -0.2579 -0.0462  0.0126
11870W        W27679  15.203   9.053   0.274  0.0438 -0.3649 -0.0300
11871W        W27680   2.658  18.641  13.726  0.1340 -0.2535  0.1597
11872W        W27681   9.179   0.840  14.383  0.3140  0.0090  0.0551
11873W        W27682  12.280   2.645   5.113 -0.2030  0.1841 -0.1843
11874W        W27683   1.569   2.449  10.725 -0.0095  0.0931  0.0569
11875W        W27684  12.382  10.019   2.879 -0.1498  0.0696 -0.2322
11876W        W27685   7.668  13.875   4.665 -0.0603 -0.0665  0.0057
11877W        W27686  10.971   2.445   0.671  0.0872 -0.2025  0.4791
11878W        W27687  14.008   3.340   2.890  0.2093  0.1139  0.0912
11879W        W27688   6.093  16.080  14.717  0.1057  0.0827  0.2012
11880W        W27689   7.733  14.054  14.736  0.1901  0.1749  0.0118
11881W        W27690   0.515  18.319   4.776  0.0014 -0.0992 -0.2394
11882W        W27691   4.789  15.404   1.453  0.1202  0.0536 -0.2931
11883W        W27692   2.803   7.905   0.291 -0.0237 -0.2260  0.1233
11884W        W27693  16.738  14.784   3.320  0.0222 -0.3145 -0.2319
11885W        W27694   5.211   5.260  13.002 -0.1949  0.2508 -0.0411
11886W        W27695   0.298  12.373  11.812 -0.1505 -0.0639 -0.0635
11887W        W27696   1.619   3.127   4.564  0.1052 -0.0245 -0.0327
11888W        W27697  11.726   9.076   4.829  0.1320 -0.0554  0.2507
11889W        W27698   1.034   0.593   4.464  0.0335 -0.1155 -0.2410
11890W        W27699  10.767  11.744   4.613 -0.2084  0.2091  0.0699
11891W        W27700   0.996  17.206   9.836 -0.2526 -0.0612  0.0269
11892W        W27701  11.005  11.917   4.202 -0.0860 -0.1473 -0.1962
11893W        W27702   0.086   1.364   5.367  0.3561 -0.1877 -0.0670
11894W        W27703   6.454  15.043   0.409 -0.0177 -0.0748 -0.0580
11895W        W27704   9.349  10.675  15.553 -0.0646 -0.0654 -0.2443
11896W        W27705  17.241   1.804  11.293  0.1925 -0.0655 -0.1790
11897W        W27706  14.668  13.033  11.190  0.0547 -0.3190  0.0527
11898W        W27707   4.893   0.642   2.579  0.2732 -0.1985  0.1410
11899W        W27708  17.627   5.377   4.244  0.0333 -0.3152 -0.1456
11900W        W27709  11.321  18.174   5.424 -0.1019 -0.0973 -0.1182
11901W        W27710  17.673   2.751  11.769 -0.3094 -0.1311 -0.2727
11902W        W27711   3.984   8.654  11.735  0.1097  0.1405  0.3989
11903W        W27712   3.280   1.349  13.871  0.1409 -0.1665 -0.3230
11904W        W27713   7.358  18.460   2.832 -0.2827  0.0221 -0.0330
11905W        W27714   7.382   3.353   3.013 -0.0199 -0.1797  0.1875
11906W        W27715   5.722  10.596   3.445 -0.1217 -0.1177  0.2628
11907W        W27716  15.412   1.385   3.554 -0.3447  0.3651 -0.0425
11908W        W27717   1.967  14.889  12.831  0.1316 -0.0701  0.1352
11909W        W27718  16.134   0.191  15.224  0.1334 -0.1258 -0.3890
11910W        W27719   5.092   5.293   5.056 -0.0726  0.0723 -0.3478
11911W        W27720   4.430  17.054   0.973  0.1150 -0.2692 -0.2795
11912W        W27721   3.269   6.547  10.880 -0.1258  0.0613 -0.1243
11913W        W27722  16.936  11.522   3.608 -0.1173  0.2715  0.0319
11914W        W27723  17.461   3.903   1.539 -0.0272  0.2341 -0.0268
11915W        W27724   2.038   7.173   1.728  0.0120  0.0388  0.0643
11916W        W27725  16.413  15.938  14.233  0.3062 -0.1824 -0.2935
11917W        W27726   3.058   0.426  10.688 -0.0953  0.0369  0.0487
11918W        W27727   5.966   1.608  12.134  0.1243 -0.0443 -0.0693
11919W        W27728  10.417   8.997   1.095  0.0283  0.1783 -0.0055
11920W        W27729  14.108   2.052  11.679 -0.3739 -0.0718  0.1348
11921W        W27730  15.399   6.506  12.060 -0.3086 -0.0628 -0.2765
11922W        W27731   8.987  11.288  14.760  0.0222 -0.0092 -0.0499
11923W        W27732   0.938   4.208   5.268  0.2580  0.0676  0.1269
11924W        W27733   9.827  13.377   3.605  0.0483  0.0616  0.0574
11925W        W27734   6.998   9.071  12.149  0.1406 -0.0268 -0.4266
11926W        W27735  10.173   3.487  11.312  0.2279 -0.1200 -0.1640
11927W        W27736   5.471  14.791   4.516  0.3620  0.1260  0.3235
11928W        W27737  15.652   3.473  10.733 -0.0683 -0.1794 -0.3943
11929W        W27738  18.245  11.302   2.127 -0.0867  0.1791 -0.0310
11930W        W27739  15.081  18.156  11.984  0.0627  0.1688  0.0092
11931W        W27740   9.632   4.989  14.051 -0.2480 -0.0616 -0.0150
11932W        W27741   1.963  13.212  15.193 -0.0765 -0.1904 -0.2031
11933W        W27742   0.122   2.894  10.366  0.4252 -0.0709  0.3686
11934W        W27743   0.750  11.577  12.161  0.1086 -0.2712  0.2426
11935W        W27744   6.045   0.461   1.981 -0.2313 -0.0320  0.1763
11936W        W27745  14.932   7.447   3.800 -0.3330  0.1614  0.0483
11937W        W27746  17.528  16.148   2.346 -0.1425 -0.1309  0.0544
11938W        W27747   6.753   2.157   3.470  0.0700  0.0276 -0.0230
11939W        W27748  18.587   9.385   2.114  0.2139  0.3400 -0.2559
11940W        W27749  14.533   4.036   4.323 -0.1874 -0.2456  0.2844
11941W        W27750  12.522  10.401  14.241  0.3071  0.0650  0.2061
11942W        W27751  13.412  16.272   0.170 -0.0563  0.0800 -0.0771
11943W        W27752  13.304  15.208   2.880  0.0647  0.0242 -0.1872
11944W        W27753   5.471  12.441  13.513 -0.2060 -0.0672 -0.2366
11945W        W27754   0.814   2.599   1.651  0.3548  0.1479 -0.0194
11946W        W27755   4.278  17.491  12.095  0.2816  0.2800 -0.0400
11947W        W27756  11.976  11.570   4.166 -0.1265  0.2782  0.0818
11948W        W27757  15.781   3.052   0.484  0.0877 -0.0861 -0.1016
11949W        W27758  17.745  14.518   3.091  0.1646 -0.0448  0.0421
11950W        W27759   0.533   2.467  11.702  0.2649 -0.1263  0.1038
11951W        W27760  11.216  16.669   1.560  0.0832  0.3233  0.2123
11952W        W27761  12.546  17.225  12.635  0.1054  0.1954  0.0172
11953W        W27762  11.654   1.367  11.813 -0.1809 -0.0695  0.1415
11954W        W27763  16.373  12.195  13.275 -0.4220 -0.1852 -0.1145
11955W        W27764   9.129   6.442   0.456 -0.3342  0.1537  0.2762
11956W        W27765   7.838   4.017   4.115  0.1614  0.0324 -0.1564
11957W        W27766   6.355  14.408  15.318 -0.2565  0.1049 -0.0997
11958W        W27767   7.800  10.064   3.952 -0.2267 -0.1519 -0.0357
11959W        W27768   8.742   3.701  12.568 -0.0445  0.0937 -0.1822
11960W        W27769  13.113  14.738   2.123 -0.0435  0.0486  0.0372
11961W        W27770   5.421   1.148   3.098 -0.2676  0.2813  0.0990
11962W        W27771  13.601  11.091   0.343  0.3067  0.2818 -0.1466
11963W        W27772  16.578  10.163   4.589 -0.1779 -0.2311  0.3487
11964W        W27773  16.365   2.259  13.084 -0.0337 -0.1113  0.0283
11965W        W27774  18.727   7.772  10.515  0.0447 -0.3529  0.0709
11966W        W27775  15.419  11.879   5.347  0.2101 -0.0427 -0.1685
11967W        W27776   7.608   4.373   4.995 -0.1398 -0.2385 -0.1229
11968W        W27777   7.272  10.998  10.542 -0.2275  0.1617 -0.3399
11969W        W27778   9.186  11.103  15.163  0.0616  0.0429  0.0510
11970W        W27779   8.230   4.138   0.915  0.1725 -0.3076  0.5266
11971W        W27780   8.399   9.357   1.722 -0.3276  0.0003 -0.1021
11972W        W27781   9.695   2.997   4.981  0.1706  0.1192  0.1388
11973W        W27782   2.627   2.837  14.028 -0.0071 -0.0134 -0.0009
11974W        W27783  10.675   4.652   0.520 -0.0181 -0.1326 -0.3324
11975W        W27784  11.805   2.568  12.615 -0.1815  0.1352  0.3784
11976W        W27785  18.027   6.059   2.642  0.2452 -0.0385 -0.1439
11977W        W27786   0.379  11.503   3.636  0.1125 -0.0601 -0.1815
11978W        W27787   5.727   2.669  14.021 -0.2086  0.0124  0.0788
11979W        W27788   8.133   4.469   5.402  0.2781  0.3345 -0.0712
11980W        W27789  14.533   6.215   2.880 -0.3231  0.3319 -0.1611
11981W        W27790  12.271   9.386   0.772  0.3639  0.4055  0.2322
11982W        W27791   1.274  16.066  11.028  0.0846 -0.1122 -0.3086
11983W        W27792   1.433  10.733   3.194 -0.1314 -0.2569 -0.3526
11984W        W27793  14.826   4.954   4.542 -0.1250  0.1458  0.1887
11985W        W27794  18.389  12.242   0.875  0.2637  0.5814  0.3799
11986W        W27795  16.923   2.183  15.037 -0.2507  0.2913 -0.0782
11987W        W27796   4.000   7.545   5.906  0.0100 -0.0294  0.0126
11988W        W27797   9.502   2.696   2.918  0.5901 -0.0079 -0.2328
11989W        W27798  14.254   6.298  12.252  0.0407 -0.1770  0.0131
11990W        W27799  16.655   6.882  15.545  0.0941 -0.5306  0.1216
11991W        W27800  10.405   5.413  15.367  0.0344 -0.0053 -0.0434
11992W        W27801  10.891   7.450   9.486 -0.1237  0.1977 -0.1264
11993W        W27802  12.865   3.552  12.314 -0.1530 -0.0080 -0.1579
11994W        W27803   5.197  12.965  12.321  0.1312  0.2154 -0.0939
11995W        W27804  12.892   7.909   1.009  0.1346  0.1599 -0.0289
11996W        W27805  11.327  12.742   2.017 -0.2073 -0.1327  0.1981
11997W        W27806   9.941  12.600  10.921 -0.3634 -0.0288 -0.1999
11998W        W27807  10.573   2.194  12.733  0.3174  0.1903 -0.0544
11999W        W27808  16.609   3.424  10.696  0.1804  0.0074  0.0167
12000W        W27809  14.365  10.485  11.080 -0.1231  0.1205  0.0608
12001W        W27810  15.208  17.372  12.547  0.0200 -0.2212 -0.0737
12002W        W27811  16.384  17.840   9.784 -0.0958  0.1065  0.0188
12003W        W27812   7.422  16.900   3.706  0.1355 -0.1866  0.1757
12004W        W27813   0.547   3.081  12.762  0.0626  0.0220 -0.0820
12005W        W27814  11.356  18.148  13.653 -0.0170  0.2078 -0.1198
12006W        W27815   8.761   4.789  14.338 -0.2984  0.2037 -0.0065
12007W        W27816  13.808  17.408  11.814  0.3564 -0.1285  0.4998
12008W        W27817  10.342  13.495  15.162  0.1039 -0.0978  0.2746
12009W        W27818  16.558  14.860   1.304  0.1549 -0.0636 -0.0624
12010W        W27819   4.029  15.056   2.133 -0.3545 -0.2777 -0.2806
12011W        W27820  15.199  13.567  14.383 -0.0378  0.0957  0.0280
12012W        W27821   3.453  12.118  15.190 -0.0125  0.2851 -0.0774
12013W        W27822  18.213   6.704  13.280  0.0276 -0.2057 -0.0738
12014W        W27823   0.176   4.550   4.284  0.1314  0.1236 -0.1702
12015W        W27824   8.373   7.391  14.563 -0.1626  0.0764  0.1392
12016W        W27825   1.961  14.807  10.408 -0.0039  0.0691  0.0846
12017W        W27826   3.276   1.647  13.007 -0.0151 -0.2160  0.0383
12018W        W27827   8.512  11.580  10.770 -0.1355 -0.3875 -0.0628
12019W        W27828  10.990   8.632   0.398 -0.1479  0.2202 -0.2838
12020W        W27829   6.000  16.486   5.391  0.0992  0.1838 -0.1195
12021W        W27830   3.728  13.541  11.966  0.1310 -0.1350 -0.0033
12022W        W27831   7.670   9.848   1.166 -0.0345 -0.1320  0.0722
12023W        W27832  15.966   4.318  11.639 -0.0882 -0.0264  0.1989
12024W        W27833   1.435  12.031  13.983  0.2158  0.1650  0.3644
12025W        W27834  16.049   2.475   1.524 -0.1066 -0.1054 -0.1261
12026W        W27835   2.807  13.373   4.198 -0.0865 -0.1804  0.0614
12027W        W27836   4.731   0.508  14.241  0.0907  0.1380  0.2729
12028W        W27837  17.994   7.488   0.412 -0.1127  0.4557  0.1128
12029W        W27838   8.421   4.798  11.583  0.2445 -0.2220 -0.1076
12030W        W27839  13.500   7.964  13.732  0.1058 -0.2056  0.1990
12031W        W27840   8.510   5.761   1.871  0.0845  0.1108  0.1211
12032W        W27841   4.009  12.087  14.833  0.1000  0.0419  0.0448
12033W        W27842   5.037   3.527  12.054 -0.0435 -0.1685 -0.0557
12034W        W27843   0.093  13.036   4.732  0.2433  0.3018  0.1122
12035W        W27844   0.887   1.556  12.213 -0.0784 -0.0031 -0.0470
12036W        W27845  14.246  16.957   5.853  0.0212  0.0613  0.2307
12037W        W27846   3.797  13.167  14.225 -0.1841 -0.2068 -0.1792
12038W        W27847   1.659  17.175  12.227 -0.0769 -0.0384 -0.2876
12039W        W27848  17.966   2.110   5.736  0.0299  0.0551  0.1954
12040W        W27849   4.672   4.517  14.616  0.0051 -0.1454  0.2268
12041W        W27850   4.925  17.952   1.974  0.2995  0.0183 -0.2416
12042W        W27851   2.467  15.742  12.815  0.1960 -0.1230  0.3068
12043W        W27852   6.483  17.759   0.934  0.2052 -0.0428  0.0141
12044W        W27853   8.197   8.607  13.243 -0.0431  0.2005  0.0615
12045W        W27854   6.455  13.484  14.589  0.0485  0.0522 -0.2143
12046W        W27855  12.615  11.933  11.799  0.2464 -0.0321  0.1680
12047W        W27856   1.138   4.129  13.886 -0.0672 -0.1043 -0.4410
12048W        W27857   6.747  14.531   1.017 -0.4726 -0.3481 -0.1185
12049W        W27858  12.918   9.036   2.179 -0.3242 -0.1363 -0.3020
12050W        W27859   7.726   3.722   3.019  0.0461  0.1494 -0.0444
12051W        W27860  16.812  12.753   3.275 -0.1134  0.3995 -0.1693
12052W        W27861   4.899  14.609   4.603 -0.1403  0.0056  0.0234
12053W        W27862  14.934   2.263  15.069  0.5605  0.0706  0.1313
12054W        W27863   8.658   5.021  13.489 -0.2147  0.3973  0.4944
12055W        W27864  12.614   3.208  12.673  0.1600 -0.0563  0.0770
12056W        W27865   4.513   6.109   3.999  0.0812 -0.4348 -0.2158
12057W        W27866  12.808  11.389   3.106 -0.3691  0.0001  0.1074
12058W        W27867   1.149  12.275   4.712  0.0992 -0.1320 -0.1801
12059W        W27868   4.918   7.963   4.125  0.1299 -0.1124  0.0293
12060W        W27869   7.869   0.528   3.537 -0.1059 -0.0229 -0.2103
12061W        W27870   5.675  15.035  10.954 -0.1001 -0.2709 -0.1889
12062W        W27871   4.722  10.909   3.049 -0.2026  0.2164 -0.3258
12063W        W27872  13.238  17.914   3.667  0.0046 -0.0262 -0.0403
12064W        W27873   1.031  12.995   1.653 -0.1468  0.1245  0.0848
12065W        W27874   0.204  15.114  11.893  0.0819 -0.1062  0.0700
12066W        W27875   5.327   0.210   0.476 -0.3428  0.2372  0.2233
12067W        W27876   3.980  10.867  11.078  0.2124  0.3212 -0.1130
12068W        W27877  18.617   2.429   2.591  0.1978 -0.3233  0.3760
12069W        W27878   5.702   2.344  11.913  0.3240 -0.0239 -0.0102
12070W        W27879   8.599  14.492  11.841 -0.4855  0.0832 -0.2302
12071W        W27880   3.944   6.228  14.327  0.0603 -0.5287 -0.1723
12072W        W27881   0.959  13.059   0.498  0.3591 -0.2067  0.0167
12073W        W27882   3.005   9.401  11.691  0.0865 -0.1101 -0.3941
12074W        W27883   0.131   4.634  12.556 -0.1409  0.0263 -0.1553
12075W        W27884   3.799  17.596   3.516  0.0510  0.2193 -0.1078
12076W        W27885  18.506   4.164  13.284 -0.0707 -0.0354 -0.2980
12077W        W27886  11.937  12.337   1.618  0.0206  0.0348 -0.0957
12078W        W27887   1.165  10.487   2.900  0.1648 -0.1297  0.0047
12079W        W27888   4.125  17.754   0.750  0.0938  0.0166 -0.1132
12080W        W27889   1.849   2.104   5.030 -0.1059  0.3002  0.4721
12081W        W27890  16.223   7.701   5.007 -0.1249 -0.0157  0.0726
12082W        W27891   2.682  14.613   9.953 -0.4607 -0.0283 -0.0303
12083W        W27892  15.053   2.524   0.754  0.0258  0.2133 -0.0626
12084W        W27893  11.719   4.646   4.963  0.1839  0.0717 -0.0012
12085W        W27894   0.813   9.493  12.492 -0.2222 -0.4079  0.0308
12086W        W27895   8.488   4.167  13.782 -0.1506 -0.1501  0.0283
12087W        W27896   3.424   5.247   4.083  0.1418 -0.0215  0.1065
12088W        W27897  12.736   4.041  12.117  0.2738  0.1338 -0.2873
12089W        W27898   4.068   1.320  13.208  0.1173  0.1774 -0.2589
12090W        W27899   5.357  10.935  13.111  0.4317 -0.3901 -0.1777
12091W        W27900   2.609   5.382   4.442 -0.1277  0.1878 -0.1446
12092W        W27901  17.803  10.505   3.023  0.1438 -0.0464 -0.2626
12093W        W27902  10.400   8.615  11.032 -0.1381 -0.0926 -0.0518
12094W        W27903  15.143  18.171  12.992  0.1395 -0.0171 -0.3379
12095W        W27904  10.525  17.656   2.818 -0.1105  0.0861  0.3037
12096W        W27905  17.490  14.531  15.356  0.2208  0.0750 -0.3513
12097W        W27906   6.646  15.125  12.406 -0.2799  0.1356 -0.1883
12098W        W27907  10.254  16.585   2.235 -0.1772 -0.1554  0.0001
12099W        W27908   7.637   0.656   0.397 -0.2060 -0.1924 -0.1225
12100W        W27909   3.275   5.953   4.076  0.2477 -0.4031 -0.1605
12101W        W27910  12.593  12.880   9.861  0.1344  0.0508  0.0079
12102W        W27911  14.685  12.302  14.481 -0.1779  0.0081 -0.0507
12103W        W27912   4.516  14.210  14.384 -0.0443 -0.2976  0.2913
12104W        W27913   2.806  14.887  13.843 -0.3060  0.0132  0.0652
12105W        W27914   5.738  18.346   3.953  0.1478  0.1363  0.0257
12106W        W27915   9.264  12.033  12.464 -0.2198  0.2654 -0.3117
12107W        W27916  16.556   2.948  15.470  0.2440  0.0799  0.0434
12108W        W27917   3.175  13.082   3.976  0.1534  0.0407 -0.2319
12109W        W27918   6.189  10.531  11.662  0.0399  0.4180  0.1272
12110W        W27919  18.671  16.910  11.654  0.3061  0.0726  0.1309
12111W        W27920   5.892   8.385   1.510  0.1064  0.2402  0.2064
12112W        W27921   9.117   9.539   3.578  0.3094 -0.0842 -0.1757
12113W        W27922  11.051  10.636  13.602  0.0733 -0.0740 -0.0778
12114W        W27923   5.771   6.447  10.694  0.0114 -0.2314 -0.2015
12115W        W27924  16.502  15.584   2.684 -0.0639 -0.2048  0.3497
12116W        W27925  12.730  16.020  12.124 -0.1111 -0.2244  0.4150
12117W        W27926   0.407   7.353  12.947 -0.1526  0.3496 -0.3116
12118W        W27927   0.226  14.214  12.236  0.0133 -0.1471  0.4206
12119W        W27928   2.948  10.953   2.186  0.0781 -0.0517 -0.2209
12120W        W27929  10.460   1.118  13.262 -0.0932  0.1646 -0.2161
12121W        W27930   1.303  15.096   9.386 -0.3820  0.1832 -0.0761
12122W        W27931   8.352   1.110   0.619 -0.2208  0.0159  0.2508
12123W        W27932   4.093   0.774   3.498 -0.1134 -0.0663 -0.1386
12124W        W27933  10.805  18.095  12.606  0.2030 -0.1326  0.1427
12125W        W27934  15.519  18.135   1.796 -0.0529  0.1551 -0.2174
12126W        W27935   7.835  13.615  15.257  0.1054  0.0016 -0.0690
12127W        W27936  17.861   0.347   2.113  0.0654  0.0737  0.0375
12128W        W27937   6.802   4.928  13.109  0.0549 -0.1336  0.0774
12129W        W27938  13.869   0.241   3.743  0.1086 -0.0314  0.1135
12130W        W27939   9.179   0.834   3.556 -0.1142  0.2214  0.0030
12131W        W27940  15.668  13.636   1.979 -0.3176 -0.4577 -0.0197
12132W        W27941  13.778   8.762  13.012 -0.0048 -0.1012 -0.1059
12133W        W27942  16.942   2.586   3.298  0.0994 -0.0770  0.0477
12134W        W27943  11.292  10.277   1.317  0.0480  0.3089 -0.0217
12135W        W27944   9.115   8.656  13.305 -0.0697  0.2613  0.3029
12136W        W27945   2.916  18.697   3.317 -0.2202  0.2125 -0.2886
12137W        W27946   0.066   6.491  14.806 -0.1008  0.1573 -0.1352
12138W        W27947   1.547  10.095   0.593  0.1422 -0.1793  0.0996
12139W        W27948   8.136  14.962  13.102  0.0442 -0.0110  0.1050
12140W        W27949  13.553   9.392   2.263  0.2022 -0.0812  0.1448
12141W        W27950   4.591  16.825  12.840  0.0494 -0.1328 -0.0072
12142W        W27951  13.113   9.304  14.584 -0.0138 -0.2386 -0.2559
12143W        W27952   1.590   1.449   3.863 -0.1497 -0.2538 -0.2664
12144W        W27953  13.567  14.004   2.473 -0.1700 -0.0549  0.0589
12145W        W27954  16.667   8.852   3.364 -0.0410  0.0716  0.1888
12146W        W27955   6.436   6.286   0.704 -0.2039  0.2709  0.0987
12147W        W27956   4.286   6.121   0.316  0.1200  0.1806 -0.0706
12148W        W27957   3.589  16.676   3.368 -0.1181 -0.0522  0.0131
12149W        W27958   3.319   6.301   4.439 -0.2406  0.1531  0.2915
12150W        W27959  11.724  17.675   2.284 -0.2120 -0.1820  0.1894
12151W        W27960   2.818   4.456  12.930 -0.1370  0.2791  0.1148
12152W        W27961   8.724  13.155  15.246  0.1916 -0.0097  0.0043
12153W        W27962   3.691  13.757  14.878 -0.2029  0.1427  0.2057
12154W        W27963   4.894  18.323   3.975 -0.1550  0.0906  0.2863
12155W        W27964  12.655  13.894   4.947  0.2075 -0.1385 -0.0802
12156W        W27965  10.666  12.319   4.100  0.0571 -0.2501  0.1035
12157W        W27966  12.097  14.990   5.464 -0.1975 -0.2893  0.5105
12158W        W27967  13.334  11.763  14.237 -0.1506  0.0517 -0.1682
12159W        W27968   7.050  18.451  15.493  0.2413 -0.0630 -0.3091
12160W        W27969  11.367  14.495   3.482 -0.1392 -0.1354  0.3537
12161W        W27970  10.651   7.271  14.026 -0.1788  0.2120  0.2311
12162W        W27971   5.587   0.619   0.723 -0.0050 -0.2259  0.1002
12163W        W27972   2.732   8.848   0.311 -0.0445 -0.2795 -0.2434
12164W        W27973  17.740  10.622  10.600 -0.1069 -0.0542  0.4591
12165W        W27974  17.553  11.938  15.543  0.2032 -0.3232  0.1514
12166W        W27975  13.326  12.451  11.949 -0.0347 -0.0714  0.2026
12167W        W27976   9.799  12.326   3.429  0.1272  0.3963  0.1657
12168W        W27977   7.535  13.826  10.142 -0.1409 -0.1411 -0.3335
12169W        W27978  16.485  13.377  12.470 -0.1720 -0.1384 -0.0641
12170W        W27979  16.042  17.607  14.184  0.0986 -0.4120 -0.0264
12171W        W27980   4.083   5.096   5.365 -0.2375 -0.2554 -0.2847
12172W        W27981  13.545  17.111  15.477 -0.0836 -0.2177 -0.0265
12173W        W27982  16.166  17.937  11.028  0.1297  0.2148  0.1548
12174W        W27983  11.469  14.237  12.086  0.1249 -0.1914  0.1324
12175W        W27984   8.085  14.068  12.553 -0.4933 -0.4936 -0.2432
12176W        W27985   6.480  14.207   1.494 -0.2469  0.1079 -0.2833
12177W        W27986   9.058  12.385   0.494 -0.1346 -0.1116  0.3441
12178W        W27987   1.195   1.097   4.082  0.0229  0.2959 -0.0065
12179W        W27988  11.625  14.621   4.594  0.1740 -0.0737  0.1596
12180W        W27989   0.265  10.107  10.479  0.1992 -0.1048 -0.0384
12181W        W27990   4.936   0.733   1.838 -0.2239 -0.3173 -0.6043
12182W        W27991  16.248  17.944  13.258  0.2882  0.0176  0.2005
12183W        W27992  14.659  18.465   4.545  0.1884 -0.1857 -0.2661
12184W        W27993  14.794   8.778  15.183 -0.0430  0.0995 -0.1404
12185W        W27994   1.028  14.100  12.387  0.0426 -0.0617  0.0209
12186W        W27995  14.834  16.542   0.607 -0.0641 -0.5245 -0.2721
12187W        W27996   9.112   6.969   0.478 -0.2562 -0.3210 -0.1576
12188W        W27997   0.282   5.875   4.477 -0.0775 -0.1289 -0.2388
12189W        W27998   2.169  10.109  13.553  0.2772 -0.2988  0.3942
12190W        W27999  16.544  11.021   2.150 -0.1648  0.1194  0.0135
12191W        W28000  12.095   0.706  11.947  0.1964 -0.1201  0.0152
12192W        W28001   9.376   5.523   1.597  0.3499 -0.1047 -0.1366
12193W        W28002   3.617   6.290   5.599 -0.0995  0.0834 -0.3618
12194W        W28003  12.645   7.286  14.422 -0.1333 -0.3310 -0.4881
12195W        W28004   3.394  10.650   4.391  0.1244 -0.0659 -0.1249
12196W        W28005  12.493   6.788   4.841  0.0931  0.0756 -0.2924
12197W        W28006   4.238   3.206   3.984  0.1109 -0.0116 -0.0412
12198W        W28007   5.205  10.644  13.565  0.1859 -0.2860 -0.2128
12199W        W28008  12.046   7.368  13.721 -0.0903 -0.0265 -0.3213
12200W        W28009   7.703   1.837   2.395  0.1333  0.0601  0.0036
12201W        W28010   8.297   0.363   1.873 -0.0184  0.1579 -0.0246
12202W        W28011   1.739  18.508  13.801  0.0707  0.0443 -0.2939
12203W        W28012  16.911   5.658  13.194  0.3505 -0.4487 -0.0929
12204W        W28013  12.465   6.895   3.751 -0.1979 -0.0737  0.0372
12205W        W28014  16.606  18.355  14.583 -0.0009 -0.0638 -0.0841
12206W        W28015  17.464   2.232  11.593 -0.0034 -0.0254  0.0041
12207W        W28016  15.568  15.940   1.429 -0.3404  0.0361  0.1382
12208W        W28017  17.312   7.485  11.649 -0.0751 -0.0948 -0.0577
12209W        W28018   8.962   6.524  12.391  0.1584 -0.0309  0.1684
12210W        W28019  14.166  12.653   1.950  0.0432 -0.0626  0.0286
12211W        W28020  13.036   2.564   1.336  0.3569 -0.0206  0.1946
12212W        W28021  11.265   4.324  13.886 -0.0918 -0.2853 -0.0438
12213W        W28022  16.896  14.550   2.632 -0.5078 -0.0215  0.0090
12214W        W28023  17.964   7.920  14.007 -0.1652 -0.0509 -0.1760
12215W        W28024  10.426   6.940  12.206  0.0012 -0.2703  0.1260
12216W        W28025  14.550   9.192   3.486 -0.1944  0.2445  0.2548
12217W        W28026   2.767  11.332   5.120 -0.2173  0.2907  0.0902
12218W        W28027  15.392   9.961  11.322  0.0845 -0.2773 -0.1931
12219W        W28028   4.287  13.298   3.449 -0.2794 -0.2437  0.2398
12220W        W28029   7.723  12.945  12.715 -0.1206 -0.1282  0.1754
12221W        W28030   2.221  12.884  12.329  0.2677  0.1320 -0.0327
12222W        W28031   7.251  11.786   5.190  0.0608  0.0728  0.0536
12223W        W28032   1.702  10.343  12.177 -0.1240  0.0211 -0.1380
12224W        W28033   1.782   4.878   3.152  0.3115 -0.1925 -0.0801
12225W        W28034   4.736   4.603  14.119 -0.2136  0.2413  0.2518
12226W        W28035  10.758   6.367  12.498 -0.0830  0.2330 -0.0860
12227W        W28036  14.029   9.504   0.076  0.3658 -0.2062 -0.3268
12228W        W28037  13.231  14.238   3.412  0.0695 -0.1786 -0.0589
12229W        W28038  14.325  18.318   2.914 -0.0881  0.2247 -0.0335
12230W        W28039  13.849   0.285  14.002 -0.1600  0.0343  0.1181
12231W        W28040   2.883   3.054  10.437 -0.0464 -0.2651  0.0079
12232W        W28041   2.492   2.159  12.849 -0.0335 -0.3235  0.0166
12233W        W28042  10.964  14.148   1.764 -0.2824  0.4856  0.5190
12234W        W28043   6.268  18.742   9.481  0.2867  0.0678  0.0808
12235W        W28044   6.959   2.735  11.432 -0.0453 -0.1865 -0.2313
12236W        W28045  18.607   0.377   1.012 -0.1475 -0.0843  0.0636
12237W        W28046  11.325   8.274   1.250  0.1226 -0.1112 -0.0554
12238W        W28047   7.612  13.102   4.890 -0.3121  0.0632  0.0839
12239W        W28048  12.850  18.022   2.566  0.1034 -0.0892 -0.3668
12240W        W28049  16.532  10.842  12.930  0.0224  0.0031  0.2128
12241W        W28050   7.824  14.565  10.724  0.1860 -0.1956 -0.1826
12242W        W28051  15.196  13.518   1.156  0.1252  0.1321 -0.0757
12243W        W28052  14.989  11.183  10.510 -0.1369  0.2671 -0.1960
12244W        W28053  10.627  15.349   1.786 -0.0900  0.1375 -0.1813
12245W        W28054  10.706   9.047   4.429  0.0126  0.0296 -0.2087
12246W        W28055   7.781   5.178  10.907  0.0130 -0.0149  0.2494
12247W        W28056  15.307  16.396  14.989  0.1976 -0.0964 -0.0622
12248W        W28057   4.025   0.196  15.183  0.0328  0.2017  0.1265
12249W        W28058  12.467  11.001  11.030  0.3969 -0.2024  0.1084
12250W        W28059   8.438   1.428  12.623  0.0686 -0.1569  0.0250
12251W        W28060  16.712   2.959  14.892 -0.0472 -0.1141  0.0665
12252W        W28061   7.755   9.619   4.305 -0.2932 -0.0016  0.1779
12253W        W28062  12.941  15.492  10.781  0.2490 -0.1717 -0.1371
12254W        W28063  17.734  11.741   3.425 -0.0098  0.4368  0.0748
12255W        W28064   8.710   2.351  12.643 -0.1594 -0.2237  0.1716
12256W        W28065   4.803  17.863  15.440  0.2759  0.0270  0.2455
12257W        W28066   7.398   7.762   3.129  0.0740 -0.1523  0.0337
12258W        W28067   3.759  16.608   2.041 -0.0101 -0.3040 -0.0062
12259W        W28068   2.498   1.125  11.365  0.0982  0.0316 -0.1707
12260W        W28069  15.594   1.911   3.497 -0.0080  0.0133  0.1428
12261W        W28070  17.729  10.600   3.636 -0.0026  0.2843 -0.0009
12262W        W28071  12.590   4.199   0.715  0.1080 -0.0893  0.0092
12263W        W28072  18.542  11.277   0.690 -0.1410  0.2223 -0.0429
12264W        W28073   5.198  17.907  13.325 -0.1021  0.1044 -0.1940
12265W        W28074  13.316  18.374   3.482  0.1637  0.1070  0.0012
12266W        W28075   4.328   9.051   9.876  0.1321 -0.0804 -0.0393
12267W        W28076   2.324  16.706   1.593  0.1091  0.0361 -0.1019
12268W        W28077  16.610  11.471   3.137 -0.0761  0.1235 -0.1835
12269W        W28078   3.978   6.525   0.325 -0.1299 -0.0221 -0.0561
12270W        W28079   3.020  18.201   3.546  0.0043  0.2261  0.4630
12271W        W28080  13.622   7.805   0.414 -0.0027 -0.3061  0.0942
12272W        W28081  13.526  18.738  13.522 -0.0990  0.0209  0.1256
12273W        W28082   2.856  14.297   3.489 -0.0133  0.2123  0.2203
12274W        W28083  18.038   1.859  12.596 -0.0555 -0.2781 -0.1786
12275W        W28084  15.593   4.347   6.030 -0.1051 -0.1308  0.1179
12276W        W28085  13.987  12.697  13.274 -0.3901 -0.3009  0.0270
12277W        W28086  13.620  18.090  15.104 -0.0302 -0.0285  0.0993
12278W        W28087  17.655  11.484  11.349 -0.1874  0.0680 -0.1709
12279W        W28088  10.106  11.091   2.139  0.3263  0.0004  0.0828
12280W        W28089  16.470  11.724   3.513  0.0393  0.2796 -0.0265
12281W        W28090  14.349  16.031   0.580 -0.2144  0.1290  0.2420
12282W        W28091  16.136   3.527   3.265 -0.1137  0.0788 -0.0294
12283W        W28092   0.532  16.201   5.846 -0.0998 -0.0825 -0.1659
12284W        W28093   4.326  13.062   1.613  0.2476  0.1613  0.1995
12285W        W28094  18.359  15.449  12.929 -0.0992  0.0710  0.0248
12286W        W28095  13.947  11.324  14.973  0.1046  0.1015 -0.0622
12287W        W28096  17.470   4.127  12.237  0.2728  0.0246 -0.3042
12288W        W28097   7.593   1.666  14.582  0.2213  0.3302  0.0741
12289W        W28098  10.810  18.429   2.540 -0.0145  0.1917  0.0668
12290W        W28099   3.713   3.122   2.814 -0.0541 -0.0657  0.0099
12291W        W28100  18.535   3.749  14.725  0.0315 -0.0637  0.0899
12292W        W28101   8.567  17.121   3.026 -0.0738  0.3299  0.0262
12293W        W28102  10.217   3.293   4.693  0.3389  0.0029  0.1840
12294W        W28103   9.881  16.870  11.379  0.1272  0.0126  0.0394
12295W        W28104  14.758  16.579   2.809 -0.0004 -0.1941 -0.1044
12296W        W28105  16.925   9.111  10.844  0.1115 -0.2536  0.3125
12297W        W28106   0.497  14.024  15.080 -0.0864  0.0015  0.3503
12298W        W28107   4.900   8.434   0.582  0.1561 -0.0588  0.2324
12299W        W28108  15.639   8.490   1.974 -0.4119 -0.2072 -0.3635
12300W        W28109  10.720  17.798  13.332  0.0444 -0.0941  0.1476
12301W        W28110  18.726   0.923   1.570 -0.1543 -0.0134  0.2098
12302W        W28111   6.688   9.436  11.956 -0.1831  0.0102 -0.1022
12303W        W28112  14.806   4.337  15.368  0.2718  0.3037 -0.0209
12304W        W28113   9.672  14.460   4.327  0.0503 -0.2022 -0.0506
12305W        W28114   8.206   2.369  11.866 -0.1388  0.0705 -0.1421
12306W        W28115   8.906  14.082  11.133  0.3861 -0.1160 -0.1009
12307W        W28116   8.864   5.588   1.600 -0.1070  0.1055 -0.1864
12308W        W28117   0.499   0.700   1.916 -0.1706 -0.2237 -0.0260
12309W        W28118  11.175  13.368   5.831  0.1147  0.4073 -0.1187
12310W        W28119   3.966  11.185   2.922  0.1286  0.1257  0.1617
12311W        W28120   4.069  16.229  14.897  0.0218  0.1123  0.0380
12312W        W28121   0.173   7.794  14.537 -0.0046 -0.1538  0.1901
12313W        W28122   5.138   8.406  13.342 -0.1330 -0.1218  0.1594
12314W        W28123  13.973   6.508  11.771  0.0773  0.2631 -0.3653
12315W        W28124   3.835   4.808  15.399 -0.0368  0.0029  0.1526
12316W        W28125  10.506  14.357  15.525 -0.3331  0.1604 -0.3001
12317W        W28126  10.531   1.177   9.839 -0.2674  0.5530  0.1406
12318W        W28127   0.487   9.357   0.926 -0.0885 -0.2798  0.1931
12319W        W28128  14.322  12.833  11.498  0.2742  0.2424  0.0141
12320W        W28129  17.510   6.443  12.702  0.0778  0.2567  0.0391
12321W        W28130  17.392   8.584   3.830  0.1280 -0.0891  0.2415
12322W        W28131   6.748  10.180   1.018  0.1279 -0.0312  0.0385
12323W        W28132  18.548  17.736  12.218 -0.1862 -0.1645 -0.2482
12324W        W28133  10.753   6.967  13.353  0.2298 -0.2362  0.0378
12325W        W28134   2.337   4.765   2.588  0.2230  0.2248  0.2465
12326W        W28135   4.533  16.213  13.767 -0.0457 -0.1154  0.0453
12327W        W28136  12.997   6.782  13.727  0.1461  0.1439  0.0536
12328W        W28137   6.873  16.770   0.673 -0.1087  0.2636  0.1053
12329W        W28138   2.148  13.677   4.935  0.2765 -0.0051 -0.1322
12330W        W28139  12.316   3.403   3.741 -0.2694  0.0769 -0.1004
12331W        W28140  10.672   0.431  10.836 -0.4399 -0.0575  0.2778
12332W        W28141   5.125  18.133  10.626  0.5881 -0.0838 -0.1967
12333W        W28142  16.346   1.222  12.420 -0.1586  0.1406 -0.0833
12334W        W28143   5.103   4.771  12.853 -0.1423  0.1977  0.1062
12335W        W28144  11.295  17.889   3.447 -0.2750 -0.1235 -0.0580
12336W        W28145  15.381  15.925  15.086 -0.0330 -0.3037 -0.1418
12337W        W28146   3.527   9.389  11.586  0.0255 -0.1194 -0.1051
12338W        W28147  16.689  17.858  11.796  0.1303  0.1682 -0.1627
12339W        W28148  16.388  12.979  14.038 -0.2977  0.2097 -0.2905
12340W        W28149  10.074  14.426   2.919  0.0578 -0.1338 -0.2459
12341W        W28150   9.645   7.147   0.816  0.0853 -0.0635 -0.0940
12342W        W28151  16.072   6.091   0.735 -0.0323 -0.3178 -0.1135
12343W        W28152   5.472   1.162  15.339  0.4022  0.1752 -0.1214
12344W        W28153   8.355   0.400  10.882 -0.1413  0.0713  0.0864
12345W        W28154   2.305  18.445  10.620 -0.1813 -0.0044 -0.1240
12346W        W28155  15.516  17.949   3.742  0.0750 -0.3006  0.4404
12347W        W28156  14.206  17.099  13.075 -0.0760 -0.2194  0.1472
12348W        W28157   2.744  13.069   4.615  0.0058 -0.1540 -0.2249
12349W        W28158   8.817   4.519   2.458  0.0892  0.1354  0.2411
12350W        W28159  10.585   5.516   2.445 -0.0162 -0.0662 -0.0016
12351W        W28160  14.850  13.795  15.407  0.0914 -0.1369  0.2947
12352W        W28161   6.265   0.990   4.673 -0.2083  0.0611 -0.0891
12353W        W28162   3.802  15.676  12.752 -0.2287 -0.0310  0.2976
12354W        W28163   0.588  17.173  10.829  0.1650 -0.0367  0.1289
12355W        W28164  14.787  10.516   4.581  0.1232  0.3111  0.1770
12356W        W28165   9.194  17.351   4.421 -0.1573  0.0917  0.2040
12357W        W28166   8.728  17.231   3.544  0.1683 -0.2868  0.0888
12358W        W28167   0.341   5.445  15.341 -0.0724  0.1664  0.0799
12359W        W28168   0.849   5.980   0.760 -0.2277  0.0610 -0.2145
12360W        W28169   8.395  16.225  13.933  0.2939 -0.0531 -0.0164
12361W        W28170  10.283  15.359  10.477 -0.1578 -0.0679  0.1868
12362W        W28171   5.435  14.838  10.067  0.0466 -0.0742  0.0986
12363W        W28172  11.859   4.526  10.725  0.2075 -0.0719  0.0588
12364W        W28173  15.907   2.240  12.838  0.0234  0.1051  0.0502
12365W        W28174   0.579   9.473   3.884  0.0632 -0.0247 -0.0893
12366W        W28175   7.300  18.461   4.658  0.0543 -0.2820 -0.3505
12367W        W28176   5.484  11.244  11.253  0.3846  0.2129  0.4709
12368W        W28177   5.030  10.092   2.637  0.0266 -0.1757  0.0110
12369W        W28178  12.614  10.507   2.145 -0.0839 -0.2470 -0.0233
12370W        W28179  13.123   0.254  11.183 -0.0498  0.3599 -0.0285
12371W        W28180  10.992   5.846   2.682  0.3454  0.1148  0.0339
12372W        W28181  15.524  11.853  14.941 -0.0315 -0.0279 -0.0437
12373W        W28182   2.249   2.194   5.377  0.0189  0.2008 -0.1177
12374W        W28183   9.583   8.795  11.790 -0.1539  0.2627  0.5912
12375W        W28184   1.029  10.262  14.403  0.1235 -0.1162  0.2546
12376W        W28185   7.082   5.474  10.739  0.0000 -0.1440 -0.0451
12377W        W28186  13.688   6.994   4.359 -0.2896 -0.1442 -0.0428
12378W        W28187  15.289   3.658  13.269  0.0328  0.5205 -0.3258
12379W        W28188   6.370   2.447   2.098  0.0992  0.1544  0.0447
12380W        W28189  11.531  12.573   4.927 -0.0010  0.1900  0.1019
12381W        W28190   0.613  15.425  15.512  0.4034  0.1796 -0.0573
12382W        W28191  13.617   2.052  11.807 -0.0820 -0.4796  0.1293
12383W        W28192  13.979   1.709  14.866 -0.0181 -0.3000 -0.1274
12384W        W28193   8.534   5.709   4.126 -0.0314 -0.0577  0.0308
12385W        W28194   9.927  10.649   4.029  0.0666 -0.1404 -0.0776
12386W        W28195  17.661   3.577  14.801  0.1878  0.0115  0.0858
12387W        W28196  12.634  14.742   4.565 -0.0747  0.0001 -0.3311
12388W        W28197   0.374  16.772   1.798  0.0580 -0.1938 -0.2233
12389W        W28198   3.256  15.482   5.638  0.0493 -0.2762 -0.2995
12390W        W28199   9.341  13.597  12.341  0.1660  0.2091  0.3592
12391W        W28200   4.574  18.721  12.256 -0.0397 -0.2652 -0.1741
12392W        W28201  11.288   0.309   2.792 -0.0031  0.0446 -0.2433
12393W        W28202   7.792   4.497   3.527  0.0851 -0.0686  0.0900
12394W        W28203  18.320   8.637  12.466 -0.2380  0.0085  0.1383
12395W        W28204   7.150   0.769  13.326  0.2615 -0.2793 -0.3210
12396W        W28205  17.079  12.541  14.414 -0.2900  0.1014 -0.1980
12397W        W28206   1.923  14.334   1.613 -0.1293 -0.2256 -0.2934
12398W        W28207  15.841   5.507   1.267 -0.2144  0.1014 -0.2522
12399W        W28208   7.162  11.210   0.080  0.4592  0.0573  0.1104
12400W        W28209   2.850   0.166  14.657  0.0566  0.0100  0.1669
12401W        W28210   0.324  13.874  10.714 -0.3268  0.1291 -0.2649
12402W        W28211   8.850   3.299  11.445 -0.0055 -0.3529  0.1093
12403W        W28212   5.289  12.606   3.274 -0.0667 -0.1633  0.0149
12404W        W28213   1.358  14.908   4.701 -0.3804  0.0078 -0.1908
12405W        W28214  13.242   7.855   3.518  0.0576 -0.1632  0.0564
12406W        W28215   1.235  17.065  12.528  0.0648 -0.0315 -0.0412
12407W        W28216  16.236  16.967   0.253 -0.0572 -0.0933 -0.0602
12408W        W28217   3.728   5.587   1.879  0.1607  0.0850  0.0203
12409W        W28218   9.549   7.947   2.728  0.1997  0.0468 -0.1714
12410W        W28219  18.139  10.977  10.544  0.0105 -0.1916  0.0227
12411W        W28220   9.849   5.117   0.696  0.0649 -0.1767 -0.2064
12412W        W28221   7.156   7.262  14.890  0.1493 -0.2346  0.1994
12413W        W28222  10.038   0.304   5.881  0.3894 -0.3948  0.1375
12414W        W28223  17.614   7.772   3.468  0.1974 -0.3050  0.0947
12415W        W28224   9.648   1.686  12.673 -0.0189  0.0664  0.3285
12416W        W28225   1.599   7.558  12.402 -0.0369 -0.2480 -0.1128
12417W        W28226  10.752   6.281   2.873  0.1038 -0.0653 -0.1924
12418W        W28227   3.170   0.844   3.301  0.1496 -0.4285 -0.0680
12419W        W28228  12.010  14.716   1.406  0.2040  0.1738  0.3913
12420W        W28229  13.070  13.995   1.942 -0.0051 -0.0700  0.0830
12421W        W28230   3.679   5.577  13.161  0.2139 -0.2716  0.0085
12422W        W28231   9.323  17.110   4.010 -0.3449  0.0477 -0.0693
12423W        W28232   6.893   9.907  13.946 -0.0995 -0.2158 -0.1534
12424W        W28233   4.351  14.563  14.034 -0.3738  0.1336 -0.3149
12425W        W28234   2.657   4.607  10.508 -0.1003  0.0836 -0.3660
12426W        W28235   3.316  14.221   1.257 -0.2119  0.0792  0.0320
12427W        W28236  17.523  11.520   2.153 -0.0622  0.2089  0.2830
12428W        W28237   3.814   5.075   2.100 -0.3130 -0.0096  0.0506
12429W        W28238   3.127   7.612   3.087  0.1060  0.0437 -0.0757
12430W        W28239  17.857  12.666   3.107  0.0342 -0.1492  0.1354
12431W        W28240   8.199   9.965   2.723 -0.2167  0.1713 -0.2414
12432W        W28241  13.917   0.153   6.113 -0.1659 -0.0244  0.4934
12433W        W28242  12.952   0.388   3.846  0.1249  0.2936 -0.2386
12434W        W28243  14.990  15.777   4.211  0.3391  0.0613  0.1057
12435W        W28244  13.431  10.950  11.220  0.0781 -0.1460  0.0563
12436W        W28245  13.324   3.258   6.403 -0.4474  0.0980  0.1714
12437W        W28246   4.319  15.706  12.057  0.2004 -0.0990  0.0935
12438W        W28247  12.968   5.985   0.752 -0.5556 -0.0308 -0.0816
12439W        W28248  18.448   9.917  13.518  0.0028  0.1784 -0.0240
12440W        W28249  10.551  11.979   3.703  0.0017 -0.0036 -0.0118
12441W        W28250   5.903  17.494   2.675  0.1057  0.1021 -0.0195
12442W        W28251  13.045  17.324   1.940 -0.4248 -0.3842  0.0114
12443W        W28252   0.682   0.611  12.711 -0.2018  0.3502  0.1793
12444W        W28253  16.854   2.080   3.213 -0.0973 -0.0726 -0.1936
12445W        W28254  11.025  13.290  13.578  0.1668  0.1868 -0.0693
12446W        W28255  11.967   5.857   1.314 -0.2279 -0.3757 -0.2214
12447W        W28256   4.389   1.675  14.836  0.0723 -0.1256 -0.2900
12448W        W28257   9.072  18.605   5.023  0.1241 -0.2850  0.0447
12449W        W28258   3.574   8.215  11.507  0.1786 -0.0562  0.1138
12450W        W28259  10.617   5.981   4.704  0.0764  0.1818 -0.1234
12451W        W28260   8.684   0.166   1.532 -0.2456  0.0808  0.0255
12452W        W28261   1.875  10.957   1.571 -0.1615  0.0214  0.1089
12453W        W28262   8.174   8.791   1.350 -0.0008 -0.1057 -0.1236
12454W        W28263  16.423  14.138   4.705  0.0647  0.1195 -0.0717
12455W        W28264  11.503  17.414  14.606  0.0353 -0.2191 -0.4333
12456W        W28265   2.639   6.639  12.266 -0.1710  0.3291 -0.1497
12457W        W28266  10.818  16.953  10.910  0.1362 -0.2419 -0.3520
12458W        W28267  16.579   7.790   4.617  0.0201 -0.5471 -0.2761
12459W        W28268   4.872  16.906  11.180 -0.2267  0.0105 -0.2852
12460W        W28269   5.976   3.021   0.475  0.2161 -0.0316  0.0679
12461W        W28270   3.466   3.902  11.844  0.3531 -0.1355  0.2543
12462W        W28271   5.855   2.344  14.469  0.0860  0.0573 -0.0047
12463W        W28272  17.350   5.966   3.588  0.0191  0.1318 -0.0384
12464W        W28273   8.678   8.577  11.533 -0.0119  0.1076 -0.1021
12465W        W28274   0.019   6.354   3.026  0.1638  0.0290  0.1705
12466W        W28275  14.546   1.833  11.555 -0.0576 -0.0534  0.1073
12467W        W28276   0.296  11.599   1.632  0.0595  0.0675 -0.2803
12468W        W28277  11.273   6.583  15.045 -0.0349  0.0329  0.1692
12469W        W28278  10.671  10.592  12.237  0.2342  0.2766  0.0494
12470W        W28279  14.690   8.087   1.122  0.2325 -0.2061  0.0779
12471W        W28280   9.013   8.478  13.822 -0.0634 -0.1974  0.1040
12472W        W28281  12.864  12.382  14.203  0.0878 -0.0440 -0.0259
12473W        W28282   7.677   8.659   2.345  0.1560 -0.0239  0.1872
12474W        W28283  12.768   2.115   3.235  0.2568 -0.0274  0.2241
12475W        W28284   2.756   4.598  14.714 -0.0302  0.0471 -0.0700
12476W        W28285  15.539  18.644  11.243 -0.1301 -0.0600  0.2510
12477W        W28286  18.009  14.272   1.120  0.2107  0.0297 -0.1298
12478W        W28287   4.392  18.531   1.641  0.0785 -0.4191 -0.0611
12479W        W28288  15.980   2.532  15.010  0.1398 -0.1583 -0.0380
12480W        W28289  17.958  15.623   2.184 -0.0849  0.0686  0.0177
12481W        W28290   3.316   8.454  13.964 -0.0074 -0.0308 -0.3415
12482W        W28291   3.435  16.572  15.524  0.1833 -0.2514 -0.0489
12483W        W28292  17.826   8.532  12.424 -0.2186  0.0387  0.0754
12484W        W28293   9.123   6.015   5.257 -0.1908  0.0787 -0.0799
12485W        W28294  12.305   5.062  11.525  0.2081 -0.0819  0.2093
12486W        W28295  14.795   0.434   2.684 -0.0243  0.0566 -0.2576
12487W        W28296  13.327  10.540   1.565  0.1641 -0.0344 -0.2110
12488W        W28297  16.688  14.909   9.727 -0.2837  0.1727  0.1027
12489W        W28298   0.716   0.629  13.455 -0.0659 -0.0208 -0.2001
12490W        W28299  13.607   8.545  11.123 -0.2002 -0.5551  0.3265
12491W        W28300  13.804   1.311  15.241 -0.1174  0.2971  0.0060
12492W        W28301   3.155  10.853   5.268  0.1322  0.3761  0.0227
12493W        W28302  18.610   8.888   2.216  0.0280 -0.3109  0.0206
12494W        W28303   0.184  12.915   3.277 -0.0769  0.2099 -0.0970
12495W        W28304  16.440   9.285   3.090 -0.0982  0.0501  0.1224
12496W        W28305  11.099  15.704  13.720 -0.4004 -0.3354 -0.2395
12497W        W28306  18.109   2.156   2.662 -0.0784 -0.0074 -0.1844
12498W        W28307   0.971   8.258  13.090  0.3743  0.1208  0.3135
12499W        W28308  12.699   0.773   3.749  0.2616  0.0439  0.0465
12500W        W28309  17.860  17.111   0.334 -0.4121  0.1441 -0.0524
12501W        W28310   3.996   6.098   3.023  0.1499  0.3300 -0.1987
12502W        W28311  10.350   1.005  12.063 -0.0526  0.1903  0.0139
12503W        W28312   8.889   6.892  12.814  0.2172 -0.2378 -0.1172
12504W        W28313   7.623   7.726  11.722 -0.0780  0.1181 -0.1168
12505W        W28314   2.617  15.329   3.605 -0.3415  0.3647 -0.2523
12506W        W28315  12.751  16.831  15.165 -0.1192 -0.1256 -0.0505
12507W        W28316   9.918   2.521   4.790 -0.0475  0.3078  0.0861
12508W        W28317  12.588  11.114  15.527  0.1522 -0.1361  0.1057
12509W        W28318   0.663  15.540  13.018 -0.2020 -0.1353  0.1802
12510W        W28319   0.291   3.355   4.784  0.0192 -0.0081  0.2457
12511W        W28320   2.941  13.872   9.404  0.4861 -0.1427 -0.0150
12512W        W28321  14.300  11.472  11.375 -0.2484 -0.4418  0.1287
12513W        W28322  14.061  17.698  13.403 -0.0648 -0.3327 -0.0008
12514W        W28323   5.736  10.585   1.016 -0.2809  0.2982 -0.0232
12515W        W28324  14.639  15.359   5.398 -0.3441  0.2260 -0.0419
12516W        W28325   8.279   2.290   3.453  0.3057  0.0856  0.1269
12517W        W28326  17.511   7.807  12.024  0.1186  0.1141  0.2115
12518W        W28327   3.395   3.285  14.424 -0.1635  0.1201 -0.4621
12519W        W28328   3.653   8.650   2.096 -0.0286 -0.1077 -0.4049
12520W        W28329   3.377   6.198  10.419 -0.4417 -0.0191  0.1974
12521W        W28330   5.733  13.627  11.563 -0.0409  0.2080  0.0129
12522W        W28331  12.904  16.178  14.659 -0.0626  0.2486 -0.0645
12523W        W28332  11.495  15.441  13.436 -0.1970 -0.5020 -0.0195
12524W        W28333  14.165   0.525  12.490  0.0525 -0.0410 -0.0113
12525W        W28334  15.002  16.367   1.938 -0.0564  0.0786 -0.1680
12526W        W28335  16.806  17.160   3.859 -0.1790 -0.4005 -0.1361
12527W        W28336  11.709   1.517   0.459 -0.1250 -0.0936  0.0904
12528W        W28337  13.399   1.591   4.767  0.3289  0.2195 -0.4054
12529W        W28338   0.145  17.468  11.886 -0.4331  0.0785 -0.1318
12530W        W28339   1.439   6.593   2.941 -0.1184  0.1370 -0.3701
12531W        W28340   0.165   1.771   3.526  0.0012  0.2475 -0.1785
12532W        W28341  10.918   7.763   0.592 -0.3654  0.0675  0.1242
12533W        W28342  11.365   3.883   1.190  0.0290  0.0658  0.2194
12534W        W28343   1.678   5.152  13.059  0.1455 -0.2157  0.0190
12535W        W28344   5.265  11.117  14.056 -0.3846 -0.0695 -0.1876
12536W        W28345   3.796  16.287  14.386 -0.0447 -0.0661 -0.0823
12537W        W28346  18.632  18.066  11.270 -0.2359  0.1140  0.2053
12538W        W28347  13.539   5.447   0.617 -0.1539  0.0421 -0.0188
12539W        W28348   0.045   8.394   6.191 -0.0555 -0.0135  0.3210
12540W        W28349   2.919   9.448   5.668 -0.0657 -0.1265 -0.0137
12541W        W28350  17.696   7.567  14.344 -0.0432  0.0833  0.3305
12542W        W28351  13.772   2.171   3.509  0.0187 -0.0117 -0.0451
12543W        W28352  16.564   0.076  11.153 -0.1090  0.2032 -0.1711
12544W        W28353  12.562  14.942  13.689  0.0592 -0.0690  0.0606
12545W        W28354  15.203   8.644   1.740 -0.0821  0.1411 -0.5099
12546W        W28355  13.377  11.505   1.179  0.2061  0.0976 -0.1682
12547W        W28356   3.075   2.049  11.108  0.4425  0.4233  0.0102
12548W        W28357  13.239  13.661   2.323  0.1261  0.1830  0.1860
12549W        W28358  13.261  11.505   3.415  0.0516  0.1604  0.0014
12550W        W28359   5.202   2.143  10.646 -0.2168  0.0747  0.2368
12551W        W28360   9.127  13.427   2.615 -0.1460 -0.0324  0.5847
12552W        W28361  16.053   7.297   0.564 -0.0081  0.0081  0.1386
12553W        W28362   9.250   3.701  14.130 -0.2450  0.2967  0.0791
12554W        W28363   8.294  12.124  12.218 -0.0605 -0.1300  0.1180
12555W        W28364  18.377   3.080  10.640 -0.1868 -0.0599 -0.2395
12556W        W28365  11.053   2.522  10.098  0.0250 -0.0590  0.0910
12557W        W28366  12.003   8.995   1.071 -0.1757 -0.1648  0.0564
12558W        W28367  11.993  15.614   0.595  0.2169 -0.1401  0.3371
12559W        W28368  17.934  15.455   2.607 -0.2543  0.0126  0.0501
12560W        W28369  16.857   5.973  14.437  0.1272 -0.1772 -0.2649
12561W        W28370   7.144   0.662  11.692  0.0994  0.2376 -0.2447
12562W        W28371   7.444   2.894   2.172  0.1422 -0.1355 -0.0609
12563W        W28372   7.715  15.366   0.323  0.1031 -0.1540  0.2343
12564W        W28373  14.938   2.644   2.577  0.0556  0.0869  0.4110
12565W        W28374   8.199   3.803  13.946 -0.1611  0.0553 -0.1802
12566W        W28375   9.941  11.593  11.743  0.0221  0.0409 -0.0771
12567W        W28376   5.931  10.649  12.065 -0.0378 -0.2509  0.2326
12568W        W28377  15.217  16.150  10.625 -0.3155 -0.0398 -0.0898
12569W        W28378  12.253   3.696  14.104  0.3964 -0.2680  0.1120
12570W        W28379   5.511  15.777  10.844  0.1212 -0.2802 -0.0388
12571W        W28380   3.534  17.022   0.163  0.0407 -0.0521  0.4470
12572W        W28381   0.845  18.528   4.415 -0.4736 -0.0938  0.1135
12573W        W28382  15.867  16.107  14.978  0.1977 -0.0231 -0.1139
12574W        W28383  13.407  15.054   2.412  0.1050 -0.3197 -0.1614
12575W        W28384   9.732  14.276   2.648  0.0536 -0.0328  0.1352
12576W        W28385  16.077   5.828  11.499  0.0479  0.1474  0.0548
12577W        W28386   4.445  18.452   4.439 -0.1754  0.2355 -0.1318
12578W        W28387  12.296   7.584   2.730  0.1509 -0.1879 -0.2561
12579W        W28388  13.804  13.814  15.533  0.0254  0.2488  0.1716
12580W        W28389  13.869   9.839   2.142  0.0887 -0.0065  0.2436
12581W        W28390   3.606  11.815  14.022  0.0836  0.0126 -0.1887
12582W        W28391   6.311   8.121   3.280 -0.2472  0.0062  0.0594
12583W        W28392  16.205   0.285  12.564  0.1063 -0.0197 -0.2128
12584W        W28393  16.942   4.134   4.378 -0.1783  0.0088 -0.1793
12585W        W28394  12.024  15.826   2.172 -0.1058  0.1689  0.0323
12586W        W28395   3.464   0.653   2.448  0.1103  0.2838 -0.1647
12587W        W28396  16.352  15.005  15.240  0.0635  0.0993 -0.1224
12588W        W28397  11.683  16.764   3.021 -0.0271 -0.3910  0.1007
12589W        W28398   3.849   9.847  13.962  0.0079  0.0951  0.2651
12590W        W28399  10.983   1.090   3.418 -0.1284  0.1565 -0.1338
12591W        W28400  10.037  13.599   0.100  0.3438  0.0127  0.2116
12592W        W28401  18.288  12.308   4.962  0.3064 -0.1611  0.0238
12593W        W28402  17.073   3.854   3.031  0.3387  0.3252  0.1766
12594W        W28403   0.533  16.033   1.628 -0.0425  0.3751 -0.0485
12595W        W28404  16.899  18.445  11.815 -0.1229 -0.1095 -0.1614
12596W        W28405   7.297  15.619   1.317  0.0984  0.1151 -0.1832
12597W        W28406  16.251   0.593  14.461 -0.2066 -0.2732  0.1604
12598W        W28407   1.450   0.275   3.714  0.2919  0.0545  0.0000
12599W        W28408  17.603  16.013  15.071  0.0053  0.0735 -0.1205
12600W        W28409  13.931  11.501  11.719  0.1024  0.1620 -0.1619
12601W        W28410   1.126   8.742   1.421 -0.2668 -0.1029  0.2069
12602W        W28411   1.665   3.018   3.581  0.2479  0.0361 -0.2580
12603W        W28412   2.154   3.641   0.209  0.1596  0.0872 -0.0866
12604W        W28413   3.792   3.575  14.307 -0.3334  0.1198 -0.1681
12605W        W28414   0.876   3.895  14.837  0.2361 -0.0915 -0.0506
12606W        W28415   3.846  16.783  14.323  0.3642 -0.0739  0.2477
12607W        W28416   2.382   6.795  14.732  0.1273  0.0287 -0.1841
12608W        W28417   2.025   8.512  10.558  0.3577 -0.4141 -0.0072
12609W        W28418   1.815  16.137   0.246 -0.1205  0.1161  0.2555
12610W        W28419   7.998   0.267   5.941 -0.1024 -0.0379 -0.2312
12611W        W28420  12.178   1.364  12.945 -0.0299 -0.1221 -0.1038
12612W        W28421  10.533   2.213  14.170 -0.1006 -0.1845  0.1161
12613W        W28422   1.178  16.603   0.602 -0.1262  0.2527 -0.3154
12614W        W28423   8.903  18.431  15.254  0.1285  0.0930  0.1384
12615W        W28424   1.920  14.520  10.022 -0.2286 -0.0576 -0.0648
12616W        W28425  17.672   8.156  14.481  0.2814  0.2582  0.1845
12617W        W28426   5.450   7.005   3.534 -0.0490 -0.0411  0.1248
12618W        W28427  15.600  18.702  10.675  0.1019 -0.2771  0.1881
12619W        W28428   9.341  11.998   0.643  0.0871 -0.2131 -0.0029
12620W        W28429  18.211  18.118  15.207 -0.0389 -0.0167 -0.3289
12621W        W28430   2.044   7.242   4.057  0.2236  0.0912  0.0766
12622W        W28431   2.575  16.163   4.465  0.4610  0.2130 -0.0328
12623W        W28432   6.159  14.187   1.131  0.2171 -0.0334  0.1408
12624W        W28433  17.124   8.197   2.316  0.1150  0.1309  0.1384
12625W        W28434   9.045  16.394   4.348  0.0400 -0.2423 -0.1174
12626W        W28435  11.422  10.493   5.799  0.0313  0.1062  0.0706
12627W        W28436   8.861   1.001   0.566 -0.2647  0.3258  0.2398
12628W        W28437  10.340   2.560  13.113  0.3237  0.1178  0.0329
12629W        W28438  13.042   3.960   3.525 -0.0284  0.3970  0.0960
12630W        W28439   1.062  17.192   3.118  0.2134 -0.2477  0.1742
12631W        W28440  13.814  12.343  11.115 -0.1345  0.0795 -0.3812
12632W        W28441  13.021   7.040   3.610 -0.0660 -0.0175 -0.1956
12633W        W28442   1.823  13.671  12.636  0.1548 -0.3720  0.1173
12634W        W28443   7.700  13.401   3.130 -0.1714 -0.1282  0.1826
12635W        W28444  14.776  12.450  11.756  0.0038 -0.0672  0.1158
12636W        W28445  18.213  17.635   1.127 -0.0387 -0.0880  0.2321
12637W        W28446   3.222  18.565   4.735 -0.1414  0.0480 -0.6137
12638W        W28447  10.178   8.257  11.355  0.0699  0.1699 -0.1396
12639W        W28448   2.886   0.224   1.187  0.0992  0.0175  0.1623
12640W        W28449  13.020  13.149   1.613  0.3889 -0.2546 -0.0748
12641W        W28450  17.492   0.896  13.207  0.0108 -0.0855  0.0268
12642W        W28451   1.200   3.175  10.821  0.1527  0.1056  0.1090
12643W        W28452   6.995   9.946   0.616  0.0508  0.2295 -0.0088
12644W        W28453  12.579  15.734  14.760 -0.0035 -0.1704 -0.1257
12645W        W28454   5.939  16.883  15.351 -0.2386  0.1710 -0.1126
12646W        W28455  14.368   6.359  14.996 -0.0924 -0.0420 -0.0521
12647W        W28456   1.364  12.843   0.210  0.0060  0.1861  0.1785
12648W        W28457   6.776   0.120   4.534  0.2729  0.1794  0.2194
12649W        W28458   4.516  16.213  10.757  0.3693  0.0619 -0.2050
12650W        W28459   4.956  18.432   3.268  0.0151  0.2730 -0.3898
12651W        W28460  14.030  16.001   2.970  0.0144 -0.1531 -0.2523
12652W        W28461   1.853  14.944  14.729  0.1483 -0.0899 -0.2661
12653W        W28462   5.732   4.080  12.550 -0.0242  0.0838  0.0313
12654W        W28463   5.733  16.884  13.456 -0.0194 -0.1625  0.1891
12655W        W28464   3.609  10.410  11.052 -0.0543  0.0169 -0.3780
12656W        W28465  13.039   6.226  15.012  0.3274  0.0889  0.2644
12657W        W28466   7.265   1.341  11.382 -0.2165 -0.1763 -0.0776
12658W        W28467   0.935  17.368   5.207 -0.1428  0.1734 -0.1726
12659W        W28468  17.384   0.392   2.890  0.4689 -0.2171 -0.1704
12660W        W28469   4.627   0.029  11.212 -0.2575  0.1154 -0.1693
12661W        W28470  17.272  18.558  14.040 -0.1202 -0.0183 -0.1314
12662W        W28471   6.718  16.537  13.083  0.1776  0.3301  0.1617
12663W        W28472  14.709  18.575   2.779  0.0829 -0.3243  0.1606
12664W        W28473  11.154  13.227  10.603 -0.0564  0.0778  0.0700
12665W        W28474  13.607   2.569   5.617  0.0107 -0.3933  0.2490
12666W        W28475   8.964  12.893  11.827 -0.3022 -0.1249 -0.0995
12667W        W28476  10.890   6.577   3.846  0.0228 -0.2468  0.1170
12668W        W28477   1.436  11.646   2.930  0.1427 -0.0921 -0.1673
12669W        W28478   6.113  15.252   0.072 -0.2355  0.4729 -0.1576
12670W        W28479  15.996  12.474   4.903 -0.0405 -0.1814  0.0017
12671W        W28480   1.916   2.618  12.473  0.0842 -0.2282 -0.0185
12672W        W28481   9.512   9.105   0.963  0.0113 -0.0739  0.3055
12673W        W28482   7.881   3.013   1.989  0.1437  0.0016 -0.0501
12674W        W28483   8.124  17.421   4.974  0.0853  0.5239 -0.0227
12675W        W28484   0.273   1.743  14.209 -0.0228 -0.0219  0.2007
12676W        W28485   8.558  14.093  12.511  0.3973  0.1531  0.0344
12677W        W28486  11.076  15.078  14.416 -0.0783 -0.0275 -0.3956
12678W        W28487   5.889  11.225  12.231  0.0316  0.0914  0.1141
12679W        W28488  10.667  18.102   2.963  0.0825 -0.0934  0.0994
12680W        W28489  16.806  11.265  14.284  0.2834 -0.3001  0.2495
12681W        W28490   7.991   6.691  14.971  0.0717 -0.1388 -0.0433
12682W        W28491   7.279  12.481   0.809 -0.1356 -0.0757 -0.1275
12683W        W28492  11.675   3.092   1.637  0.0272  0.0816  0.1323
12684W        W28493  16.547  11.248   4.612 -0.0698 -0.1982 -0.0938
12685W        W28494  13.961   0.737  13.797 -0.0155 -0.0567  0.0902
12686W        W28495   9.869   6.188   4.968  0.2049 -0.3523 -0.0026
12687W        W28496  11.534   8.475  15.554  0.1144 -0.2991  0.0803
12688W        W28497   0.246   8.244   3.576  0.1872 -0.3667  0.2628
12689W        W28498  18.678  11.579   2.328 -0.2207 -0.5567  0.1872
12690W        W28499   2.986  11.340  15.350  0.1330 -0.0873  0.5084
12691W        W28500   5.349   1.091   5.464  0.2653 -0.1269 -0.0185
12692W        W28501  17.424  17.291  14.377 -0.1319 -0.2121 -0.1819
12693W        W28502  14.037  12.364  12.386  0.1358  0.0646 -0.0626
12694W        W28503   4.865   1.482  14.456 -0.0861 -0.0999 -0.0836
12695W        W28504  18.047  18.579   3.893  0.0260 -0.2668 -0.1147
12696W        W28505   9.060   8.921   0.348  0.0013  0.1885 -0.1089
12697W        W28506   6.837   0.651   4.731  0.0262  0.1336 -0.0062
12698W        W28507   0.450   5.055   3.753 -0.0677 -0.2490  0.1227
12699W        W28508  17.137   0.800  14.047  0.1585 -0.0984  0.1204
12700W        W28509   3.509  10.405   3.366  0.0401  0.0685 -0.4082
12701W        W28510   3.839   1.375   0.252 -0.2243 -0.0374 -0.1052
12702W        W28511  16.529   4.385   3.469  0.1807 -0.2545  0.3022
12703W        W28512   8.699  14.410   1.487 -0.1731  0.2229  0.0720
12704W        W28513   1.330   0.135   0.860 -0.1777  0.1216 -0.0810
12705W        W28514  18.738   6.014  14.450 -0.0594  0.0073 -0.3438
12706W        W28515   5.765  14.819  14.780 -0.0078 -0.1348  0.0378
12707W        W28516   1.886   7.019   4.431  0.0454 -0.0581 -0.0917
12708W        W28517  11.069   3.637   5.295  0.1146  0.1614  0.0212
12709W        W28518  11.660  13.928   0.161  0.2391  0.0980  0.1190
12710W        W28519   7.133  13.740  12.329 -0.1126 -0.1066  0.1524
12711W        W28520   8.651   5.820   0.286 -0.0737 -0.0548 -0.2883
12712W        W28521   3.472  14.058   4.936  0.3108 -0.2800 -0.0486
12713W        W28522  11.792   6.664   0.991 -0.2388 -0.0469  0.0778
12714W        W28523   3.881   4.356  12.714 -0.0315 -0.0776 -0.2154
12715W        W28524  13.078  12.704  12.766  0.0540 -0.0777  0.1344
12716W        W28525   2.811  16.115  12.009 -0.0437  0.0189 -0.3097
12717W        W28526  11.340  14.445   1.295 -0.0316 -0.1211 -0.1768
12718W        W28527  14.331  15.981   3.397  0.0970 -0.1865  0.1040
12719W        W28528  12.723  14.360   2.152  0.3180 -0.4968  0.1739
12720W        W28529  15.503   0.482  14.275 -0.3605  0.0270  0.0018
12721W        W28530  12.403  14.613   5.179  0.0663 -0.3516 -0.1897
12722W        W28531   5.773   9.442   0.804  0.0824  0.1068 -0.0128
12723W        W28532   1.962  14.098  15.149  0.0787  0.0185 -0.1057
12724W        W28533  16.062   3.200  11.305 -0.0339  0.0299  0.1777
12725W        W28534   7.018   7.266  13.869  0.0508  0.1940  0.5236
12726W        W28535   0.356  11.683   3.078 -0.1052  0.0071 -0.3406
12727W        W28536   2.089  16.430   0.603  0.1911 -0.0239 -0.0123
12728W        W28537   2.688   8.568  11.320  0.0700 -0.1773 -0.2888
12729W        W28538  14.706   9.114   4.003 -0.0641  0.0066  0.2423
12730W        W28539  14.238  16.445   3.191  0.0987  0.2293 -0.0782
12731W        W28540  18.004   8.109   5.297  0.0508  0.0666 -0.0751
12732W        W28541   7.525  11.853  14.066  0.0521 -0.0586 -0.2563
12733W        W28542   4.707  12.767   4.669 -0.1492 -0.1008 -0.1215
12734W        W28543  11.604   4.088  10.879  0.1735 -0.3350 -0.2419
12735W        W28544   9.375   0.244   5.139 -0.0671 -0.0944 -0.0984
12736W        W28545   1.991   2.426   0.511 -0.1537 -0.0022  0.0988
12737W        W28546  18.221   0.726  12.753 -0.4059  0.3432 -0.0507
12738W        W28547  13.835   4.251   5.089  0.0708  0.1584 -0.3270
12739W        W28548   9.756  11.389  12.163 -0.0142  0.0021  0.2788
12740W        W28549   7.941  15.666   2.346  0.0658 -0.0436  0.1193
12741W        W28550   0.450  15.433   3.377 -0.2906  0.3749 -0.1434
12742W        W28551   6.917   7.919   3.147 -0.1037  0.2029 -0.0279
12743W        W28552   8.345  12.441  10.163  0.1432 -0.1463  0.3404
12744W        W28553  12.037  11.098   2.274  0.1806 -0.0038 -0.0994
12745W        W28554  17.076   4.785  14.985  0.0126 -0.1018  0.1743
12746W        W28555  11.227   7.323   0.039 -0.0538  0.0720  0.0224
12747W        W28556   9.090   1.283  11.675 -0.0349  0.0803 -0.0784
12748W        W28557   9.876   7.079  15.283  0.1425 -0.0087 -0.2770
12749W        W28558   6.099   6.148   1.308  0.5853  0.1204 -0.2619
12750W        W28559  10.501  12.494  12.335  0.0523  0.0128  0.2477
12751W        W28560   3.523  17.029  10.610  0.0013  0.0224 -0.5065
12752W        W28561   5.197   7.591   3.791  0.3301 -0.3937  0.1403
12753W        W28562  13.313   5.750   2.995 -0.0821  0.2485  0.1563
12754W        W28563   2.498   9.307  10.939  0.1082  0.1813 -0.3045
12755W        W28564   2.894  17.031   2.496  0.2051  0.0935  0.0206
12756W        W28565   0.259  13.909  14.657  0.1517 -0.0408  0.1554
12757W        W28566   4.310   3.000   1.534 -0.3380 -0.0220  0.3115
12758W        W28567   2.516   1.170  10.005 -0.2881  0.0284 -0.3940
12759W        W28568   0.487  15.930  15.030  0.1443  0.0335  0.1929
12760W        W28569  11.609   0.120  12.778 -0.2340 -0.0548  0.0320
12761W        W28570  11.698   1.142   3.898  0.1895  0.0244  0.3820
12762W        W28571   3.965  11.624  10.057 -0.1603 -0.2341  0.0026
12763W        W28572  14.123   6.525   3.037 -0.0161  0.1935  0.0990
12764W        W28573  11.616  13.026  10.820 -0.0425  0.1792  0.0504
12765W        W28574   8.150   6.239   4.820  0.2588 -0.1496  0.1668
12766W        W28575   6.869  16.248  11.825  0.3667  0.1123 -0.1772
12767W        W28576  10.965   7.078   4.660 -0.0430 -0.0078 -0.0384
12768W        W28577  11.475  12.697  13.035  0.3723  0.1636 -0.1457
12769W        W28578   3.499  11.762   3.660 -0.3661 -0.0547 -0.5086
12770W        W28579   2.945  17.027   3.448 -0.0527 -0.0251  0.0760
12771W        W28580  13.796  15.794  13.265 -0.0850 -0.3135 -0.2085
12772W        W28581   7.065  11.285  14.545 -0.1185 -0.1051  0.3274
12773W        W28582   0.566   3.920   4.118  0.0141  0.0439  0.3254
12774W        W28583  12.183  14.980  11.829 -0.1389 -0.1678 -0.1084
12775W        W28584  16.231  11.138   1.666 -0.2848 -0.2916 -0.0952
12776W        W28585  15.737   2.039  12.403 -0.3374 -0.4574 -0.1124
12777W        W28586   5.889   6.811  12.949 -0.0649  0.1575 -0.0973
12778W        W28587  13.404   7.982  15.177  0.0297  0.3419 -0.3064
12779W        W28588  17.325   2.876  14.320 -0.1568 -0.2000  0.0096
12780W        W28589  10.842   9.554  13.933  0.0985  0.2045  0.2737
12781W        W28590   1.896   3.971  14.334  0.2400 -0.0888 -0.0463
12782W        W28591  12.933  11.680   1.134  0.0646  0.0347 -0.2329
12783W        W28592   6.462  10.597   1.755  0.4378  0.0759  0.0073
12784W        W28593  10.719  16.324   4.514  0.0367  0.1455 -0.2209
12785W        W28594   2.385  14.495   1.495 -0.2012  0.2596  0.4746
12786W        W28595   1.711   6.295  15.208 -0.1726  0.1565 -0.1203
12787W        W28596   9.366   7.992   4.883 -0.1540  0.0806  0.1570
12788W        W28597   5.623  11.053   4.268 -0.1213 -0.0864 -0.0675
12789W        W28598   4.407   2.069   3.203  0.0136  0.3866 -0.0137
12790W        W28599  15.979   8.825   4.665  0.1509 -0.0638 -0.3707
12791W        W28600  10.526  13.874   1.842 -0.1112 -0.0401 -0.2021
12792W        W28601   2.484   8.223   4.815  0.2946 -0.2110 -0.0059
12793W        W28602   4.269  15.874   0.702  0.1681  0.0285  0.0213
12794W        W28603   6.387   4.993  14.332  0.1267 -0.1499 -0.0593
12795W        W28604  18.467   2.482   2.101 -0.1200  0.0231  0.0584
12796W        W28605   5.336   2.866   3.398 -0.1542  0.2324 -0.1740
12797W        W28606   8.704   3.088   1.924 -0.0685 -0.1528  0.1284
12798W        W28607  17.513  10.003   2.226  0.0795  0.0312 -0.2487
12799W        W28608   5.409   1.586  15.055  0.1689  0.0216 -0.3945
12800W        W28609   0.842  13.547   9.658 -0.0047 -0.1861  0.1758
12801W        W28610   3.591   1.574  13.468  0.1524  0.1662 -0.2393
12802W        W28611   7.138  12.098  13.341 -0.1490  0.0291  0.0558
12803W        W28612   7.083   5.094   5.970 -0.2890  0.1237  0.1999
12804W        W28613  10.902   2.946   3.751 -0.1922 -0.0987 -0.0644
12805W        W28614   6.150  17.483   9.825 -0.1288 -0.1594  0.0191
12806W        W28615   9.382   0.540   1.882 -0.0517  0.4292  0.1759
12807W        W28616   5.606  18.084   0.209  0.1201  0.1779 -0.0143
12808W        W28617   6.829  15.786   0.329  0.1899  0.1693  0.1255
12809W        W28618   8.152  17.516   0.421  0.1378 -0.2471  0.1602
12810W        W28619   3.938  18.449  15.208 -0.1451 -0.0884 -0.3351
12811W        W28620   6.822   3.398  14.920 -0.1143  0.0439 -0.0194
12812W        W28621  14.096  16.642  13.497 -0.0129  0.0541  0.1132
12813W        W28622  15.566  13.446   4.968  0.0958 -0.2514  0.1484
12814W        W28623   5.819  15.821   9.996  0.1375 -0.0129  0.1017
12815W        W28624  14.278   5.756  13.674  0.2120  0.3480 -0.1099
12816W        W28625  13.566  14.612   2.548  0.0603 -0.1977 -0.2303
12817W        W28626   7.146   0.191  10.644 -0.4273  0.0539  0.2325
12818W        W28627  17.044   9.118   3.669 -0.0507  0.2752 -0.0668
12819W        W28628  14.757   3.763   4.690  0.3225 -0.1063  0.1883
12820W        W28629   1.603   1.193   2.566  0.1355  0.3647  0.0848
12821W        W28630  10.565   9.829   4.731  0.1378 -0.0252 -0.0309
12822W        W28631   6.824   3.719   2.230  0.0348  0.1413  0.1528
12823W        W28632   7.470  17.790  14.109 -0.1766  0.0796  0.2570
12824W        W28633  14.818  10.859   3.939  0.1589 -0.0318  0.2901
12825W        W28634   0.047   5.574   3.649 -0.2992 -0.0640 -0.3245
12826W        W28635   5.703   2.832   5.148 -0.0734 -0.0604  0.1887
12827W        W28636   8.549  10.450   0.604  0.0474  0.0456  0.0026
12828W        W28637  18.302  16.298   0.275 -0.1244  0.3027 -0.2565
12829W        W28638   0.458   0.696   2.560  0.4483  0.0887 -0.0745
12830W        W28639  12.199   7.710   5.135  0.0184 -0.0163 -0.1555
12831W        W28640  15.559  10.691  14.307 -0.2817  0.1436 -0.0043
12832W        W28641  15.646  10.561   5.034 -0.2134 -0.2024  0.0736
12833W        W28642  11.003  13.943  11.938 -0.1223 -0.0552 -0.4080
12834W        W28643  17.775   1.571   0.413 -0.0570 -0.2395  0.3738
12835W        W28644   3.746  16.215   3.223  0.1761  0.0039 -0.0250
12836W        W28645  12.548   9.438   2.174  0.0193  0.1438 -0.0946
12837W        W28646  13.002  11.070   3.988 -0.0356  0.0464  0.0262
12838W        W28647  13.308   0.663   1.426  0.1584  0.1159 -0.0022
12839W        W28648  11.120   1.507  14.345 -0.1914 -0.0791  0.2411
12840W        W28649  18.210   8.131  11.658  0.1005 -0.1733 -0.1249
12841W        W28650   9.076   9.167   5.158  0.0510  0.2097  0.2695
12842W        W28651  14.203   3.683   0.644 -0.2848 -0.2865  0.0146
12843W        W28652  15.843  13.953  14.882 -0.1250  0.0158 -0.2218
12844W        W28653   9.008  13.333   3.577 -0.0194 -0.1038 -0.0645
12845W        W28654   9.172   5.233  11.199 -0.1307  0.0670  0.2374
12846W        W28655   3.823   7.384  11.695 -0.0697  0.0784 -0.0082
12847W        W28656   5.419  17.722   1.186  0.3193 -0.3367 -0.0564
12848W        W28657   5.203  13.692  15.470 -0.0029  0.0273 -0.0941
12849W        W28658   4.216   4.659   1.214 -0.3776  0.3086 -0.2027
12850W        W28659   9.035  15.551  11.912  0.1158  0.0199 -0.0153
12851W        W28660   8.357  18.569   1.707  0.2489 -0.0585 -0.1255
12852W        W28661  16.150  15.513   3.056 -0.1602  0.1907 -0.1993
12853W        W28662  16.459  15.512   4.096 -0.0744 -0.2573 -0.2068
12854W        W28663  18.428  15.716   1.961  0.0594  0.0357 -0.0102
12855W        W28664   7.165  17.556  15.464  0.2586  0.0819  0.0955
12856W        W28665  11.851   5.142   3.942  0.2212 -0.1427  0.3807
12857W        W28666   1.562   4.738   2.662 -0.1054  0.1649 -0.2440
12858W        W28667   5.708   2.395  15.344  0.0041  0.1927 -0.2026
12859W        W28668   4.388   7.154   6.039 -0.1275 -0.0840 -0.1837
12860W        W28669   4.780   9.131   3.847  0.1716  0.1376  0.0250
12861W        W28670  16.737  16.220  11.067 -0.1181  0.0732  0.1182
12862W        W28671  16.793  16.182  12.647 -0.0150 -0.2678  0.1387
12863W        W28672  13.223  11.551  10.957 -0.0325 -0.0027  0.2590
12864W        W28673   3.758   4.095   5.552 -0.1044 -0.0508  0.0656
12865W        W28674  14.961  11.082   0.615 -0.2933  0.1840  0.1576
12866W        W28675   2.098  15.792  11.141  0.3639 -0.1902 -0.1737
12867W        W28676   5.660   5.137  12.818 -0.2557  0.1345 -0.2217
12868W        W28677   5.586  13.160   5.082 -0.1955  0.3369  0.1333
12869W        W28678  14.390   8.387  15.173  0.4285  0.0109 -0.0305
12870W        W28679   9.553   6.387  12.925 -0.1865 -0.0359  0.4693
12871W        W28680   0.609  11.112  15.560  0.0956 -0.3682  0.0505
12872W        W28681  15.202   3.677  12.801  0.4805  0.0593  0.0290
12873W        W28682   4.886   3.896   3.493  0.1415  0.1809  0.4715
12874W        W28683  16.854  10.234  13.990 -0.1199  0.1486 -0.4814
12875W        W28684   1.288   7.755  11.354 -0.0147 -0.1739 -0.1070
12876W        W28685  14.492   1.373  11.777  0.2347  0.0789  0.1510
12877W        W28686   0.391  16.820  14.995  0.1272  0.0338 -0.0534
12878W        W28687  10.526   0.672   0.515  0.0901 -0.0743  0.1476
12879W        W28688  16.219  18.550   3.687  0.2834  0.1715  0.1618
12880W        W28689  11.103   9.723   2.942 -0.2459  0.3774 -0.1164
12881W        W28690  18.645   2.717   0.194  0.0351 -0.0312  0.1030
12882W        W28691   6.672  13.065  15.151 -0.1466  0.2588  0.2895
12883W        W28692  18.004   9.312   3.645 -0.0399 -0.2668  0.2983
12884W        W28693  12.380   0.869  15.364 -0.0758 -0.1062  0.1265
12885W        W28694   0.911   0.748  14.737  0.0594  0.1816  0.2091
12886W        W28695   3.582  10.507   5.279  0.2549 -0.0270 -0.0322
12887W        W28696  17.749   7.969   0.472  0.0647  0.0477  0.0046
12888W        W28697  16.135  17.246   2.290 -0.1493  0.0450 -0.1260
12889W        W28698   3.093  14.055  12.151  0.0864  0.2811 -0.0313
12890W        W28699  11.385   0.035   0.011  0.2860  0.3070  0.2533
12891W        W28700  12.503  14.919   0.882 -0.2899  0.0875  0.2257
12892W        W28701  16.174   5.209  13.718 -0.0326  0.0316  0.0310
12893W        W28702   7.520  13.871   0.084 -0.0106 -0.1793 -0.1151
12894W        W28703  17.503  14.556  11.368 -0.1214 -0.1736  0.1051
12895W        W28704   3.066  10.652  15.109 -0.0590 -0.0834 -0.0879
12896W        W28705   3.425   3.586  15.346 -0.3471 -0.2594 -0.0900
12897W        W28706  14.787   7.665   3.358  0.1213  0.1786 -0.4133
12898W        W28707   6.295   3.174  11.752  0.0239  0.1537  0.0110
12899W        W28708   7.378   1.469  15.469  0.1493  0.3331 -0.1548
12900W        W28709  16.231  13.087  15.092 -0.0767 -0.0787  0.1069
12901W        W28710   9.453   7.182  11.636  0.2277 -0.0557  0.1969
12902W        W28711   3.782   7.825  15.192  0.0075 -0.2080 -0.1689
12903W        W28712  12.442   9.037   3.082 -0.0425 -0.2130  0.1967
12904W        W28713   4.011  14.938   4.697 -0.0009  0.0232 -0.1878
12905W        W28714   3.419  15.982  12.850 -0.1077  0.0206 -0.3381
12906W        W28715   2.244   2.140  14.111  0.1817 -0.0185 -0.1514
12907W        W28716  18.484  17.469   0.737  0.0661  0.0407 -0.0831
12908W        W28717   1.634  16.253  10.358 -0.1694  0.1104 -0.0931
12909W        W28718   7.106  17.371  10.663  0.0804 -0.4860 -0.0644
12910W        W28719  13.881   3.970   3.505 -0.2910 -0.0662 -0.0811
12911W        W28720   7.715   2.524   3.398  0.3069  0.0566  0.1816
12912W        W28721   3.420   5.255   4.951 -0.0519 -0.1992 -0.1496
12913W        W28722   2.597  11.587   2.990 -0.3693  0.2607  0.0928
12914W        W28723   2.475  16.288   1.001 -0.1266 -0.3027  0.3732
12915W        W28724  13.796  14.827   1.232  0.3447 -0.0432 -0.1047
12916W        W28725  15.686   1.108  12.992  0.4971 -0.0404 -0.3780
12917W        W28726  10.104  17.526  13.032 -0.2613  0.0398  0.1793
12918W        W28727   9.529  10.999  14.750  0.1497 -0.1394  0.0669
12919W        W28728   1.790   7.510   4.483  0.1564  0.0458  0.1384
12920W        W28729   5.048  14.368   1.157  0.1436  0.0655  0.1249
12921W        W28730  17.236   2.960   4.395  0.4417  0.1937  0.1423
12922W        W28731   5.621   3.780  13.149 -0.1277  0.0383 -0.0308
12923W        W28732  10.877   8.207   2.711  0.1634 -0.0610  0.0207
12924W        W28733  17.848   5.853   3.489 -0.3461 -0.0610 -0.1739
12925W        W28734   7.714   1.155   4.936  0.2016  0.1582 -0.0100
12926W        W28735   2.987   4.946  13.537  0.0017 -0.0234  0.0609
12927W        W28736   9.621  18.441  11.364  0.1020  0.1894 -0.3465
12928W        W28737  16.866  11.089  13.690 -0.2376  0.0476  0.2094
12929W        W28738  14.146  12.367   2.404 -0.1629  0.4081  0.1100
12930W        W28739  11.199  17.716  12.767 -0.0410 -0.2229  0.1869
12931W        W28740  16.775   2.439  13.211 -0.2386  0.2090  0.1386
12932W        W28741  16.566   7.953  13.729 -0.0323 -0.0435  0.0693
12933W        W28742   3.069  17.298   2.021  0.2180  0.0943  0.3240
12934W        W28743   4.496   7.650   2.052  0.0043 -0.2907 -0.0664
12935W        W28744  16.743  16.570   2.119  0.0412 -0.2184  0.2857
12936W        W28745  17.314  11.703   0.356 -0.2540  0.2583 -0.0371
12937W        W28746  10.905  16.589   1.085 -0.2919  0.1592  0.0588
12938W        W28747  16.124  14.529   2.930  0.0199 -0.3348  0.1272
12939W        W28748  15.385   6.506  11.482  0.0272 -0.0669 -0.0094
12940W        W28749   0.424   7.752  10.855 -0.0087 -0.1275 -0.0116
12941W        W28750  13.090  10.067  14.265  0.0093  0.2865 -0.0550
12942W        W28751   9.237  16.236  14.056  0.1414  0.1733 -0.1473
12943W        W28752  14.737   2.004   2.402  0.0707  0.0397 -0.2823
12944W        W28753  13.205   1.566   1.233  0.3283  0.2097  0.2510
12945W        W28754   6.828  13.517  15.025  0.2103  0.2254 -0.2084
12946W        W28755  10.034   1.660  11.474 -0.1722  0.1977 -0.0908
12947W        W28756  10.033  14.689  12.181  0.0446  0.0839  0.0244
12948W        W28757  10.716   3.307  12.424 -0.0575 -0.3534  0.1986
12949W        W28758   9.717   9.624   5.579  0.1644  0.0155  0.0034
12950W        W28759   2.556   6.604   3.862  0.0102  0.1632  0.0789
12951W        W28760  18.435   1.955   4.438  0.0080 -0.0381 -0.0905
12952W        W28761  14.273   8.971   2.444 -0.1695  0.1537 -0.1022
12953W        W28762   1.977   9.548   9.637 -0.1014  0.0496  0.0396
12954W        W28763   9.793  14.533  13.927  0.1405  0.0216 -0.0827
12955W        W28764   5.101   8.978   4.206 -0.3197  0.1489  0.3063
12956W        W28765   6.417   5.136   2.172  0.0994 -0.2411  0.0931
12957W        W28766   6.671  18.338  13.684 -0.3080  0.0686  0.1885
12958W        W28767   2.044   4.432  15.481  0.1924 -0.1889  0.0018
12959W        W28768   6.284  11.851  12.292 -0.0652  0.2252 -0.2954
12960W        W28769   6.599   0.297  12.178  0.2313  0.0918  0.0853
12961W        W28770  15.473   5.667  11.742  0.1283 -0.0971 -0.0751
12962W        W28771  11.535  14.385   0.081 -0.2923  0.1311  0.0197
12963W        W28772   7.536  17.772  13.580  0.0950  0.2468  0.1228
12964W        W28773  12.144   0.717   1.684  0.1022  0.1248  0.0517
12965W        W28774  16.754  18.516   1.624 -0.3492  0.1997 -0.2404
12966W        W28775   3.632  11.836   2.706  0.0359  0.1548 -0.2000
12967W        W28776  12.366   5.193   1.602 -0.0771  0.1841 -0.2149
12968W        W28777   3.833  16.333   9.584 -0.0546  0.1044  0.0267
12969W        W28778  12.531  13.437   0.580 -0.1255 -0.2503 -0.2809
12970W        W28779   9.136   9.294  11.141  0.5011  0.2634  0.0800
12971W        W28780  10.212   2.282   1.192 -0.1906  0.3908  0.1009
12972W        W28781  18.700  13.960   3.957  0.0556  0.0597 -0.0536
12973W        W28782   0.348  11.554  13.505 -0.3405  0.1460  0.4300
12974W        W28783   6.335  12.232  13.655 -0.0072 -0.2335 -0.1118
12975W        W28784   5.637  15.610  11.463  0.2194 -0.0065  0.0309
12976W        W28785   0.970  17.604  12.018  0.0910 -0.2085  0.1344
12977W        W28786   8.650  15.752   0.389 -0.0063 -0.1292  0.4512
12978W        W28787   0.657  15.879  11.645 -0.1005 -0.2106 -0.2252
12979W        W28788   4.988  17.622   4.873 -0.0132  0.0686  0.1445
12980W        W28789   5.801   4.725   0.392 -0.2687  0.3557  0.0950
12981W        W28790  18.339  10.319   1.050 -0.0961  0.0042  0.0763
12982W        W28791  16.869   5.839   4.661  0.2323  0.0518 -0.0672
12983W        W28792  15.938   2.645  14.448 -0.4787  0.1976  0.1068
12984W        W28793  17.585   7.270  12.653  0.0741 -0.1093 -0.3651
12985W        W28794   4.988  11.966   9.348  0.0190 -0.1096  0.2392
12986W        W28795  11.238  12.791  11.775 -0.2057 -0.1875  0.0377
12987W        W28796  13.931  11.182   2.123  0.1607 -0.0981 -0.0412
12988W        W28797  16.637  16.257   3.357 -0.1979  0.0771 -0.2611
12989W        W28798   7.242  13.092  12.958 -0.3731  0.0596  0.1231
12990W        W28799   1.758   8.750  11.823  0.0088 -0.0031  0.3407
12991W        W28800   5.473  15.365  11.910  0.0342  0.0011 -0.0492
12992W        W28801   9.631  15.503   1.014  0.0548  0.4539  0.0259
12993W        W28802   5.138  17.554   0.711 -0.0126  0.0474  0.1667
12994W        W28803   9.828   2.867  11.947 -0.1149  0.0259 -0.1619
12995W        W28804   1.940   8.108   1.616  0.0131 -0.1330  0.1438
12996W        W28805   6.905   7.558  12.509 -0.3361  0.2037  0.0378
12997W        W28806   8.928  13.761   2.973  0.0069 -0.0583  0.0599
12998W        W28807  12.961   0.495  12.230  0.2608  0.0111  0.1057
12999W        W28808   7.790  13.621   2.339 -0.0546 -0.1253  0.0564
13000W        W28809   8.883  14.749  12.962  0.0945  0.0748  0.2590
13001W        W28810  16.092   1.753  11.585  0.1350 -0.1664 -0.2633
13002W        W28811  11.994  12.119  10.510 -0.1150 -0.4983  0.2138
13003W        W28812  15.681  17.279  14.221 -0.0375 -0.3408  0.2446
13004W        W28813  13.584   7.757  14.684 -0.1196 -0.0414 -0.0402
13005W        W28814   9.313   3.245   0.437  0.2480 -0.2488  0.1779
13006W        W28815   5.913   8.902  10.831  0.2134  0.1682  0.0550
13007W        W28816  14.427  14.659  13.976  0.0222  0.1859  0.1087
13008W        W28817  10.605  13.052   4.605  0.0805 -0.0224 -0.0942
13009W        W28818   9.480   6.464  13.569  0.2772  0.2023 -0.1613
13010W        W28819  10.119   3.843   4.948 -0.4034 -0.0072 -0.1340
13011W        W28820   4.812   3.453  13.360 -0.4021  0.0249  0.0651
13012W        W28821  17.869   5.029   2.133 -0.0552 -0.0352 -0.2164
13013W        W28822   5.915   0.190  15.285 -0.0036 -0.0602  0.1909
13014W        W28823   3.252   7.640  13.449  0.0322  0.0996 -0.1664
13015W        W28824   8.005   1.485   3.491  0.1060 -0.1806 -0.1022
13016W        W28825   0.265   0.642  15.095  0.2337 -0.2205 -0.0208
13017W        W28826  11.861  15.590  14.382 -0.1217 -0.0223  0.1127
13018W        W28827   6.725   7.317   1.777 -0.1310  0.1537 -0.1675
13019W        W28828  12.789  17.295  11.788 -0.0671 -0.4542  0.1629
13020W        W28829   9.574   3.649   2.017 -0.0471  0.1209  0.2589
13021W        W28830   5.599  10.598  12.566  0.0788 -0.1213  0.1870
13022W        W28831   6.621  16.241  14.818 -0.3579  0.2540 -0.1304
13023W        W28832  13.960   5.423   0.215  0.2297 -0.0087  0.1921
13024W        W28833   9.102   3.638  14.819 -0.4323  0.0760  0.0374
13025W        W28834   6.735  12.177  12.829 -0.3387  0.0893  0.1370
13026W        W28835  18.230   4.915   1.763  0.2278 -0.2459 -0.0806
13027W        W28836   9.761   2.192  11.436  0.1266 -0.0771  0.2829
13028W        W28837   6.853   6.993   0.391 -0.2313 -0.1914  0.0202
13029W        W28838   4.601   8.623   5.434  0.2151 -0.1810  0.0533
13030W        W28839   6.171  18.027  15.551 -0.3196 -0.1256 -0.1438
13031W        W28840   8.247  17.080  14.129 -0.1225 -0.2220  0.0634
13032W        W28841   3.721   3.026  15.170 -0.4944 -0.1324 -0.1439
13033W        W28842   3.678  10.230   0.147 -0.0169 -0.3465 -0.1782
13034W        W28843  12.156   1.795   0.308 -0.0793  0.3551 -0.2318
13035W        W28844   3.988  14.789   0.790  0.0263 -0.0836  0.0857
13036W        W28845   2.485  17.806  13.681 -0.0230  0.1474  0.0643
13037W        W28846  13.407   2.393   3.716 -0.0695 -0.1375 -0.0187
13038W        W28847  13.106   9.114  15.088 -0.1680 -0.1273  0.1611
13039W        W28848   8.685   3.839  14.939 -0.2476 -0.1410  0.2438
13040W        W28849  16.879   5.097   3.927  0.0419 -0.2231  0.1337
13041W        W28850  17.470   3.851   0.559  0.3281  0.0349  0.0541
13042W        W28851   1.801   0.597  11.651 -0.0186 -0.3168 -0.2556
13043W        W28852   8.412   9.050  12.724  0.0530  0.1883 -0.2782
13044W        W28853  12.741   7.742   2.856  0.1068  0.0060 -0.3258
13045W        W28854  14.342   9.116  14.285 -0.3144 -0.0023 -0.2507
13046W        W28855  12.745   9.453   5.102  0.2999  0.0547  0.1263
13047W        W28856   3.243   0.325   3.284  0.1643 -0.0045  0.0464
13048W        W28857  18.489   5.928   2.660  0.0532  0.1516  0.0092
13049W        W28858   6.827   3.324   4.147 -0.3067  0.0625 -0.3128
13050W        W28859  17.545   4.344   1.060  0.1791 -0.0756  0.1366
13051W        W28860  16.306  15.364  11.459 -0.2161  0.0620 -0.3041
13052W        W28861  15.090  13.629   0.434  0.0421  0.1937  0.0687
13053W        W28862   3.810   1.687   2.203  0.3076 -0.0445  0.0907
13054W        W28863   6.850  10.155  10.921  0.3179 -0.2127 -0.0883
13055W        W28864   8.879  18.270  14.710 -0.1958  0.3047  0.0537
13056W        W28865  16.886   2.610  15.276 -0.0882  0.2158  0.0788
13057W        W28866  16.445  16.323  10.585  0.1425 -0.0723 -0.1936
13058W        W28867   8.406   5.087  14.250 -0.2101  0.3252 -0.1165
13059W        W28868  12.166   1.335   4.802  0.2007  0.1242 -0.0190
13060W        W28869  11.265   6.398  12.498  0.1207  0.1616  0.0091
13061W        W28870   4.433   3.769  11.517  0.0602  0.1652  0.1017
13062W        W28871   5.827   7.728  14.170 -0.1220  0.0842  0.0098
13063W        W28872   3.359  12.183   3.994  0.3788 -0.0629 -0.4336
13064W        W28873  16.747   0.141   3.697  0.0507 -0.0911 -0.2291
13065W        W28874   7.357   6.164  10.070  0.2015  0.0816  0.0817
13066W        W28875   4.116   3.834   5.288  0.0108 -0.0849 -0.0065
13067W        W28876  12.917   0.625   2.181 -0.1440 -0.3153  0.4286
13068W        W28877   3.465   0.586   4.823  0.0187 -0.3694 -0.0345
13069W        W28878  18.257  14.175  11.278 -0.1962  0.1658  0.0434
13070W        W28879  10.128   6.184  15.499 -0.0696  0.0122  0.1641
13071W        W28880   6.105  10.252   4.068  0.0337  0.2171  0.1206
13072W        W28881   1.429   6.832  13.251  0.1369 -0.1951  0.1195
13073W        W28882  10.918   1.677   1.256  0.1645 -0.1444 -0.0719
13074W        W28883   0.472  17.761  10.852 -0.2127  0.0266 -0.2416
13075W        W28884   8.564  17.697  13.439  0.0112  0.0411  0.2703
13076W        W28885   6.855   7.131  10.580 -0.3750 -0.2103 -0.1342
13077W        W28886  16.780  17.648   4.493 -0.0868  0.4077 -0.3345
13078W        W28887   1.190   8.798  11.801  0.2275  0.4186  0.0561
13079W        W28888  11.416   1.635  12.160  0.2373  0.0888 -0.1894
13080W        W28889   9.813   2.364   3.398 -0.1550  0.0882  0.0969
13081W        W28890   8.824  17.094   2.590 -0.1221  0.0688  0.0167
13082W        W28891   1.110  13.401  12.939  0.2378 -0.4941 -0.0103
13083W        W28892   6.035   8.377   2.339 -0.5126 -0.2187 -0.1317
13084W        W28893  15.004  11.017  13.700 -0.0389 -0.1721 -0.1060
13085W        W28894   9.832  10.141   4.318  0.1970  0.0185 -0.0788
13086W        W28895  16.163  16.397   3.466 -0.1785  0.1269 -0.2727
13087W        W28896  17.882  11.241   3.303  0.0324  0.0861  0.1046
13088W        W28897   2.801   3.602   4.967  0.2145  0.0581  0.0679
13089W        W28898   4.974  17.170   2.448  0.0877 -0.1219 -0.1193
13090W        W28899   1.957   2.497   1.913  0.0996  0.1010  0.0768
13091W        W28900   4.555  14.119  11.043 -0.1174 -0.0217  0.1100
13092W        W28901  16.168  12.464   5.385 -0.0964  0.1269 -0.1923
13093W        W28902   8.131   3.406  14.280 -0.2098 -0.2267 -0.0678
13094W        W28903   1.104   0.506  10.857 -0.0590 -0.0297  0.0343
13095W        W28904   2.995  18.597   0.716  0.0505 -0.0000 -0.0745
13096W        W28905   9.869  12.648   1.585  0.2135  0.0890  0.1849
13097W        W28906  11.909  15.589   1.196  0.0346 -0.2404  0.1097
13098W        W28907  10.970   8.590   1.313 -0.1623 -0.0317 -0.3156
13099W        W28908  11.105  14.365   0.859  0.4135 -0.1451 -0.1497
13100W        W28909   0.062   4.358   0.586  0.0291 -0.1889  0.1027
13101W        W28910   8.092   0.301  15.247 -0.0406  0.1237  0.1386
13102W        W28911   6.851  17.609  11.031  0.0489 -0.0581  0.1793
13103W        W28912  15.005   1.932   0.785 -0.0920 -0.3953 -0.1629
13104W        W28913   8.992  13.071   5.847  0.0798  0.3145 -0.0007
13105W        W28914   6.529   2.464   2.696  0.1513  0.0413 -0.1085
13106W        W28915   8.600   2.431  13.353  0.2081  0.0059  0.1586
13107W        W28916  16.589   1.015  11.998 -0.0012 -0.2254 -0.0688
13108W        W28917  17.445   6.878   1.082 -0.0835 -0.1546 -0.1665
13109W        W28918   8.437   2.990  11.156 -0.0915  0.0256  0.2829
13110W        W28919  15.985  16.038  14.510 -0.0297 -0.4276 -0.0101
13111W        W28920  10.724  15.699   5.458  0.1618  0.1100  0.1256
13112W        W28921  14.186  17.327   1.504  0.1739 -0.0207  0.0327
13113W        W28922   2.075  14.115   2.059 -0.0322 -0.0193 -0.1366
13114W        W28923  11.456   9.058  12.661 -0.1186  0.0711 -0.0619
13115W        W28924   6.546  13.574  15.428  0.0451  0.1611 -0.0786
13116W        W28925  11.820   0.137   4.841  0.3177 -0.2008  0.4303
13117W        W28926   2.250  13.923  13.008 -0.2860 -0.1834  0.0541
13118W        W28927   6.961  12.691  13.989 -0.0018  0.0292  0.1412
13119W        W28928  11.995   9.013   2.126 -0.1381  0.3042  0.0559
13120W        W28929  11.228  12.823  13.577 -0.3272 -0.1021  0.0604
13121W        W28930   4.062  14.334   9.737 -0.1970  0.0437  0.0425
13122W        W28931  14.649   9.629  11.395  0.0650 -0.1862 -0.0975
13123W        W28932  16.244   2.214   0.196  0.0794  0.0403  0.2831
13124W        W28933  10.542  14.424  13.232 -0.1500 -0.1225  0.3381
13125W        W28934   7.766  10.738  12.998  0.2752 -0.1436 -0.0791
13126W        W28935   0.232  15.715  12.708 -0.0951  0.0497  0.0628
13127W        W28936   5.325  10.199  14.758 -0.0329  0.1731  0.0735
13128W        W28937  16.000  17.300  13.739 -0.1227 -0.2664  0.0283
13129W        W28938   2.530   7.141  14.028  0.2589 -0.0799 -0.2191
13130W        W28939   9.706   6.738   1.679 -0.0264  0.1634 -0.2410
13131W        W28940  13.541  10.613  12.224 -0.1921  0.1914 -0.0578
13132W        W28941   9.247  11.580  12.704 -0.5675 -0.1881 -0.1799
13133W        W28942  17.938  18.582  13.489 -0.1945  0.0338 -0.0721
13134W        W28943  14.822   8.055  13.549 -0.3564 -0.3757 -0.0582
13135W        W28944   1.960  14.048  10.392 -0.0474  0.0465 -0.1036
13136W        W28945  12.476  13.358   4.667  0.1445 -0.0042  0.0182
13137W        W28946  15.165   6.172  14.319 -0.3020 -0.0312  0.0328
13138W        W28947   6.793   7.127   3.522 -0.2950 -0.1947 -0.0054
13139W        W28948   4.723  18.399   0.770 -0.1556  0.3622  0.0360
13140W        W28949   2.626  15.535   0.369  0.0347  0.1216  0.0313
13141W        W28950   8.213   5.338  15.133 -0.2709 -0.3274 -0.4230
13142W        W28951  18.415   6.794   2.044  0.1921  0.1363 -0.2772
13143W        W28952   6.675   4.402   0.750  0.1818  0.1250  0.2715
13144W        W28953  14.344  16.503   2.515 -0.2590  0.1748 -0.3139
13145W        W28954  14.159   6.921   1.700 -0.1923  0.2632 -0.0132
13146W        W28955   8.411   3.652   5.215  0.1227  0.1294  0.0809
13147W        W28956   4.354  17.776  12.763 -0.0410 -0.1108 -0.0693
13148W        W28957   1.254   4.735   3.964 -0.1490  0.1372 -0.0330
13149W        W28958  15.239   7.097  11.223 -0.0109  0.0429  0.2333
13150W        W28959  10.382   9.970   2.422  0.0245 -0.0674 -0.1195
13151W        W28960   3.204   1.917   3.701 -0.0463  0.1568  0.0529
13152W        W28961   0.667   8.421   4.296  0.1822  0.0881 -0.3487
13153W        W28962   9.742  10.270   1.729  0.2390 -0.0441  0.2544
13154W        W28963   8.626  18.676  14.397 -0.3429 -0.0745  0.0259
13155W        W28964   2.365   4.967   1.593 -0.1546 -0.1215  0.2296
13156W        W28965   2.307   4.623  11.416 -0.1264  0.0513 -0.3672
13157W        W28966   9.986   3.625   1.566  0.0298 -0.1232  0.0147
13158W        W28967  10.862   5.602  15.504  0.1456  0.0871 -0.1402
13159W        W28968   0.565   9.210  13.272  0.0083  0.0956  0.1854
13160W        W28969   2.016  14.730  14.264  0.1920 -0.1341  0.2042
13161W        W28970  17.354   2.971   3.527  0.2220 -0.3797 -0.0935
13162W        W28971  10.124  16.002  14.775 -0.0464  0.0104  0.0192
13163W        W28972   1.747   3.314  13.293  0.1403 -0.0822  0.0231
13164W        W28973   7.414  14.056   2.283 -0.3236  0.0688 -0.0940
13165W        W28974  17.640  12.475  12.683 -0.2270  0.0825  0.1993
13166W        W28975  16.062   9.796  11.792  0.0702  0.4583  0.0046
13167W        W28976   9.601   5.363  10.208  0.2287 -0.1248 -0.1692
13168W        W28977   6.780  17.841   1.676  0.3425 -0.0103 -0.1338
13169W        W28978   5.902  14.796  12.665  0.1828  0.1314  0.1450
13170W        W28979  17.224   5.202   3.460  0.1258 -0.1995 -0.2277
13171W        W28980  13.224   9.888   0.370  0.0138 -0.0113 -0.1377
13172W        W28981  14.428  17.516  13.074  0.0873 -0.2534 -0.2053
13173W        W28982   6.517  11.931   2.328 -0.5325 -0.1159  0.3081
13174W        W28983  13.111   3.692   4.188  0.1169 -0.0107 -0.1475
13175W        W28984  13.000  15.676  11.889  0.4880  0.1437  0.1327
13176W        W28985   6.538  13.406   1.317 -0.3054 -0.2064  0.1299
13177W        W28986  14.198   0.686   3.948  0.1203  0.1188  0.1233
13178W        W28987   0.218   6.655  11.798 -0.1456  0.0253 -0.0046
13179W        W28988  10.786  12.304   2.748  0.2309  0.2610 -0.0600
13180W        W28989  12.712  15.828   5.493  0.2143  0.0919  0.3001
13181W        W28990   5.645   1.845   2.249  0.1582 -0.1928 -0.0077
13182W        W28991  10.379   9.020  13.075 -0.1703  0.0130  0.0764
13183W        W28992   7.255   1.902   3.546 -0.0963 -0.0165 -0.0396
13184W        W28993  13.115  16.630  14.914  0.2604  0.1747  0.1500
13185W        W28994   6.106  13.914  11.417  0.0858 -0.1719  0.1569
13186W        W28995  10.927  12.159  15.273  0.0087 -0.2746 -0.1184
13187W        W28996   4.349  14.984  14.444  0.1355 -0.1178  0.0084
13188W        W28997   4.167  16.331   2.979  0.1163 -0.0335 -0.1565
13189W        W28998   6.037   7.645   5.232  0.2036  0.1095 -0.3507
13190W        W28999   3.657   3.892  12.731  0.1727 -0.2173 -0.2212
13191W        W29000   9.999  10.618  13.349  0.1117  0.3413 -0.0241
13192W        W29001  17.802   5.368   5.796 -0.1480  0.1758  0.2003
13193W        W29002  13.247   8.792  13.152  0.2059  0.1310 -0.2634
13194W        W29003   6.408   2.945   2.931  0.0188  0.1667 -0.1597
13195W        W29004  18.269  16.244   5.121  0.1104 -0.0273 -0.0948
13196W        W29005  15.444   0.166   4.294 -0.4644 -0.0292 -0.2088
13197W        W29006   8.558  12.077  13.963 -0.1536 -0.4677  0.0305
13198W        W29007   2.799   8.679   5.138 -0.1528 -0.0692  0.0867
13199W        W29008  18.067  16.563   2.525  0.2162 -0.0330 -0.1799
13200W        W29009   3.860   4.328   0.008  0.0447  0.1970  0.1015
13201W        W29010   3.757   6.956   1.796  0.1397 -0.1853 -0.4236
13202W        W29011  14.739  18.504   3.715 -0.2194  0.0504  0.2038
13203W        W29012   1.182  17.675   1.192  0.3654 -0.3180  0.1855
13204W        W29013  15.683   3.945  15.312 -0.1438 -0.0731  0.1538
13205W        W29014  12.845  18.519  12.684 -0.1628 -0.0442 -0.0272
13206W        W29015   5.666   4.350  14.311 -0.0899 -0.1100 -0.2011
13207W        W29016   7.337  10.501  11.276  0.0432 -0.2128 -0.0298
13208W        W29017  14.359  17.097  11.206  0.0019 -0.2299  0.6311
13209W        W29018   7.064  11.292  10.816  0.2730 -0.2759  0.1616
13210W        W29019  12.368   3.932  13.520  0.1831  0.2110  0.4363
13211W        W29020  12.328   8.583  10.534 -0.2084  0.1175  0.1885
13212W        W29021  15.897  15.771  12.584 -0.0745  0.1058  0.0177
13213W        W29022  17.301  10.040  12.579 -0.1877 -0.1429 -0.2748
13214W        W29023   6.605   0.045  13.883 -0.1187 -0.1890 -0.0058
13215W        W29024  16.233   8.025   0.682 -0.2252 -0.0849  0.0471
13216W        W29025   1.036  16.330   1.376 -0.0093  0.0235  0.0849
13217W        W29026   1.705   2.626   4.813 -0.0085  0.1511  0.0912
13218W        W29027  18.769   8.384  12.646  0.0733 -0.4453  0.0757
13219W        W29028   0.101  15.510   2.266 -0.0145  0.1250 -0.2199
13220W        W29029  15.530   2.362  13.694  0.1721 -0.2525 -0.0553
13221W        W29030   1.581   4.047   9.547  0.0536 -0.2290 -0.2053
13222W        W29031   2.351   0.380   1.540  0.3844 -0.1049  0.0563
13223W        W29032   3.806   4.561  12.257 -0.1356  0.0663  0.3509
13224W        W29033   2.732  12.991   5.502  0.1203  0.1080 -0.2251
13225W        W29034  10.008   3.842  14.071  0.2372  0.0015 -0.1251
13226W        W29035  13.914  10.092   1.712  0.3156  0.0056 -0.2517
13227W        W29036  13.009   5.647  15.501 -0.0716 -0.4178  0.0104
13228W        W29037  15.774  12.884   1.728 -0.0303 -0.0531 -0.1798
13229W        W29038   7.905  13.482   4.464  0.0970 -0.2655 -0.0946
13230W        W29039  18.548   0.077   5.931 -0.2551 -0.0798  0.2682
13231W        W29040   9.445  14.836  13.744 -0.1811 -0.2144 -0.3965
13232W        W29041  12.597   1.089   2.879  0.0189  0.1004  0.0352
13233W        W29042  17.447   8.464   0.327  0.1032 -0.1043 -0.1938
13234W        W29043   4.792   9.678  14.171 -0.0349  0.0123  0.0433
13235W        W29044   4.877  18.042  11.058  0.2413  0.1418  0.1535
13236W        W29045   1.383  14.959   2.194 -0.0216 -0.1194  0.1216
13237W        W29046  12.531  13.875  14.651  0.2218  0.1530  0.0879
13238W        W29047   6.560   4.199  15.473  0.3380  0.1842 -0.0432
13239W        W29048   0.317  15.735  10.634 -0.0670 -0.0908  0.0021
13240W        W29049   8.825   0.925   3.878  0.0710 -0.1599  0.0353
13241W        W29050  18.483   5.832   3.298 -0.0191  0.2197 -0.0507
13242W        W29051   3.247   8.487   4.296 -0.0922 -0.4493 -0.2633
13243W        W29052  13.314  14.056   5.047  0.0019 -0.0572  0.0451
13244W        W29053  13.188   6.721   2.143  0.0164 -0.1020 -0.2264
13245W        W29054  16.584  11.421  14.745  0.2494 -0.1541 -0.0431
13246W        W29055  13.000  18.116  12.426 -0.2411 -0.2683  0.2224
13247W        W29056  10.036  13.953   1.309  0.1902  0.2042 -0.0332
13248W        W29057  10.932   8.889  13.038  0.0453 -0.1244  0.0989
13249W        W29058  12.607  12.241   3.193  0.1004 -0.1457 -0.0441
13250W        W29059  15.942   3.088  14.263 -0.0807  0.3481  0.0021
13251W        W29060  13.092   1.443   0.744  0.0355 -0.0646  0.3625
13252W        W29061  17.276  12.763  11.568 -0.0846 -0.2831 -0.1810
13253W        W29062  16.868   8.220  11.032 -0.2131  0.2190  0.1715
13254W        W29063  15.185   7.759  10.335 -0.1447 -0.1304 -0.2509
13255W        W29064   2.064  15.686   2.456  0.0368  0.0734 -0.1200
13256W        W29065  14.488   9.102   5.823  0.0721  0.2546  0.3444
13257W        W29066  11.927  14.550  11.558  0.0732 -0.4764 -0.0554
13258W        W29067   9.607  10.624   2.168 -0.0778 -0.0501 -0.2146
13259W        W29068   6.556  16.735   4.253 -0.1042 -0.1415 -0.5262
13260W        W29069   3.688   7.242   4.339 -0.1872  0.4363 -0.1450
13261W        W29070  15.333  16.749   3.694 -0.2620  0.0908 -0.0194
13262W        W29071   7.434  12.014  11.510 -0.1458 -0.3030 -0.0613
13263W        W29072   6.675  12.337   1.298  0.0593  0.2323 -0.2349
13264W        W29073  12.953  16.080   2.992 -0.2191  0.0707  0.2281
13265W        W29074   8.664  13.503   2.086 -0.0135  0.3054  0.1197
13266W        W29075  16.655   6.853   1.342 -0.0207  0.4416  0.1050
13267W        W29076  13.826   9.297   3.850  0.0552  0.0006 -0.0283
13268W        W29077   3.041  11.732  13.982  0.0794  0.0380 -0.2321
13269W        W29078  11.840   7.022  12.943 -0.0922  0.0861 -0.1617
13270W        W29079   3.788   3.874   2.178 -0.1237 -0.1577  0.0462
13271W        W29080  14.042  16.920   1.878 -0.2614  0.4990  0.1581
13272W        W29081   1.999  15.518  13.405  0.1452  0.0028 -0.1791
13273W        W29082  12.064   0.755   5.432 -0.2400  0.0024  0.0272
13274W        W29083  10.451   9.640   5.153  0.1048  0.0652 -0.2387
13275W        W29084  16.808  15.377  15.218 -0.1022 -0.0792  0.3525
13276W        W29085  15.645   4.952  15.181 -0.0648  0.2004  0.0570
13277W        W29086   0.682   6.626  14.557  0.2177  0.2372 -0.3429
13278W        W29087  14.800  14.938   5.570  0.0180  0.2558 -0.0790
13279W        W29088   4.893  11.388   4.655 -0.1188 -0.1317 -0.2693
13280W        W29089  18.270  16.741   1.212  0.0378 -0.0959  0.0350
13281W        W29090   9.882   7.457  13.033  0.0782  0.2190 -0.0306
13282W        W29091  13.575  14.059  13.772 -0.2091  0.3600  0.2723
13283W        W29092   0.025  11.941  11.736 -0.1718 -0.2134 -0.3216
13284W        W29093  10.917   8.841   3.945 -0.0443  0.0005 -0.0321
13285W        W29094   1.840   0.920   4.216 -0.0786  0.2201  0.0067
13286W        W29095  15.172   8.634  12.190  0.1250 -0.1060 -0.0903
13287W        W29096  10.393  15.527  11.121  0.1500 -0.0471  0.4018
13288W        W29097   0.574  11.955  11.821 -0.2406 -0.0587  0.0393
13289W        W29098   4.689  11.781  10.633 -0.0751 -0.1282 -0.2257
13290W        W29099  11.360   3.065   3.420  0.1257 -0.1969  0.0260
13291W        W29100  18.060  16.240  12.854  0.2590 -0.3049  0.2187
13292W        W29101   1.104  12.268   9.452 -0.1497  0.0347 -0.0870
13293W        W29102  13.431   3.588  11.606 -0.1419  0.1116 -0.1644
13294W        W29103  15.811   4.279   2.939 -0.0408 -0.2264  0.1401
13295W        W29104  17.308   1.966   2.683 -0.1353 -0.2430 -0.1762
13296W        W29105   1.555   4.825   3.601  0.0907  0.0758 -0.1799
13297W        W29106  18.389   7.874   0.232  0.4455 -0.1700  0.1693
13298W        W29107  17.626  18.721  15.402  0.0453 -0.1996  0.3309
13299W        W29108   6.648  13.607  11.071  0.0260  0.1813 -0.1416
13300W        W29109   8.503  16.407  12.925  0.0479  0.3548  0.2201
13301W        W29110   8.574  15.620  12.710  0.1079  0.0454 -0.1700
13302W        W29111  10.086   2.318   3.945 -0.1993  0.2079 -0.2631
13303W        W29112   3.374   2.426   3.581 -0.2010 -0.1979  0.0694
13304W        W29113  14.443  10.412   0.998  0.2033 -0.0689  0.3917
13305W        W29114  14.484   2.267   3.779 -0.0606  0.0899 -0.0194
13306W        W29115   6.972   4.124   1.282 -0.4304 -0.0465 -0.3790
13307W        W29116  18.733  10.425   1.704 -0.2075 -0.0289  0.0333
13308W        W29117  15.899   5.082  11.122  0.1697 -0.3839  0.0280
13309W        W29118   9.756  17.736   2.220  0.1617 -0.0256 -0.0100
13310W        W29119  14.348  16.879  14.888  0.0361 -0.0998 -0.0893
13311W        W29120  16.638   5.550  10.767  0.1828 -0.2708 -0.0990
13312W        W29121   3.233   1.838   5.595 -0.2034  0.0859  0.1995
13313W        W29122   3.859  12.627   0.361  0.0090 -0.0531  0.6330
13314W        W29123  13.346  15.583   4.277 -0.2772 -0.3244  0.0335
13315W        W29124   8.279  13.285  11.361  0.1682 -0.1978  0.1603
13316W        W29125   0.932   0.925  11.040 -0.0968 -0.2625 -0.1601
13317W        W29126   6.433  12.588  15.057 -0.2583 -0.1111  0.2287
13318W        W29127   6.255   1.777   3.516  0.0443 -0.2817  0.0516
13319W        W29128   5.851   1.617  13.051 -0.2991 -0.6773 -0.1073
13320W        W29129  13.399   7.041  13.750 -0.2934  0.2420 -0.0626
13321W        W29130   1.933   0.548   2.585 -0.3097  0.5199  0.1110
13322W        W29131   5.828  13.689   3.513 -0.0880  0.1278 -0.2175
13323W        W29132   9.815  18.479   4.104 -0.0936 -0.0963  0.1803
13324W        W29133  17.232  11.207  12.941 -0.1481  0.0988 -0.3320
13325W        W29134  16.570  14.206  12.212 -0.0704 -0.1300 -0.0109
13326W        W29135   2.598  17.817  11.262 -0.1017 -0.3393  0.0388
13327W        W29136   5.830  16.521  14.891 -0.0815  0.2327 -0.1904
13328W        W29137  13.626   9.887  11.449  0.2634 -0.1399  0.1437
13329W        W29138   4.128  10.136  14.531 -0.1414 -0.2159  0.2074
13330W        W29139  15.557  18.159  13.403 -0.1951  0.0182 -0.1020
13331W        W29140  11.194   5.581  13.105 -0.1538  0.0617 -0.3844
13332W        W29141   4.944   3.283   3.444 -0.1279  0.0941  0.2950
13333W        W29142   8.214  10.262  10.430  0.0021  0.3207  0.3234
13334W        W29143  13.498  16.052  15.070  0.0860 -0.0105  0.0522
13335W        W29144  11.745  12.628  11.996  0.0106 -0.1514  0.1483
13336W        W29145   4.622   2.034   1.411  0.1180 -0.2128  0.2142
13337W        W29146   2.980   6.061  14.328  0.2616 -0.0102  0.1691
13338W        W29147  17.085  15.594   5.465 -0.2238 -0.0641  0.0329
13339W        W29148   5.491   0.052   3.819  0.0895 -0.0409 -0.0712
13340W        W29149   6.224  13.522  14.090  0.2233  0.0482  0.0909
13341W        W29150   5.866  12.714  14.806 -0.3232  0.0270  0.0058
13342W        W29151  12.166  15.056  14.230  0.0063 -0.0329 -0.0698
13343W        W29152   6.956  12.243  11.642 -0.2493  0.2402 -0.0163
13344W        W29153   6.798   3.293   1.054 -0.0080  0.3320  0.1595
13345W        W29154  17.022   7.850  12.849  0.0915  0.1517 -0.2718
13346W        W29155   7.340  10.781   3.825 -0.0903  0.1738 -0.2495
13347W        W29156  15.113   8.408   3.173  0.1046 -0.1219  0.2012
13348W        W29157   6.191  10.668  15.123 -0.1445 -0.1899  0.0238
13349W        W29158   5.806   5.048   2.272 -0.3212  0.2087 -0.1179
13350W        W29159  11.496   1.023   3.432  0.0057  0.1642 -0.3495
13351W        W29160  11.274  17.754   5.092 -0.2075 -0.1273 -0.1801
13352W        W29161   1.107  17.676  14.129  0.2658  0.2109 -0.1196
13353W        W29162   8.641  10.395   2.071  0.0341  0.0871 -0.0043
13354W        W29163   6.755  10.831  14.949 -0.0509 -0.0445 -0.1309
13355W        W29164   1.284  12.634   0.721 -0.2569 -0.0012  0.1326
13356W        W29165  15.536  17.482  11.745 -0.0768  0.1829  0.0963
13357W        W29166   7.521  11.851   4.686  0.0387 -0.2742  0.0050
13358W        W29167  10.354  12.678   0.883 -0.0796 -0.0569 -0.0765
13359W        W29168  12.999  13.809   4.638  0.1104  0.2483 -0.1602
13360W        W29169   4.085   8.984   0.547  0.0060 -0.0517 -0.5196
13361W        W29170   5.110  11.625   5.139  0.1796 -0.0974  0.0620
13362W        W29171  14.634  15.278  15.563 -0.0772 -0.4524 -0.2085
13363W        W29172   0.100  18.535   3.408 -0.1448 -0.0986 -0.0168
13364W        W29173  15.047  10.976  11.681 -0.2641 -0.1079  0.0288
13365W        W29174  11.333  17.618   5.598 -0.0692  0.1142 -0.0548
13366W        W29175   4.610   9.813  11.952 -0.1991 -0.1355  0.1782
13367W        W29176   2.638  12.795  12.604  0.1237  0.0886  0.0693
13368W        W29177  12.431   8.461   0.534  0.0085 -0.0752 -0.1605
13369W        W29178  14.650   9.264   2.333  0.0811 -0.0112 -0.0570
13370W        W29179  12.860  18.240   3.498 -0.1812  0.1454 -0.2070
13371W        W29180   9.427   6.283  14.876  0.1032 -0.3176  0.0036
13372W        W29181  15.500   6.792   4.064  0.2539 -0.1532 -0.1853
13373W        W29182  16.683   1.426   5.673  0.0524  0.2881  0.3092
13374W        W29183   6.660   5.878   0.603  0.0419  0.0218 -0.1953
13375W        W29184  15.751   8.364   5.777 -0.0602 -0.3998 -0.0273
13376W        W29185   8.673  12.295  12.705 -0.2187  0.0554  0.1201
13377W        W29186   7.983   7.926  13.977 -0.2502 -0.1454 -0.3276
13378W        W29187   8.246   6.455   5.754 -0.2431 -0.2087 -0.0505
13379W        W29188   1.145   9.011   0.985 -0.0384  0.1090 -0.0985
13380W        W29189  15.528  16.865  14.425 -0.0136  0.0739  0.4388
13381W        W29190  18.698  13.835  12.317 -0.1502  0.1529  0.0285
13382W        W29191  17.626   2.401   3.613  0.0218  0.1356 -0.1099
13383W        W29192  10.505   4.271   0.059  0.0017 -0.1810 -0.0359
13384W        W29193   8.842  10.832  15.458  0.0649  0.1892 -0.0874
13385W        W29194  15.936  12.242   2.216  0.2184 -0.0213 -0.0848
13386W        W29195   2.498   6.092   4.026 -0.2620 -0.0446 -0.2640
13387W        W29196  18.352   7.068   3.449  0.2562 -0.1733  0.1223
13388W        W29197  14.063   0.252   1.464  0.1198  0.1212  0.3189
13389W        W29198  17.742  14.567   2.281 -0.0489  0.2895 -0.2097
13390W        W29199  13.313   5.150  13.200  0.0303 -0.0115  0.0135
13391W        W29200  10.005   7.423  10.730  0.2018  0.1107  0.1229
13392W        W29201  18.731   2.908   2.721  0.0543 -0.2341  0.0601
13393W        W29202   4.502  18.609   3.905 -0.3199 -0.1099  0.0867
13394W        W29203  13.689  13.818   4.523 -0.0177  0.1106  0.0699
13395W        W29204   8.644  17.994  15.043 -0.1852 -0.0698 -0.1417
13396W        W29205  13.383   8.281   1.719  0.0439  0.3248 -0.0689
13397W        W29206  12.152   8.776  15.245 -0.0672 -0.4237  0.2926
13398W        W29207   0.468   8.935  11.441  0.0495  0.1792  0.1327
13399W        W29208   4.332   5.724  13.282 -0.0692  0.0290 -0.0033
13400W        W29209  18.624   8.998  11.554 -0.3684 -0.0354 -0.3830
13401W        W29210   0.043  10.620  14.208 -0.0334  0.1540 -0.2386
13402W        W29211   6.693   0.207  10.809  0.0022  0.0275  0.0360
13403W        W29212  18.118  12.824   2.619 -0.0782 -0.0415  0.4175
13404W        W29213   4.580   9.733  12.548 -0.1105  0.0643  0.2817
13405W        W29214  11.166  17.603  13.733 -0.1674 -0.1103  0.0126
13406W        W29215  14.803   5.199  14.933 -0.2030  0.0777  0.1289
13407W        W29216   3.490  17.518  10.067 -0.2788 -0.0669  0.5692
13408W        W29217  15.558  15.128   0.035  0.2663  0.1074  0.0635
13409W        W29218   6.469  17.462   3.352  0.1210  0.0952  0.0065
13410W        W29219   8.484  16.088  14.399  0.0416  0.0227  0.0677
13411W        W29220   7.471  18.504   0.207  0.0371  0.1599  0.0972
13412W        W29221   2.706   0.081   2.881  0.0127 -0.0858 -0.0837
13413W        W29222   3.434  13.133   4.910  0.3551 -0.1071 -0.1823
13414W        W29223  10.295   5.774  12.963  0.0471  0.3421  0.0256
13415W        W29224  11.347   3.390   4.519 -0.1150  0.1518  0.0678
13416W        W29225  14.198   7.115   2.171  0.0502 -0.2751 -0.0981
13417W        W29226  12.377  12.087   0.615  0.0649  0.0188 -0.1220
13418W        W29227   6.563   2.999   0.053  0.1212 -0.1429 -0.1350
13419W        W29228   6.314   9.439   4.401 -0.1653  0.1629  0.2323
13420W        W29229   8.580  11.617  14.765 -0.0067  0.0903 -0.2961
13421W        W29230  13.136   0.888   0.140 -0.1086  0.0364  0.2163
13422W        W29231  12.117  16.604  11.678 -0.0812 -0.1393 -0.1885
13423W        W29232   5.200   4.653   0.338  0.2444  0.0535 -0.0649
13424W        W29233   3.108  15.998  15.063  0.1742 -0.0554 -0.0169
13425W        W29234   4.092  18.577   4.801 -0.4202 -0.0292  0.0456
13426W        W29235   7.867   2.496   0.814 -0.1265 -0.0773 -0.2758
13427W        W29236   7.551  17.288  10.482  0.0737 -0.1315 -0.0348
13428W        W29237  15.943   8.009   2.934 -0.0395  0.1185 -0.3162
13429W        W29238  13.484  15.621   1.129 -0.1046  0.2474  0.0455
13430W        W29239  11.716   1.145  15.004 -0.0283 -0.1118 -0.3174
13431W        W29240  11.401  13.927   4.117 -0.1758 -0.1762 -0.2072
13432W        W29241   7.294   4.400   0.256 -0.2298 -0.0354  0.0355
13433W        W29242  12.247   5.995   0.527 -0.3774  0.2689  0.0227
13434W        W29243  16.371  10.148  13.989  0.0287 -0.0050 -0.1542
13435W        W29244   3.934   5.247  13.521  0.0561  0.0686 -0.4582
13436W        W29245   1.603   3.455  12.704  0.0458 -0.0175  0.3658
13437W        W29246  10.340  10.937   4.231  0.3246  0.2545 -0.3936
13438W        W29247   6.448   4.986   3.004 -0.0910  0.1741  0.0463
13439W        W29248   2.477  13.698  13.404  0.1203 -0.0274 -0.2808
13440W        W29249   6.353   1.777  13.095  0.0642 -0.0470 -0.1289
13441W        W29250  12.525   1.267  14.532 -0.1781  0.0011 -0.1299
13442W        W29251   5.304   9.980  14.277 -0.0993 -0.2276  0.1680
13443W        W29252  17.508  14.090   1.996  0.2288  0.0371 -0.0752
13444W        W29253   6.523   3.707   0.222 -0.1430  0.1381 -0.0424
13445W        W29254  18.482  13.546  13.409 -0.0687 -0.0373  0.0915
13446W        W29255  11.901   8.693  12.787 -0.0752  0.1432  0.1469
13447W        W29256   8.149   0.356   0.176  0.1248 -0.0591  0.1112
13448W        W29257  14.911  10.166  14.782  0.1487 -0.3307  0.0596
13449W        W29258   4.173   3.689   4.737  0.3097 -0.2832  0.1657
13450W        W29259   8.242  13.283   2.375 -0.2171  0.4867  0.0177
13451W        W29260  16.160  10.724  15.109 -0.0976 -0.0236  0.1288
13452W        W29261   4.529  11.817   3.008  0.1597  0.2305  0.0986
13453W        W29262   4.698  15.468   0.216  0.0704 -0.0381 -0.2697
13454W        W29263   9.644  14.961   4.161 -0.0582  0.2233 -0.2859
13455W        W29264   7.842   6.815  13.076  0.0808  0.0172  0.0101
13456W        W29265  12.359   1.551  11.862 -0.1204  0.1787  0.3657
13457W        W29266   8.589  10.903  11.469  0.0202 -0.1233  0.0860
13458W        W29267   6.906   0.476   1.331 -0.1494 -0.0719  0.1810
13459W        W29268   4.655  17.646   3.530 -0.0491 -0.0396  0.1555
13460W        W29269  17.901   9.798   4.287 -0.2003 -0.1803 -0.2178
13461W        W29270   6.981   1.179   0.029  0.3420  0.3231 -0.1145
13462W        W29271   1.722  13.090   2.474 -0.2864 -0.2970 -0.0541
13463W        W29272   5.546  18.124  13.049  0.1726  0.1173 -0.1329
13464W        W29273  11.755   5.782   4.473 -0.0588  0.0648  0.4139
13465W        W29274  13.272  17.726   2.737  0.0049  0.2387 -0.0206
13466W        W29275   2.474   7.624  11.349 -0.1810  0.4590 -0.0088
13467W        W29276  12.882   1.730   4.828 -0.1492 -0.3955 -0.1343
13468W        W29277   6.640   1.767   2.109 -0.1320  0.0023 -0.0984
13469W        W29278  13.364  17.297  14.527  0.1173  0.2424  0.1095
13470W        W29279   7.502  13.760  11.245 -0.3226 -0.1884 -0.3825
13471W        W29280   4.076   5.837  14.756  0.1545  0.1010  0.3707
13472W        W29281   9.259  10.458   1.842 -0.2617  0.1031  0.1078
13473W        W29282   3.488   1.975   4.956 -0.3009 -0.2070  0.3903
13474W        W29283   4.840   0.142   2.501 -0.2621 -0.4196 -0.0544
13475W        W29284   4.186  14.018  14.110 -0.2285  0.0002 -0.0328
13476W        W29285   5.981   2.065  13.466  0.0122  0.0342  0.0736
13477W        W29286  17.720   6.662   1.464  0.1190  0.4120  0.0125
13478W        W29287  17.409   7.506   2.370 -0.0963  0.0184 -0.0896
13479W        W29288   9.756  12.782  14.837 -0.1867 -0.1068 -0.0936
13480W        W29289   8.443  15.654   4.593  0.1764  0.2079  0.1724
13481W        W29290   7.033   6.634   1.010  0.0327 -0.0102 -0.4257
13482W        W29291   3.095  10.935   4.733 -0.0686  0.0055 -0.1925
13483W        W29292  16.719   5.324   0.172 -0.1815  0.1510  0.0142
13484W        W29293  14.480  16.603  13.140  0.1884 -0.1300  0.0832
13485W        W29294  10.698  15.113  15.047 -0.0653  0.1131 -0.2589
13486W        W29295  17.300  11.198  12.462  0.1953 -0.0103 -0.0460
13487W        W29296  15.031   3.636  14.309 -0.0347  0.1738 -0.2598
13488W        W29297   5.517  16.178  14.657  0.3079 -0.1939  0.1545
13489W        W29298  11.268   9.407  11.821 -0.0930 -0.5362  0.1771
13490W        W29299   4.726  18.114  12.821 -0.1254  0.2719  0.1380
13491W        W29300   9.648   8.737   2.174 -0.1763 -0.1694 -0.0824
13492W        W29301  14.694   0.117   0.625  0.0425 -0.2987 -0.1637
13493W        W29302  12.539   8.281   1.732 -0.1654 -0.4104  0.0549
13494W        W29303   7.105   7.930  12.763 -0.3856 -0.0145  0.0849
13495W        W29304   8.659   6.714   2.408 -0.0516  0.1864 -0.1150
13496W        W29305  10.529   1.621  10.266 -0.1532  0.1305  0.0525
13497W        W29306   3.171   5.548  10.642 -0.2179 -0.2024  0.0663
13498W        W29307  14.993  17.925   3.522 -0.5084  0.0999  0.3380
13499W        W29308   9.053  14.009   0.084  0.3482  0.2525  0.0702
13500W        W29309  17.919  17.728  13.049 -0.1549 -0.1059  0.1051
13501W        W29310   6.367   8.489  14.505 -0.2067  0.1737  0.3065
13502W        W29311   2.361   0.483   2.939 -0.6137 -0.2826 -0.0296
13503W        W29312   3.446  14.377  13.496  0.0629  0.0608 -0.0712
13504W        W29313  10.478   2.127   2.333 -0.2373  0.1129 -0.2736
13505W        W29314  16.849  10.148   3.892 -0.1271  0.1610  0.1958
13506W        W29315   4.211   6.273  10.720  0.0054 -0.2749 -0.2204
13507W        W29316  14.124  14.872  13.559  0.1250 -0.1891 -0.1165
13508W        W29317  15.992   7.708   9.969  0.3453 -0.0365  0.0715
13509W        W29318   2.850  12.838  11.307 -0.2058  0.2293 -0.1106
13510W        W29319   8.025  10.568   3.314  0.1184 -0.0098 -0.0518
13511W        W29320  11.846  12.611  14.911  0.2097 -0.1264  0.0219
13512W        W29321  15.473   8.666   0.198  0.2129 -0.2461  0.0121
13513W        W29322   5.719  10.220  11.163 -0.1507 -0.3388 -0.1444
13514W        W29323  18.161  14.153   4.298  0.0567  0.2553  0.0123
13515W        W29324   6.530   6.632   2.278  0.1581 -0.0200  0.2830
13516W        W29325   7.021   6.118   3.094  0.0816 -0.1776 -0.0068
13517W        W29326   1.758   5.563  10.981 -0.0979 -0.3696  0.1480
13518W        W29327   8.004  13.897   5.190  0.3120  0.0943  0.1323
13519W        W29328  13.845  14.226  13.325  0.1448 -0.3013  0.1540
13520W        W29329   2.610   0.251   2.003 -0.0204 -0.4334 -0.0686
13521W        W29330   4.745   8.607   4.097  0.0307 -0.0315  0.0442
13522W        W29331  15.907   0.071   0.293  0.1116  0.0315 -0.0476
13523W        W29332  15.177   0.571   4.389  0.1096  0.0571 -0.1702
13524W        W29333   0.968  18.756   0.401 -0.1755 -0.0472  0.2100
13525W        W29334   6.843   0.704   0.006 -0.0095  0.1711  0.1665
13526W        W29335   2.507  17.260  13.575 -0.2731  0.1278 -0.0560
13527W        W29336   3.707  15.215   0.387 -0.0598  0.0843 -0.2462
13528W        W29337  18.732   4.217   3.596 -0.2872  0.3495  0.0287
13529W        W29338  12.920   2.436   3.684  0.2478 -0.0390  0.2971
13530W        W29339   2.593  16.332  10.488 -0.4848  0.0020  0.1927
13531W        W29340   1.069   4.455  15.213  0.0851 -0.3023 -0.1721
13532W        W29341  13.668  16.251  14.625  0.1426  0.2694 -0.0459
13533W        W29342   3.441   7.788   3.608  0.1256 -0.4646  0.2322
13534W        W29343   9.846  14.590   1.601  0.2525 -0.1462  0.1698
13535W        W29344   9.912   0.873   3.420 -0.2514  0.1753  0.1950
13536W        W29345   2.352   0.382  11.907  0.0221  0.0411  0.3088
13537W        W29346   6.597  14.071   0.136  0.0668 -0.0459  0.1077
13538W        W29347   5.364  15.021  13.917 -0.0306  0.3570 -0.2144
13539W        W29348   0.713  10.486  11.057  0.2448 -0.0742  0.0648
13540W        W29349  16.985   7.204   5.356  0.0859 -0.1595  0.0298
13541W        W29350   0.556   5.036   1.309  0.1122  0.1212 -0.0251
13542W        W29351  10.100  17.267   5.398  0.2012 -0.1922 -0.4229
13543W        W29352  15.998   9.532  13.723 -0.2539 -0.0488  0.0235
13544W        W29353  17.061  18.444   2.559  0.0672 -0.0012  0.1839
13545W        W29354   6.941   0.947   1.663 -0.2371 -0.0595  0.3027
13546W        W29355   4.071   3.217  12.113  0.0116 -0.0211 -0.2245
13547W        W29356  10.098  15.744   1.989 -0.1465  0.0530 -0.3485
13548W        W29357  16.702  14.109  11.305 -0.0716 -0.1475  0.1966
13549W        W29358  15.483   3.660   1.096 -0.0655 -0.3271 -0.2970
13550W        W29359  11.854   3.396   1.232 -0.2447 -0.2104  0.2396
13551W        W29360  11.448   9.382   2.798 -0.1584 -0.0233  0.1327
13552W        W29361   1.514   6.064   4.015  0.0429 -0.0367 -0.0530
13553W        W29362  17.790   3.506  11.635 -0.0997 -0.0383  0.0458
13554W        W29363  18.512   0.112  10.827  0.2843 -0.0056 -0.1681
13555W        W29364  10.017   5.607  13.716  0.0019 -0.3208  0.0718
13556W        W29365   0.087  16.310   1.688  0.0059  0.4993  0.1822
13557W        W29366   9.802  17.919  12.695  0.0036 -0.3397 -0.1956
13558W        W29367   0.763   3.576  14.413  0.2245 -0.2768 -0.0332
13559W        W29368  15.516   9.945  13.040  0.1603 -0.0403 -0.4396
13560W        W29369   0.596  17.948  10.289  0.2598 -0.1315 -0.0721
13561W        W29370  17.537  15.796  12.798  0.0440  0.2486  0.0453
13562W        W29371   6.122   7.886   0.486 -0.2793 -0.0132 -0.1898
13563W        W29372   5.659  16.044  12.364 -0.0117 -0.2160  0.2339
13564W        W29373  14.274   5.629   3.449  0.0661  0.3088 -0.1160
13565W        W29374  16.240   0.420  11.336 -0.1906 -0.1112  0.1466
13566W        W29375   7.047  16.546   4.910  0.1818 -0.1916 -0.0844
13567W        W29376   4.803   7.808   3.543 -0.2504  0.1123 -0.3141
13568W        W29377  15.200   5.619  13.425  0.1101 -0.0631  0.3477
13569W        W29378   2.158  14.439   2.401  0.1562  0.2903 -0.2981
13570W        W29379  14.345  17.394  12.617 -0.3288 -0.1412  0.1096
13571W        W29380   0.965  15.927   9.798 -0.0130  0.0798 -0.0302
13572W        W29381  14.163  13.702  11.531 -0.2067 -0.0428 -0.2251
13573W        W29382  10.445   3.295   1.958 -0.2516 -0.1694  0.2294
13574W        W29383   0.193   5.353   4.671  0.1419  0.1157  0.0867
13575W        W29384  11.763   0.350  11.730 -0.1501 -0.1425 -0.2386
13576W        W29385  17.843  17.340   3.066  0.0582 -0.2772 -0.2521
13577W        W29386   5.585  10.374  10.661 -0.0909  0.2332 -0.0989
13578W        W29387  12.744   5.334   4.291  0.1256 -0.2285  0.0342
13579W        W29388  13.139   1.917  14.345 -0.0115  0.0029 -0.1677
13580W        W29389  11.533  15.731  11.685  0.1595 -0.0922  0.2327
13581W        W29390   9.330  14.128  11.401 -0.0786  0.1300 -0.0958
13582W        W29391   3.318   3.615  14.052  0.1351 -0.5713  0.1679
13583W        W29392  13.026   6.275  15.518  0.0902 -0.2740  0.0185
13584W        W29393   8.935  11.311  13.542  0.1440 -0.1898  0.2937
13585W        W29394   1.461   1.932  10.543 -0.1662 -0.2376 -0.1293
13586W        W29395   1.975   6.991  10.387 -0.0432 -0.0968  0.1465
13587W        W29396  10.354   4.420   3.474 -0.3104 -0.0614 -0.0754
13588W        W29397   3.790   7.424  13.252  0.2697  0.2230 -0.1228
13589W        W29398   5.346  14.583   1.505  0.0480 -0.1896 -0.0231
13590W        W29399  15.642  14.454  12.437  0.1949 -0.1662  0.2077
13591W        W29400   8.362  13.594   0.796  0.0799 -0.0232  0.1956
13592W        W29401  14.152   1.905   3.630 -0.0706 -0.0017 -0.2786
13593W        W29402   1.909  10.411  14.735 -0.3390 -0.1925 -0.1674
13594W        W29403   6.300   3.233  13.041  0.1476 -0.2878  0.2094
13595W        W29404   9.401   5.132   0.051  0.0471 -0.0956 -0.0114
13596W        W29405  14.280  12.636   3.418  0.2196  0.0487 -0.1222
13597W        W29406   1.895   5.597   1.188  0.2589 -0.1768  0.0247
13598W        W29407  17.752   7.606   1.493 -0.2679  0.1309  0.1612
13599W        W29408  13.726   8.477   4.599 -0.0216 -0.0180  0.0625
13600W        W29409  15.351   4.842   5.006 -0.2162 -0.1599 -0.1942
13601W        W29410   7.159  11.239   4.116  0.2324  0.2470 -0.0537
13602W        W29411   5.479  13.832   4.404 -0.0343  0.1306 -0.1592
13603W        W29412  10.042   5.338   4.542 -0.1470  0.1023  0.0819
13604W        W29413   1.893   8.356   2.547  0.2062 -0.0871 -0.4169
13605W        W29414   9.504   5.401  15.196  0.1369 -0.1498  0.1302
13606W        W29415  16.218  15.028  14.770  0.0510  0.1117 -0.3282
13607W        W29416  11.992   6.442   0.627 -0.0629  0.1085 -0.2158
13608W        W29417   7.509   3.882   1.579 -0.0253  0.2653  0.2578
13609W        W29418   6.597   6.656   1.776  0.0940  0.0763  0.2666
13610W        W29419  18.501  14.397  15.549  0.2547 -0.0667 -0.0671
13611W        W29420   4.469   4.203   2.500 -0.1260 -0.2231  0.2481
13612W        W29421  12.514   3.503   5.182  0.2025 -0.0173 -0.2447
13613W        W29422   0.316   9.583   4.359  0.2264  0.2476 -0.1930
13614W        W29423   3.376   5.791   1.303  0.0058  0.1120  0.1310
13615W        W29424   8.676  12.502  11.968 -0.0337  0.1520  0.0771
13616W        W29425   2.918   8.131   3.963  0.0450 -0.2686 -0.2624
13617W        W29426  13.769  15.336   3.063  0.0694 -0.1367  0.3501
13618W        W29427  12.687   2.995   5.335  0.0944  0.0503 -0.0650
13619W        W29428   9.932   1.043  14.296  0.0202 -0.0759  0.2717
13620W        W29429  11.968   8.265  15.337  0.0633  0.3969 -0.0133
13621W        W29430   2.882  14.655   0.649 -0.0228  0.1469 -0.0911
13622W        W29431  13.200   7.307   0.739  0.0263  0.0466  0.1254
13623W        W29432   7.386  18.631  11.158  0.0968  0.2322  0.2715
13624W        W29433  13.367  11.907   0.743  0.5337 -0.2141  0.2651
13625W        W29434  13.573  10.163   0.743 -0.0027 -0.2610  0.1111
13626W        W29435   0.925   6.539  13.288 -0.0537  0.1648 -0.2212
13627W        W29436   9.634  12.347  15.180  0.1040 -0.2835 -0.3553
13628W        W29437  12.237   9.682  15.347 -0.0343  0.2327 -0.3019
13629W        W29438   3.264  13.038   3.043  0.1209 -0.0765 -0.1121
13630W        W29439  15.572  17.071   5.878 -0.4208 -0.3604  0.2100
13631W        W29440   8.382  16.428   3.647  0.0674  0.2053  0.1271
13632W        W29441  11.681   6.117  12.502  0.1538  0.0488  0.1234
13633W        W29442  13.109  11.871  13.809  0.3168 -0.0325 -0.0354
13634W        W29443   5.292  17.375  10.034  0.2443 -0.1985  0.4503
13635W        W29444   0.140  16.358  15.184  0.2760 -0.1739  0.0168
13636W        W29445  13.079   7.399   3.278  0.1767 -0.0877 -0.0280
13637W        W29446  12.559  12.695   3.365 -0.0322 -0.1664  0.5059
13638W        W29447   2.941   1.732  15.042 -0.1306 -0.2108  0.1743
13639W        W29448  16.968   7.463  12.070  0.1609 -0.1728  0.0593
13640W        W29449  16.303   5.147  15.394 -0.1206  0.1048 -0.2190
13641W        W29450  10.641   0.930   2.000  0.4219  0.2054  0.4472
13642W        W29451   2.640  15.839  14.808  0.3064  0.0289  0.0173
13643W        W29452   1.608   6.387  12.617 -0.2245 -0.1051 -0.2193
13644W        W29453  11.617  18.284  14.097 -0.0427  0.1486 -0.4167
13645W        W29454   1.513  13.210   0.495 -0.4120 -0.0813  0.0858
13646W        W29455  13.240  11.934  12.994  0.3888  0.1431  0.0156
13647W        W29456   8.574  18.331  11.300  0.2339  0.1092 -0.2318
13648W        W29457   9.822  16.262  12.877 -0.3177 -0.2397 -0.0734
13649W        W29458   5.710  14.799   0.547 -0.1370 -0.0375  0.3799
13650W        W29459   0.277  12.425   0.935  0.0390 -0.0373 -0.0627
13651W        W29460   8.241   0.206  11.545  0.1643 -0.1316 -0.0171
13652W        W29461   5.760   2.407   1.271 -0.1727 -0.0537 -0.1468
13653W        W29462   7.618   7.987  12.718  0.0256 -0.2973 -0.1931
13654W        W29463   5.663   7.394   4.961  0.2169  0.1063 -0.3630
13655W        W29464   4.975   0.387  11.050 -0.0623  0.0295 -0.2919
13656W        W29465   0.369   3.398   0.589  0.1705 -0.1140 -0.0295
13657W        W29466   9.082   3.694  11.081  0.3644  0.0778  0.1117
13658W        W29467   4.611   0.997  14.453 -0.4047  0.0732  0.0930
13659W        W29468  16.409  11.732  10.374 -0.0539 -0.1088  0.0209
13660W        W29469   9.842  12.272   2.941 -0.1671  0.0867 -0.2801
13661W        W29470   5.714   6.067   0.391  0.2008  0.1918  0.2279
13662W        W29471   6.438  15.369  12.009  0.1128  0.2056 -0.0482
13663W        W29472  13.226   2.847   3.895 -0.0822  0.3266 -0.0159
13664W        W29473   7.705  11.703   3.015 -0.2265  0.0363  0.1108
13665W        W29474  15.845  13.592  11.282 -0.0966 -0.2530 -0.1664
13666W        W29475   5.255   7.252  12.927  0.0530 -0.2804  0.2123
13667W        W29476   1.649   0.787  13.754 -0.3207  0.0838 -0.1873
13668W        W29477   5.131  11.246   4.107 -0.0904 -0.3062 -0.3165
13669W        W29478  16.117  18.107  14.751  0.0569 -0.1219  0.1678
13670W        W29479   4.933   5.478  11.782 -0.0747 -0.1851 -0.3297
13671W        W29480  17.523   8.510  13.489  0.0391  0.0285  0.0546
13672W        W29481  12.155  11.678  12.102 -0.0421 -0.2445 -0.2266
13673W        W29482   4.789   2.969  14.347  0.0702  0.0341  0.2556
13674W        W29483  14.227   1.040   2.322  0.0525 -0.1203  0.0752
13675W        W29484  12.982  11.407  15.104 -0.2208 -0.2025  0.1449
13676W        W29485   9.074  14.509  15.401  0.0469  0.2099 -0.1580
13677W        W29486  11.252  15.809  15.147  0.0110  0.0104 -0.0785
13678W        W29487  15.867  15.355   4.821 -0.1173 -0.0550 -0.0718
13679W        W29488  12.504   0.295   1.778  0.0678 -0.1663 -0.0107
13680W        W29489  11.718   4.672  12.605 -0.3833 -0.2114 -0.3074
13681W        W29490   0.280  15.107   0.312  0.1401 -0.0607  0.0035
13682W        W29491   1.988  12.145   2.315 -0.2467  0.0319 -0.2106
13683W        W29492  13.185   4.315  15.341  0.0419 -0.2615  0.0913
13684W        W29493  14.348  12.963  13.019 -0.1559  0.0339  0.0697
13685W        W29494  15.023  16.249  13.840  0.1800  0.1644 -0.3165
13686W        W29495   3.398  16.202  10.524 -0.0092  0.3554  0.0418
13687W        W29496  18.568  12.532  10.664 -0.1694 -0.2577 -0.0064
13688W        W29497  16.466   3.071  11.018 -0.1020 -0.3851  0.4927
13689W        W29498  12.860  18.041   4.524  0.0849 -0.0780 -0.1239
13690W        W29499   2.428   8.523  10.911 -0.0883 -0.1168 -0.2734
13691W        W29500  14.230   9.235  10.583 -0.0617 -0.0599 -0.0232
13692W        W29501   1.998  18.039   3.561 -0.0340  0.0445  0.0185
13693W        W29502  13.849   9.727   1.355  0.0449 -0.0362  0.1865
13694W        W29503   6.014   6.026   5.914 -0.0856 -0.1140 -0.2072
13695W        W29504   6.895   7.422   2.948 -0.1781 -0.2026 -0.1048
13696W        W29505   3.069   9.688   1.982  0.0726 -0.0212 -0.0135
13697W        W29506   0.951   0.154  11.673 -0.2126 -0.0726 -0.0966
13698W        W29507  12.503   3.802  11.176  0.0774 -0.2853 -0.0385
13699W        W29508   7.743  16.977  11.635  0.0057  0.4030 -0.0149
13700W        W29509  11.239  13.837   4.576  0.1150  0.3033 -0.0741
13701W        W29510   3.441   9.852  11.760  0.1831 -0.1658  0.0991
13702W        W29511  16.000   8.573  13.152  0.4377 -0.1518  0.4190
13703W        W29512   4.341  11.741  12.896 -0.1074 -0.3161 -0.1895
13704W        W29513   1.097   8.446   1.837 -0.0670 -0.2004  0.2915
13705W        W29514   8.717   6.540   3.540  0.3333 -0.4239  0.1265
13706W        W29515  14.171  13.498  15.250  0.0976  0.1152 -0.2446
13707W        W29516   5.965  11.117   5.202 -0.0294 -0.1454 -0.1429
13708W        W29517   8.477   3.575   0.242  0.0925  0.0785  0.3034
13709W        W29518  13.412   6.741   1.054  0.1722 -0.0560  0.0815
13710W        W29519  13.555   1.608  14.367  0.3045 -0.1337  0.1856
13711W        W29520  12.925  14.263  11.656  0.1458  0.0071 -0.0101
13712W        W29521  18.764  10.080  12.433 -0.3702 -0.0388  0.1358
13713W        W29522   1.077  13.311   3.165  0.0599 -0.0489 -0.2260
13714W        W29523   2.367  10.226   4.077 -0.1828  0.1565 -0.1374
13715W        W29524  10.508   3.411  15.437 -0.0261 -0.0625  0.1288
13716W        W29525  10.665  10.986  14.578  0.1656  0.0664  0.2538
13717W        W29526   0.839   3.843   1.949 -0.0771  0.1906 -0.2274
13718W        W29527  16.520   2.242  13.847  0.0671 -0.1007  0.3798
13719W        W29528  13.969   9.981  14.488  0.1138 -0.2000 -0.0989
13720W        W29529  18.508   1.626   5.198  0.0398  0.1511 -0.1231
13721W        W29530  18.738  12.989  13.320  0.2074  0.1685 -0.0086
13722W        W29531  15.451   3.864   4.239 -0.1706  0.5112  0.2751
13723W        W29532   4.239   8.089   2.524 -0.0089 -0.2456 -0.3031
13724W        W29533  11.714   6.032  14.672 -0.1630  0.1840 -0.1517
13725W        W29534   2.926  14.187   0.802  0.0740  0.0618 -0.2408
13726W        W29535  17.093   5.667   5.474 -0.1810  0.2956  0.2366
13727W        W29536   8.785   2.134  14.232 -0.3849 -0.1557 -0.0425
13728W        W29537   7.542   5.631   1.592  0.0638  0.5031  0.1218
13729W        W29538  18.011  17.863  14.106  0.1046 -0.1085  0.1600
13730W        W29539  17.772  10.741  11.283 -0.0213  0.0872  0.2882
13731W        W29540   3.804  11.725  12.043 -0.0788  0.2508  0.0645
13732W        W29541  14.886   4.489  12.038  0.0034  0.0798 -0.0849
13733W        W29542  14.279  15.347   9.884 -0.0800  0.4343  0.1024
13734W        W29543   8.503  16.818   0.559  0.2669 -0.1511  0.0154
13735W        W29544   0.224  12.529  13.242  0.1217 -0.0038  0.1312
13736W        W29545   7.857   1.248  12.893 -0.1809  0.4619  0.0009
13737W        W29546   9.914  13.070   3.984 -0.1115  0.0910 -0.1547
13738W        W29547  15.933   2.308   4.491  0.0032  0.0947 -0.3017
13739W        W29548  18.330  14.856  12.509 -0.1388 -0.5131 -0.0282
13740W        W29549   9.998  15.523   1.455 -0.1391  0.0029  0.0120
13741W        W29550   2.960   0.103  14.093 -0.1910  0.3722 -0.0956
13742W        W29551  18.518  10.851   1.869  0.0019  0.2106  0.1537
13743W        W29552  15.948  16.688  12.735 -0.2362  0.1328 -0.2311
13744W        W29553   1.170  13.748  14.978  0.1521 -0.4956  0.0167
13745W        W29554   6.619   1.765   1.160  0.3119 -0.2004  0.1590
13746W        W29555  15.604   6.759   3.284  0.0697  0.0284 -0.3543
13747W        W29556   2.466  17.973  11.864  0.1082 -0.0571 -0.2459
13748W        W29557   1.076  16.803   4.690 -0.0379  0.1057  0.1643
13749W        W29558   5.582   1.042   0.458 -0.0721 -0.0699 -0.0912
13750W        W29559  16.612  11.120   3.593  0.0148  0.0700 -0.1081
13751W        W29560   3.490   6.267   1.584 -0.0505 -0.1062 -0.0613
13752W        W29561   8.576   2.002  14.711 -0.0249 -0.0859  0.1914
13753W        W29562  11.049  12.233   4.922 -0.0646 -0.3833  0.1931
13754W        W29563  10.487  12.772   2.780  0.2678 -0.0319  0.1923
13755W        W29564   6.319  16.584   1.972  0.0676  0.1863  0.0821
13756W        W29565   3.771   3.391  12.745 -0.0280  0.1206  0.0856
13757W        W29566   2.796   5.642  14.191  0.1387 -0.0024  0.1589
13758W        W29567  16.843  16.048  13.377  0.1317  0.2768 -0.0756
13759W        W29568  11.207  14.389  12.900 -0.1008  0.2817  0.1735
13760W        W29569   7.710  12.826   5.278  0.2264  0.2652  0.4416
13761W        W29570  14.443   8.368   0.442 -0.0411 -0.2016 -0.2481
13762W        W29571  18.778   1.003   4.391  0.0457 -0.0696  0.0342
13763W        W29572  10.949   0.249  11.319 -0.1424  0.0040  0.1855
13764W        W29573  18.666   3.341   3.888  0.2405 -0.0261  0.0031
13765W        W29574   2.922   3.939   4.506 -0.2691  0.3400  0.2362
13766W        W29575  18.363   1.639   0.548 -0.0397  0.1095 -0.0659
13767W        W29576  16.032  14.226  12.253 -0.0348 -0.0480  0.0058
13768W        W29577   9.674  15.325  14.459 -0.2451  0.0496 -0.2440
13769W        W29578   0.591  11.754   0.447  0.1065  0.0519  0.1394
13770W        W29579   0.246   2.891  13.829  0.3054  0.0362 -0.0418
13771W        W29580   0.806   9.139  10.761 -0.2888 -0.0665 -0.0363
13772W        W29581  14.105   2.509   4.290 -0.1291  0.2419 -0.0557
13773W        W29582  17.140   7.037  13.484 -0.1550 -0.1495 -0.1648
13774W        W29583  15.353  12.626   5.642  0.0206  0.0268  0.2185
13775W        W29584  11.144   2.075  10.538  0.0695 -0.0561  0.0211
13776W        W29585   3.468   6.367   3.397  0.1652  0.1491  0.1207
13777W        W29586  11.255   0.949   1.983  0.0342 -0.0632 -0.0473
13778W        W29587  10.437   7.907   2.827 -0.0482  0.2331 -0.1853
13779W        W29588   0.500  10.344  15.202  0.0755 -0.0174 -0.1698
13780W        W29589  17.621   6.173   0.639  0.0914  0.1671  0.0591
13781W        W29590   6.382  16.679  11.928  0.0523 -0.1845  0.1878
13782W        W29591   3.541   9.993  13.581  0.0399 -0.1881  0.2090
13783W        W29592  16.619   0.933  12.997 -0.0196  0.3281  0.1778
13784W        W29593   1.709   9.468  13.288  0.3623 -0.1743  0.0025
13785W        W29594   0.042   6.819   2.729 -0.1907 -0.3037  0.1889
13786W        W29595   6.614   6.918  13.848  0.3359 -0.2089 -0.0061
13787W        W29596  14.532  12.032  15.402 -0.1147 -0.0361 -0.0535
13788W        W29597  15.763   0.984  13.675  0.1434  0.0082  0.0059
13789W        W29598  14.748  16.535   0.042 -0.1605  0.0527 -0.1056
13790W        W29599  16.090  16.061   5.480  0.1042  0.0295  0.1829
13791W        W29600   2.322   4.829   4.025 -0.0292 -0.0430 -0.0077
13792W        W29601  11.072   7.126  13.734  0.0433  0.0543 -0.2439
13793W        W29602   1.816   9.920  11.132  0.1344 -0.0235 -0.1675
13794W        W29603  11.606  14.410   1.719  0.1124 -0.0346  0.0664
13795W        W29604  13.492  10.969  12.584  0.0792 -0.3603 -0.1168
13796W        W29605  16.132   6.836   3.160  0.2030 -0.0589 -0.3443
13797W        W29606   6.145   8.017  12.544  0.1303 -0.0581 -0.0945
13798W        W29607   4.808   5.953  11.347  0.0900 -0.1074  0.1437
13799W        W29608   5.365  15.733  14.994  0.0350  0.0068 -0.0669
13800W        W29609   5.060  12.533  11.032  0.2968 -0.3572  0.2355
13801W        W29610  13.101  17.720   4.185 -0.1122  0.0719  0.0943
13802W        W29611   2.244  12.617   2.085 -0.0514  0.0724 -0.0531
13803W        W29612  11.906  11.939   2.067 -0.1236  0.5528  0.1007
13804W        W29613   3.386   0.074  13.310 -0.2047 -0.1254 -0.3996
13805W        W29614  15.123   1.285  12.070  0.2877 -0.4666 -0.3041
13806W        W29615   6.300  17.905  12.438 -0.0284 -0.0290  0.0618
13807W        W29616  18.647   4.602   1.880 -0.1109 -0.3327  0.2113
13808W        W29617   3.339   2.949   5.133 -0.0012 -0.0989  0.4240
13809W        W29618  18.461   2.097  10.468 -0.0433 -0.0230 -0.2110
13810W        W29619  14.858  11.206  13.015  0.3558 -0.0207  0.0975
13811W        W29620  11.884  11.754  14.626  0.1256  0.1585  0.4550
13812W        W29621   4.847   5.217  12.582  0.0394 -0.0668  0.1614
13813W        W29622   4.678  16.554   1.850  0.0283  0.1293 -0.0307
13814W        W29623  12.836   8.812   0.424  0.0821  0.2209 -0.1024
13815W        W29624  18.507  12.035  10.453  0.3505 -0.0254 -0.2013
13816W        W29625   0.931  13.258  13.407  0.0142 -0.0740 -0.0602
13817W        W29626   7.649  10.626  13.524  0.1415  0.0050  0.2236
13818W        W29627   8.170   7.177  11.977 -0.0735 -0.1955 -0.4468
13819W        W29628  10.870  17.045   3.563 -0.1577  0.0830  0.2596
13820W        W29629   9.108  17.192   1.235  0.0461 -0.1063 -0.1364
13821W        W29630  14.848  10.379   3.684 -0.1050 -0.1054  0.1425
13822W        W29631   4.457  10.114  11.546  0.0935 -0.0123  0.1293
13823W        W29632   9.696   6.599   1.219 -0.0759  0.0766  0.1232
13824W        W29633  14.272   0.528   0.626  0.1412 -0.1519 -0.1829
13825W        W29634  17.138   5.556   3.920  0.2250  0.6197 -0.0502
13826W        W29635  12.740   9.780  10.827 -0.1844  0.0314 -0.3113
13827W        W29636  15.307  12.118   5.791 -0.2198 -0.1871 -0.0045
13828W        W29637  13.519   2.543   2.209  0.1628 -0.0784  0.1174
13829W        W29638   9.574  10.355  13.193 -0.1308  0.2682 -0.0755
13830W        W29639  16.405   2.198  11.352 -0.4690 -0.0710 -0.1265
13831W        W29640   8.297   6.406   2.622  0.0383 -0.1003 -0.1457
13832W        W29641   9.425   1.551   2.292  0.1703 -0.0386 -0.0807
13833W        W29642   0.604   8.121   2.753  0.3189  0.1419  0.2139
13834W        W29643   1.478  14.313   9.739  0.1328 -0.0585 -0.2610
13835W        W29644  10.806  13.991  12.849  0.1349  0.0293 -0.2840
13836W        W29645  13.162  11.385  13.855  0.2691  0.3054 -0.5464
13837W        W29646   9.011   4.266  15.518 -0.1303 -0.3370  0.0355
13838W        W29647   4.584  16.669  14.044  0.1126  0.0908  0.1484
13839W        W29648   7.954   2.495   0.314 -0.3702 -0.1753 -0.2165
13840W        W29649  12.816  13.287   1.173  0.0682  0.2434  0.1214
13841W        W29650   1.579  14.579   1.893  0.2740 -0.1014  0.0951
13842W        W29651   3.650  18.196   2.028  0.0097  0.0334 -0.2522
13843W        W29652   7.726   7.535   0.372  0.0813  0.0394  0.3269
13844W        W29653   8.622   5.460  12.572  0.0013 -0.3436 -0.0064
13845W        W29654   8.956   6.000   0.720 -0.2322  0.0872 -0.3777
13846W        W29655  10.299  16.201   1.789  0.0640  0.1382  0.2986
13847W        W29656   9.863   3.277   3.676 -0.2193 -0.2040  0.0042
13848W        W29657  16.294   0.724  13.596  0.0131 -0.0058 -0.3730
13849W        W29658   7.353  16.477  14.645  0.1398  0.1296  0.1938
13850W        W29659  10.075  11.619  10.885  0.1371 -0.1393  0.0377
13851W        W29660  13.236   9.661  11.227 -0.0358  0.1937 -0.1676
13852W        W29661  13.359   8.513  15.043  0.3171  0.1027 -0.2220
13853W        W29662  15.226  14.640   5.582  0.1983  0.1340 -0.0057
13854W        W29663   5.100   3.490   5.583  0.1147  0.3848 -0.0709
13855W        W29664  16.842   3.846  14.986  0.1950 -0.2381  0.0054
13856W        W29665  11.576  15.010   5.443 -0.3958 -0.0109  0.1655
13857W        W29666  11.743   2.966  14.039 -0.1442  0.2096  0.2717
13858W        W29667  13.255  14.136  14.327  0.1932 -0.4134 -0.3370
13859W        W29668   1.440  12.153  12.735 -0.4206 -0.1273 -0.0087
13860W        W29669   6.969  13.535  14.505  0.0541  0.1546  0.1278
13861W        W29670   6.255  16.264   4.893  0.4004 -0.2441 -0.2643
13862W        W29671  10.966  15.176   4.405  0.1422 -0.2496  0.2033
13863W        W29672   8.512   9.351   0.594 -0.0158  0.1907  0.1665
13864W        W29673  14.824   3.624  13.156 -0.2428 -0.1184 -0.1402
13865W        W29674  10.782  16.959  13.138  0.1247  0.2836  0.0891
13866W        W29675   1.507  12.379   3.755  0.1659  0.0933 -0.1220
13867W        W29676  17.755   4.958  13.450 -0.0825 -0.0084 -0.0387
13868W        W29677   7.838   5.717  14.365 -0.2193 -0.0309  0.0511
13869W        W29678  17.537   5.063  14.263 -0.1956  0.4468 -0.3622
13870W        W29679  13.007  13.781   3.357  0.2148  0.3804 -0.0402
13871W        W29680   8.474   7.026   5.203 -0.3748  0.1336 -0.1836
13872W        W29681   6.519  10.120   3.283  0.1316  0.0706  0.0904
13873W        W29682  18.151  11.879   4.566 -0.0838  0.2612  0.0541
13874W        W29683   2.989   6.615   0.235  0.0322 -0.3989 -0.2199
13875W        W29684   6.098   2.128   0.930 -0.0087 -0.0064 -0.0129
13876W        W29685   3.836  14.501  14.905  0.4728 -0.1222  0.1853
13877W        W29686  17.814   8.762   2.365  0.0421 -0.0621  0.0052
13878W        W29687   9.088  15.732  13.190 -0.1223  0.0137  0.2362
13879W        W29688   6.488  18.744   2.853  0.3254  0.0719 -0.0114
13880W        W29689  18.701  12.547   0.630 -0.1595 -0.0851 -0.2645
13881W        W29690  12.364   5.581  11.395 -0.0592 -0.0964  0.1048
13882W        W29691   2.507   5.710  13.719 -0.1470 -0.1547 -0.0213
13883W        W29692   5.340  13.816  11.318  0.2703 -0.1175 -0.0214
13884W        W29693   1.092   6.862  14.118  0.1955  0.3385 -0.2357
13885W        W29694   0.184  13.523   4.622  0.2093  0.1070  0.0465
13886W        W29695  16.088  10.696   1.437 -0.3059  0.1182  0.1402
13887W        W29696   2.635  18.248  14.039  0.2357 -0.2516 -0.2198
13888W        W29697  17.600   9.819  13.612 -0.2568 -0.1987  0.0610
13889W        W29698  14.519   5.877   4.679  0.0977  0.0140 -0.0190
13890W        W29699  14.706  13.728  14.403 -0.0926  0.3929 -0.1141
13891W        W29700   6.490  13.142   1.740 -0.3187 -0.0376  0.0827
13892W        W29701  16.797   6.573  13.861  0.1352  0.2101  0.0465
13893W        W29702   8.672   0.181   4.803  0.3540  0.0733 -0.2316
13894W        W29703   9.764  17.225   4.284 -0.1135  0.0276  0.2337
13895W        W29704  14.850   9.587   4.684 -0.1389 -0.0712 -0.0582
13896W        W29705   6.780   5.103   1.813 -0.1438 -0.0845  0.0882
13897W        W29706  17.594  16.502  12.723 -0.2039 -0.0015 -0.2759
13898W        W29707  12.544  17.057   2.611  0.0045  0.1654  0.0994
13899W        W29708   7.337   4.736   2.634  0.1423  0.2463 -0.0046
13900W        W29709  18.159  14.134  14.910 -0.3862 -0.0821 -0.2603
13901W        W29710   1.712   9.271  11.936  0.1390  0.0397  0.1673
13902W        W29711   8.826   7.930  12.936 -0.1218 -0.0866 -0.2305
13903W        W29712  15.846  13.770   9.726  0.1566  0.1370  0.0648
13904W        W29713   4.330  13.103  11.310  0.0176 -0.0969 -0.0045
13905W        W29714  14.896   8.621   4.622  0.4983  0.1998  0.4751
13906W        W29715   0.791   3.782  13.859 -0.0708 -0.2700 -0.0126
13907W        W29716  13.722   0.782   3.820 -0.2582  0.0546  0.2337
13908W        W29717  13.245   1.190  10.648  0.1618 -0.0005 -0.3486
13909W        W29718   7.029   0.890   2.129  0.2461 -0.3544 -0.3851
13910W        W29719  14.191  10.590  10.630  0.1420 -0.0505  0.3918
13911W        W29720  18.566  15.065   2.861  0.0623  0.2096 -0.0352
13912W        W29721   1.716  12.357  14.934  0.0584 -0.0176 -0.1250
13913W        W29722   7.532   0.898   0.882  0.1413  0.1411 -0.2612
13914W        W29723   2.266  16.777   1.118 -0.0730  0.0180  0.1660
13915W        W29724   0.257   8.553   5.723 -0.0646  0.0428 -0.1967
13916W        W29725   7.660   4.312   5.499  0.1629 -0.1297  0.2322
13917W        W29726   8.663  14.315   4.715 -0.0514 -0.1582  0.0012
13918W        W29727   0.532   5.825   3.530  0.0651 -0.1151 -0.2452
13919W        W29728   8.624   3.476   4.169  0.1167 -0.1082  0.3699
13920W        W29729  13.105   4.264   0.734  0.2999  0.1175 -0.0225
13921W        W29730   7.438  10.957   9.470  0.0702  0.1312  0.0186
13922W        W29731  12.179   5.947  15.526 -0.1293 -0.3187  0.1351
13923W        W29732  17.924  10.151   0.059 -0.2017 -0.0959  0.0992
13924W        W29733  13.953  18.608  14.984  0.2192  0.1603  0.1945
13925W        W29734   8.245   6.419  13.354  0.1359 -0.2390  0.6002
13926W        W29735   8.790   8.692   0.001 -0.1154  0.1726  0.1624
13927W        W29736   2.792  12.650  14.861 -0.0565 -0.2721  0.2024
13928W        W29737  12.699   2.059   5.834 -0.1404  0.3086 -0.0764
13929W        W29738   2.430   0.595   1.055 -0.0040 -0.1511  0.0893
13930W        W29739  17.444   5.197  13.806 -0.0230 -0.0022  0.2772
13931W        W29740   5.055   1.670  12.398 -0.0828 -0.0010  0.2191
13932W        W29741  18.284  16.937   3.247  0.3375 -0.1783 -0.0873
13933W        W29742  14.088  15.393  11.809  0.0489  0.1186 -0.0899
13934W        W29743   8.296   4.967  12.629 -0.2134 -0.1357  0.1135
13935W        W29744   9.560   2.182   2.830  0.0888  0.2368 -0.2997
13936W        W29745  15.647  15.506   3.345  0.2413 -0.2787 -0.2038
13937W        W29746   5.552  17.543   0.392  0.0895 -0.2890  0.0909
13938W        W29747  15.885   9.728  12.777 -0.0206 -0.4179 -0.2323
13939W        W29748   5.017  15.400   3.963  0.0757 -0.0875  0.1093
13940W        W29749  17.573   5.130  12.840 -0.1808  0.2706 -0.2326
13941W        W29750  14.277   8.951   3.054 -0.0958  0.1964 -0.1883
13942W        W29751   3.326   1.471  11.610  0.1290  0.2902  0.0048
13943W        W29752   4.734  18.462   1.275  0.0164 -0.2404 -0.0256
13944W        W29753  14.825   9.015  14.152 -0.0679 -0.5492  0.1243
13945W        W29754  10.775  16.257   0.663 -0.0842  0.1493  0.0313
13946W        W29755  12.635   1.040   5.498  0.2138  0.1340 -0.2045
13947W        W29756  12.899  15.291   4.604  0.1696  0.0315 -0.1030
13948W        W29757   6.298  15.960  13.070  0.0840 -0.1106  0.1934
13949W        W29758  12.466   3.804   5.820 -0.0292  0.5942 -0.1135
13950W        W29759   2.199  18.771  13.897  0.1959 -0.1208 -0.0404
13951W        W29760  15.478  14.365  14.048 -0.1411  0.2424  0.0475
13952W        W29761   6.228   0.174   5.223 -0.1724  0.0337 -0.0917
13953W        W29762   7.494   4.966  11.998  0.1305 -0.4918  0.1789
13954W        W29763   3.812   0.295  13.156 -0.2399  0.1846  0.1687
13955W        W29764   5.916  13.632  10.639 -0.2608  0.1281  0.2649
13956W        W29765   0.827  10.388   0.491  0.1154 -0.1381  0.0148
13957W        W29766   4.886  13.663   2.839 -0.2568  0.0082 -0.1493
13958W        W29767   7.182   5.592   3.200 -0.2755  0.5016  0.0057
13959W        W29768  18.049   4.611   5.321  0.3041 -0.0952  0.4170
13960W        W29769   1.297  13.333  11.823  0.0425  0.1597 -0.0704
13961W        W29770   7.153   2.237   5.789 -0.0522 -0.2854  0.1293
13962W        W29771   6.296   9.743  13.156 -0.1122  0.2277  0.1536
13963W        W29772  14.471   7.131   2.610  0.0511 -0.1920 -0.0609
13964W        W29773   5.839   5.973  15.064  0.0127 -0.1290  0.1969
13965W        W29774   3.211   3.631   0.924  0.1242  0.0276 -0.1093
13966W        W29775  13.265   3.489   0.958 -0.3209 -0.2916  0.2388
13967W        W29776  10.579  12.956  13.631  0.3387  0.0264 -0.0093
13968W        W29777   3.237   5.624  12.971  0.2264 -0.0729 -0.0045
13969W        W29778  16.777   0.014  12.690 -0.1385  0.2957 -0.1296
13970W        W29779  14.582   7.862   0.251 -0.2052  0.1363 -0.1519
13971W        W29780   8.670   4.202   4.441  0.0970  0.0186 -0.0362
13972W        W29781  17.137  14.161  15.274  0.0537 -0.2411 -0.0364
13973W        W29782   9.018   1.190   5.559  0.0338  0.1037 -0.3070
13974W        W29783  17.366   5.317  13.271 -0.2376 -0.0493  0.4615
13975W        W29784   1.984   5.889  11.301 -0.2957 -0.2215 -0.2584
13976W        W29785   4.908   3.589  14.907 -0.0753  0.1020  0.0403
13977W        W29786   6.873  15.589   0.949 -0.0596 -0.1119 -0.0990
13978W        W29787   3.283  15.603  12.213  0.0630  0.1844  0.4913
13979W        W29788   0.209  16.485   4.786  0.1602 -0.3635 -0.2075
13980W        W29789  16.097  11.109   1.142 -0.1975 -0.3796 -0.2081
13981W        W29790   7.104  16.638   3.419  0.0579  0.1381 -0.1112
13982W        W29791   9.162   4.438   4.124  0.0352 -0.0128 -0.2585
13983W        W29792   0.801  12.349   1.109 -0.1651  0.0067 -0.1301
13984W        W29793   4.309  13.913  11.633 -0.6571 -0.2708  0.1708
13985W        W29794  16.818  11.348  12.489 -0.1279 -0.1415 -0.0957
13986W        W29795   8.726  17.725  12.086 -0.0916  0.1096 -0.1637
13987W        W29796   5.290   5.661   1.765 -0.2030  0.0092 -0.1026
13988W        W29797   9.858   8.361  10.552 -0.4189 -0.0478 -0.1213
13989W        W29798   8.938  10.093  12.870 -0.1159 -0.2383  0.1588
13990W        W29799   0.251   6.134  11.790 -0.2121  0.1994 -0.0047
13991W        W29800   3.569   8.033  13.256  0.0514  0.2554  0.0010
13992W        W29801  17.785  15.289  12.957 -0.1627  0.1255 -0.1430
13993W        W29802  17.884  10.110  11.888  0.0063  0.2726 -0.3595
13994W        W29803   8.505  11.594   3.990  0.0501 -0.0175  0.3065
13995W        W29804   0.705  10.463   3.996 -0.1774 -0.0830  0.0563
13996W        W29805  14.631  18.304  15.426  0.0953 -0.3525  0.1238
13997W        W29806  15.147  17.166   2.734  0.0714  0.1310  0.3217
13998W        W29807   9.110  16.683   1.353  0.1381 -0.3786  0.0990
13999W        W29808  10.476  16.557   1.329 -0.1206 -0.2236 -0.5190
14000W        W29809   7.971   0.924  14.927 -0.0790 -0.0569 -0.2637
14001W        W29810  18.593   6.781  15.234  0.1012  0.2803  0.2042
14002W        W29811  16.623   1.832  12.981  0.0627  0.1316 -0.3388
14003W        W29812  13.481  17.486   2.255  0.2258 -0.0191  0.1478
14004W        W29813  10.746   1.089  11.810  0.2031  0.1756 -0.2021
14005W        W29814   2.651   0.712  14.004  0.1598  0.0874  0.0999
14006W        W29815  18.304   4.056  15.391  0.1330 -0.2208  0.1148
14007W        W29816  11.104  16.590   5.413  0.2281 -0.0308  0.1895
14008W        W29817   1.963   8.284   4.099 -0.1309 -0.2490 -0.1531
14009W        W29818   9.458   6.405   5.221 -0.4709 -0.1979  0.2551
14010W        W29819   5.803   7.113   0.830 -0.0187  0.1860  0.4394
14011W        W29820  16.516   7.274   0.389  0.0413  0.0736  0.4204
14012W        W29821   4.629   8.130  11.460  0.1060 -0.0437  0.3221
14013W        W29822   7.640  13.233  14.999  0.0834 -0.3143 -0.1518
14014W        W29823   0.636   8.875   4.573 -0.1667 -0.1052 -0.1800
14015W        W29824  15.133  13.879   0.876 -0.1979 -0.0597  0.0012
14016W        W29825  12.515  11.412   4.153  0.2250 -0.3176 -0.1056
14017W        W29826   7.538  14.168   0.854  0.0453 -0.1202  0.0996
14018W        W29827   2.135  10.054   0.652 -0.0176 -0.2107 -0.2781
14019W        W29828   6.397  18.778   3.365  0.0953 -0.1517  0.1876
14020W        W29829  15.303   5.425   5.095 -0.3163  0.1240  0.1054
14021W        W29830   5.983  14.506   2.887  0.2365  0.0710 -0.0529
14022W        W29831   6.108  14.562   0.821  0.0688  0.0858 -0.3627
14023W        W29832  16.202   3.546  10.985  0.0986  0.0216  0.0965
14024W        W29833   1.805   5.414  14.306 -0.3561  0.2980 -0.2586
14025W        W29834  15.049  12.982   2.627  0.1974  0.1489 -0.1953
14026W        W29835  12.675  11.585  13.816  0.2376  0.0186 -0.2658
14027W        W29836   6.650   9.882  11.696 -0.0077 -0.1771 -0.2195
14028W        W29837   1.269   9.084   2.639  0.0364 -0.2248  0.1669
14029W        W29838   4.367   0.625   2.566 -0.0447 -0.0369 -0.0845
14030W        W29839  15.322   2.962   5.797 -0.0462  0.2820 -0.2030
14031W        W29840  16.804  15.526   5.028  0.0499  0.1298  0.1142
14032W        W29841  13.979  10.811  14.912 -0.2624 -0.0350  0.2358
14033W        W29842  16.857  14.236   5.057  0.4323 -0.0745 -0.1822
14034W        W29843   7.058   9.777  12.670 -0.2143 -0.1692  0.0253
14035W        W29844  14.950   8.662   0.083 -0.0033  0.1864 -0.1012
14036W        W29845   3.990  17.699  14.282 -0.0093  0.0072  0.1727
14037W        W29846   2.012   0.850   0.956 -0.0741 -0.1762 -0.0300
14038W        W29847   7.018   8.627  14.797 -0.2710  0.3128 -0.3020
14039W        W29848  13.285   4.856   3.956  0.1058  0.1101  0.0669
14040W        W29849   2.240   7.784   9.724 -0.1935  0.1757  0.1339
14041W        W29850  15.289  12.121   1.543  0.1313 -0.2296  0.2155
14042W        W29851  12.162  16.485   1.284 -0.1839 -0.0267 -0.0759
14043W        W29852  14.965   6.442   0.657 -0.1610  0.2079 -0.4222
14044W        W29853   6.233   0.296  10.975 -0.0082 -0.0133  0.0678
14045W        W29854   4.495  13.743   3.319 -0.0321  0.0741  0.1082
14046W        W29855  14.239  13.088   4.892  0.0143 -0.0848 -0.1342
14047W        W29856   4.716  10.048   3.966  0.0511  0.0210  0.4217
14048W        W29857  13.027  14.977  14.878  0.0177 -0.2182  0.1091
14049W        W29858  14.930  16.681  12.048 -0.0836  0.1637 -0.2826
14050W        W29859   9.415   9.708  12.368 -0.1263 -0.2171 -0.1402
14051W        W29860  11.444   2.627  14.846 -0.0646  0.0325 -0.2504
14052W        W29861   6.093  12.002  14.021  0.0701  0.1339  0.1207
14053W        W29862   5.408  12.473   2.396  0.2436  0.0214  0.2714
14054W        W29863   3.477   1.225   2.439  0.2717  0.4144  0.0706
14055W        W29864   6.849  17.526   1.224  0.1737  0.2936 -0.3982
14056W        W29865   1.262   3.701   1.827 -0.4233  0.2556  0.1695
14057W        W29866   8.518  11.237   4.895 -0.0852  0.0527 -0.0395
14058W        W29867   5.209   7.627   4.661  0.0420  0.1526  0.3111
14059W        W29868   5.839   6.452  14.742 -0.4077  0.0400 -0.2443
14060W        W29869  10.220   1.796   2.060  0.3586  0.1011  0.2056
14061W        W29870   9.243   1.308  12.693 -0.0701  0.2164 -0.1555
14062W        W29871  16.075  14.675   4.299 -0.2352  0.2789 -0.4507
14063W        W29872   5.675   0.092   5.472 -0.4874  0.1196  0.1599
14064W        W29873  17.952   8.368   0.594  0.0007  0.1302 -0.2168
14065W        W29874  14.383  18.653   3.339 -0.0400  0.1281  0.2159
14066W        W29875  12.445   8.117  12.510  0.0267 -0.0853 -0.1765
14067W        W29876  18.007  13.761  11.128 -0.1770 -0.0349  0.1635
14068W        W29877   8.060  14.568  11.711 -0.0982 -0.4170 -0.1628
14069W        W29878   4.702   5.629  10.448  0.2149 -0.1102 -0.1059
14070W        W29879   6.798  11.822  12.249  0.1168  0.4783  0.0141
14071W        W29880   4.019   0.750   3.018  0.1002  0.0292  0.1567
14072W        W29881   0.756   2.270   0.689  0.1026 -0.1090  0.3142
14073W        W29882  10.591  11.909  15.495 -0.0248  0.2249 -0.1559
14074W        W29883   8.443  11.721   5.319  0.0002  0.1276  0.0214
14075W        W29884   7.592  16.485  11.720  0.1526 -0.4713  0.0127
14076W        W29885  11.368  12.165   4.462  0.0186  0.1145  0.1535
14077W        W29886  14.360   5.822  14.496 -0.2008  0.0345 -0.0606
14078W        W29887  11.230   6.579  11.679 -0.1195  0.0200 -0.1372
14079W        W29888   3.619   1.060  15.436  0.0575  0.1294 -0.1151
14080W        W29889   5.780   5.654  13.655 -0.0542 -0.1650  0.1295
14081W        W29890   4.323  12.556  14.945  0.1226  0.2508  0.1215
14082W        W29891   4.713   6.317   1.143  0.3882 -0.0820  0.0177
14083W        W29892  11.270  14.079   0.445 -0.1435 -0.0144 -0.0343
14084W        W29893   3.721  17.888   4.638 -0.0762 -0.3760  0.0581
14085W        W29894   7.472   1.062   3.118 -0.2452 -0.1398  0.2059
14086W        W29895   7.660   2.720  14.294  0.2268 -0.0592  0.1033
14087W        W29896  18.390  18.661  11.224  0.0878  0.0910  0.2613
14088W        W29897  10.185   4.180   3.886  0.1961  0.0509  0.0992
14089W        W29898   2.177  10.476  15.139 -0.0296  0.0271 -0.2521
14090W        W29899  11.787   9.517   5.910 -0.1464 -0.1840 -0.0590
14091W        W29900   0.920  11.799   2.828  0.1605 -0.4055  0.2162
14092W        W29901   9.044   4.942   4.229 -0.0628  0.1622  0.0565
14093W        W29902  10.774  12.880   4.178 -0.0412  0.1526 -0.1865
14094W        W29903  11.393  14.612  11.577  0.0294  0.0861  0.0589
14095W        W29904   6.381   9.759   3.657  0.2033  0.0283  0.0209
14096W        W29905   3.781  18.674  14.288 -0.4073 -0.1272 -0.0262
14097W        W29906  11.013   7.273   1.511  0.3134  0.0382  0.0792
14098W        W29907  16.298  18.227  14.121 -0.0173  0.0089  0.1717
14099W        W29908   9.598   9.405  10.904  0.2500 -0.0909 -0.0600
14100W        W29909   2.738   5.396  13.337  0.2077  0.4355 -0.3690
14101W        W29910   1.392  13.710   1.913 -0.0062 -0.2218  0.2655
14102W        W29911   8.418   3.731   3.693 -0.0934 -0.1346  0.1122
14103W        W29912   9.502   2.387   9.681  0.1907  0.0390 -0.0866
14104W        W29913   7.742  18.574  13.213 -0.0405  0.2168 -0.3157
14105W        W29914  16.952  17.991  15.336  0.2760  0.1528  0.2405
14106W        W29915  11.466  16.761  13.712 -0.0495 -0.3479 -0.1361
14107W        W29916  13.477   6.121  11.671 -0.2726 -0.0572 -0.1521
14108W        W29917   5.705  17.109   4.221 -0.1027 -0.1360 -0.1306
14109W        W29918   9.001   7.640   1.432  0.0449 -0.0956 -0.1074
14110W        W29919  10.005  14.220  13.106  0.0978 -0.2530 -0.2128
14111W        W29920   7.662  10.058  15.296 -0.0919 -0.1289 -0.3984
14112W        W29921   2.600   7.505   9.899 -0.2538 -0.3083 -0.2188
14113W        W29922  13.736  17.464   0.194 -0.2587 -0.2894  0.1292
14114W        W29923  15.353   6.893   4.567  0.1367  0.2780 -0.3651
14115W        W29924   8.645  16.464   1.445  0.1980 -0.2879  0.1041
14116W        W29925  12.333  17.956   2.712  0.1183  0.3016  0.0488
14117W        W29926   8.094   7.534   3.687  0.0353  0.0895 -0.3845
14118W        W29927   7.358   9.773  13.042 -0.0860  0.0662  0.0256
14119W        W29928   7.532   5.743   0.148 -0.0584  0.2007 -0.3954
14120W        W29929   4.948  16.276  11.011 -0.1692  0.1174 -0.1904
14121W        W29930   3.677  11.511   4.068  0.0301  0.0471  0.2518
14122W        W29931  16.879  11.731  10.610  0.2980  0.0821  0.2205
14123W        W29932   4.095   1.987   5.636  0.4285 -0.0231  0.1940
14124W        W29933  13.948   3.474  14.558 -0.0787 -0.0915  0.4843
14125W        W29934   6.659  11.289   3.422  0.0448 -0.2001 -0.0034
14126W        W29935   6.518  10.406   5.395  0.1333  0.1425 -0.1284
14127W        W29936  17.946   0.461   1.101 -0.1610 -0.2047 -0.3989
14128W        W29937   2.986   9.843  13.420 -0.2830  0.3917 -0.0246
14129W        W29938   6.497  11.186   5.960  0.1132  0.0473  0.0555
14130W        W29939  16.006   2.092  13.853  0.1502  0.1978  0.0002
14131W        W29940   5.024   8.933  11.099 -0.0036  0.0847  0.0991
14132W        W29941  17.619  15.622   5.536  0.1388  0.3480  0.2152
14133W        W29942   6.410   7.982  14.823  0.1612  0.2806  0.0548
14134W        W29943  15.115   4.602  13.947  0.0565  0.1378 -0.0756
14135W        W29944  12.149   9.684  13.012 -0.0117  0.2757  0.1054
14136W        W29945  17.023   3.347   3.605 -0.0674  0.3143 -0.0747
14137W        W29946  10.534   3.045   2.384  0.0888  0.0359  0.4689
14138W        W29947  12.423   1.037  12.070  0.1945 -0.1266  0.1889
14139W        W29948   7.991  18.286  12.899  0.2424  0.0183  0.0306
14140W        W29949  12.236   0.323   2.335 -0.5011 -0.0756 -0.2625
14141W        W29950   9.294   6.333  14.270 -0.2590 -0.0890 -0.0184
14142W        W29951   6.737  15.531  13.864  0.1897  0.1103 -0.1437
14143W        W29952  10.982   5.228  15.157  0.0234 -0.3734 -0.0957
14144W        W29953   3.081   5.146  13.063  0.0529 -0.1697  0.1259
14145W        W29954  12.053   4.545  15.496 -0.2118  0.1745  0.0399
14146W        W29955  10.625   9.290   5.556 -0.0388  0.2363 -0.0270
14147W        W29956  16.984   8.574   0.216  0.0245  0.0382  0.1047
14148W        W29957   4.044   6.982  12.911  0.0440 -0.0095 -0.0324
14149W        W29958   1.642   4.056  12.995  0.5293  0.2168  0.2586
14150W        W29959  16.743  12.488   1.533 -0.1328 -0.1059  0.4632
14151W        W29960   7.073  10.824  13.497 -0.0816  0.2478  0.0053
14152W        W29961  13.168   4.447  12.629  0.2287 -0.0677  0.0753
14153W        W29962  17.962   4.496   0.027 -0.1793  0.1859 -0.1348
14154W        W29963  14.835  12.612  12.193 -0.0878  0.0822  0.1777
14155W        W29964  17.180   9.684  12.250 -0.1784 -0.0053  0.1416
14156W        W29965   5.760   2.869   3.769  0.1132 -0.0806  0.1704
14157W        W29966   4.489  17.081   0.423 -0.1650  0.1040  0.0810
14158W        W29967   2.382  12.435   0.056  0.0010 -0.0453  0.1102
14159W        W29968   9.712  17.454   3.032  0.2623 -0.2408  0.1746
14160W        W29969  16.137   2.833   0.835 -0.0751 -0.1437 -0.0183
14161W        W29970   8.531  18.716  10.653 -0.0844 -0.1522  0.1851
14162W        W29971   3.012   9.438  14.150 -0.0547  0.1935  0.1647
14163W        W29972   9.710   1.131  12.859 -0.2223 -0.1935  0.0753
14164W        W29973  13.230   2.710  15.035 -0.0400  0.2043 -0.2686
14165W        W29974   5.817   5.102   4.824 -0.0360  0.1760  0.2001
14166W        W29975   6.500   5.398   4.353 -0.2085  0.3260  0.2385
14167W        W29976   4.398   8.704   0.291 -0.0542  0.1130  0.3747
14168W        W29977  17.926  11.183  11.646  0.1588 -0.0865 -0.0622
14169W        W29978  15.216  12.370   0.150 -0.0044 -0.2285  0.3013
14170W        W29979  14.157   7.156   4.265 -0.0239  0.2302 -0.3286
14171W        W29980  14.975   8.565   1.305  0.0569 -0.1569 -0.1665
14172W        W29981  18.326   8.500   0.241  0.1083 -0.1044  0.0431
14173W        W29982  12.644  13.696  10.940 -0.4668 -0.1013 -0.1676
14174W        W29983   0.583   5.224   1.774  0.2077  0.1302  0.0755
14175W        W29984  12.925   1.536   2.529  0.0148  0.0492  0.3118
14176W        W29985   7.681   6.345   1.678  0.0538 -0.4790  0.0647
14177W        W29986   4.927  16.189   5.114 -0.2275 -0.0690  0.0137
14178W        W29987  10.345   9.087  14.709  0.1880 -0.1174  0.0631
14179W        W29988   9.586   9.469   1.681  0.1732  0.0970  0.1079
14180W        W29989   6.853   8.680   1.380  0.3897 -0.0014  0.1249
14181W        W29990   9.100   8.028   3.655  0.1375 -0.0662 -0.3300
14182W        W29991   8.368   4.104   1.669  0.2036  0.2224  0.2758
14183W        W29992   8.630  14.957   1.552 -0.3794  0.0533  0.0957
14184W        W29993   2.844  11.901  12.953 -0.0924  0.1900 -0.1419
14185W        W29994   5.818   5.879   3.772  0.0665 -0.0418  0.0151
14186W        W29995  11.589   8.605   4.679 -0.1310 -0.2220  0.1957
14187W        W29996   7.592   7.631   4.651  0.0747  0.0884 -0.2474
14188W        W29997  16.422   4.220  12.289 -0.0440 -0.2455 -0.0543
14189W        W29998   7.398   8.702   0.122 -0.3815 -0.0412  0.0030
14190W        W29999   5.488   7.102  15.521 -0.2471 -0.3122  0.3537
14191W        W30000   5.722   4.397  13.647 -0.2732 -0.0206  0.1129
14192W        W30001  14.833   6.479  12.302  0.0896  0.2029 -0.0237
14193W        W30002   2.780   4.503  13.455 -0.2696  0.2502 -0.0212
14194W        W30003   7.906   6.528   1.209 -0.1446  0.2013  0.1404
14195W        W30004   2.144   5.035  14.540 -0.3161 -0.2679 -0.0539
14196W        W30005  13.076   7.610  11.997 -0.1359  0.0772 -0.3797
14197W        W30006  13.289  14.248  12.519 -0.1838 -0.1449 -0.2238
14198W        W30007   5.874   2.707   2.078  0.0672 -0.0478  0.0815
14199W        W30008   9.744  12.963  11.226 -0.2146 -0.1646  0.0265
14200W        W30009   8.874   7.573  13.271 -0.1902  0.4026  0.1845
14201W        W30010  18.436  16.621   2.851  0.2051  0.1138  0.0084
14202W        W30011   8.324   0.929  12.707 -0.1073  0.0873 -0.0223
14203W        W30012  13.170  14.938  12.921 -0.2185  0.0927 -0.0279
14204W        W30013   0.174   3.786   3.838  0.0623 -0.3637 -0.0782
14205W        W30014  11.383   1.343   5.350  0.1851 -0.3089 -0.1210
14206W        W30015  18.710   3.832  12.726  0.0986 -0.2161 -0.1227
14207W        W30016  18.365   4.779   2.289  0.1887 -0.0942 -0.1502
14208W        W30017   6.512   4.761   4.068  0.0986 -0.1066  0.1165
14209W        W30018  16.077  16.304  14.119  0.1888 -0.1369  0.0200
14210W        W30019   3.943   7.557   1.723  0.0562 -0.0490 -0.2293
14211W        W30020   5.121   6.931  14.513  0.2453 -0.0461  0.0724
14212W        W30021   5.771   7.378   2.137 -0.0962 -0.1518 -0.1149
14213W        W30022  16.091  11.669  10.849 -0.1228 -0.1805 -0.1352
14214W        W30023   7.714   6.250   5.121 -0.0657  0.3280 -0.1095
14215W        W30024  13.837   1.252  14.107  0.0068 -0.1378 -0.1820
14216W        W30025  15.391  16.403   5.040  0.1134 -0.1397  0.0084
14217W        W30026  11.705   3.781   4.513 -0.2071 -0.1949  0.0102
14218W        W30027   4.916  16.293  10.450 -0.3093  0.2257  0.1675
14219W        W30028  14.139   0.774  14.760  0.2282  0.1859 -0.2589
14220W        W30029   8.957   9.631   4.136  0.0208  0.1464  0.0746
14221W        W30030   4.797   0.212   1.768  0.1237  0.2086 -0.2250
14222W        W30031   5.975   8.488  13.226 -0.2258 -0.0600 -0.2015
14223W        W30032   6.140  14.178   3.339  0.0585 -0.1650 -0.0986
14224W        W30033   7.299   8.905  12.822 -0.1827  0.1263  0.0279
14225W        W30034  16.127   4.143   1.430  0.0031 -0.0067  0.1764
14226W        W30035  18.754   1.309   5.891 -0.1076  0.0094  0.3740
14227W        W30036   9.102   8.731  10.975 -0.2198  0.0199  0.3017
14228W        W30037   7.983   5.902   1.574 -0.1560  0.0008 -0.0740
14229W        W30038  17.456  12.255  11.651 -0.0120 -0.1006 -0.1897
14230W        W30039   3.791   6.754  15.455 -0.1161  0.3073 -0.1232
14231W        W30040   7.129  11.382   0.528 -0.1959 -0.1554  0.0453
14232W        W30041  17.964   6.227   0.233 -0.0877  0.1110 -0.3626
14233W        W30042   5.471  12.856   0.036 -0.0002 -0.1797 -0.1223
14234W        W30043  18.525  14.117   3.481  0.0460  0.0668 -0.2174
14235W        W30044  11.942   2.147  11.250  0.1151  0.3295 -0.0585
14236W        W30045  16.259  13.247   4.268  0.1792 -0.1922 -0.1699
14237W        W30046  14.926  10.867  10.148 -0.0403 -0.1923  0.4317
14238W        W30047   1.634  15.074   0.649  0.2964 -0.0485 -0.0635
14239W        W30048   5.377  13.564   0.886 -0.0235 -0.2017 -0.0673
14240W        W30049   2.044  17.976   0.756 -0.2974 -0.0485  0.3241
14241W        W30050  16.014   2.728  12.924 -0.1894  0.0932 -0.0746
14242W        W30051   9.935   4.208   0.086 -0.3144  0.0496 -0.0289
14243W        W30052  11.153  15.783   0.106  0.3655  0.2621 -0.0648
14244W        W30053  11.307  18.668   4.193  0.2981  0.0125  0.0750
14245W        W30054  12.136   4.313   1.240 -0.2215 -0.0251  0.0155
14246W        W30055  10.484  12.556  10.930  0.3000  0.4263 -0.1438
14247W        W30056  16.697   3.539   3.310  0.2261 -0.2988 -0.0988
14248W        W30057  10.370   7.206   0.221  0.0791 -0.1182 -0.0276
14249W        W30058  12.889  13.132   3.579 -0.2050 -0.1474  0.0922
14250W        W30059   4.286   2.111   0.967  0.2485 -0.0343 -0.4430
14251W        W30060  14.244  14.067  14.626 -0.1537  0.1685 -0.1554
14252W        W30061   6.310   1.800   0.185  0.1049  0.0789  0.1629
14253W        W30062  10.307   5.769   2.123  0.0472 -0.1761 -0.2479
14254W        W30063  15.014  14.669   0.749 -0.2913 -0.0252  0.2302
14255W        W30064  16.348  15.692  12.807  0.0259 -0.3354 -0.0228
14256W        W30065  11.714  13.742  14.339 -0.0166 -0.1551  0.2099
14257W        W30066   5.104   1.050  14.449 -0.1207 -0.1823 -0.2496
14258W        W30067   3.852   5.088   2.856 -0.0047 -0.1716  0.2934
14259W        W30068   9.563  12.003   0.039  0.3068 -0.1991  0.0939
14260W        W30069   7.826   8.292   5.393  0.0269 -0.3050 -0.3340
14261W        W30070  13.765   3.444  14.059  0.2265 -0.1781  0.2385
14262W        W30071  10.231  18.124  14.882  0.2875  0.2185  0.0976
14263W        W30072  14.741  10.116   4.891 -0.2860 -0.0478 -0.1449
14264W        W30073   3.196   1.323  15.198 -0.1129 -0.1705  0.0038
14265W        W30074   9.749  13.764  12.001 -0.4487 -0.0700 -0.2205
14266W        W30075  17.454   9.815  14.764  0.0508  0.1100  0.0451
14267W        W30076   8.221   3.946  10.627  0.1649  0.1794  0.0200
14268W        W30077  16.493   2.446   3.078  0.0121  0.1968 -0.0281
14269W        W30078  17.138  15.870  11.028  0.0133 -0.0854  0.2416
14270W        W30079  15.078  14.817   3.104 -0.0384 -0.0943 -0.1194
14271W        W30080   9.202   2.428   2.557  0.1094  0.1789 -0.0396
14272W        W30081   3.266   9.968   5.043  0.2834  0.3072  0.1221
14273W        W30082   9.817   9.827  13.278 -0.0519  0.2598 -0.0076
14274W        W30083  13.853   0.310   0.803 -0.3110 -0.0715  0.0539
14275W        W30084  15.767   0.256   6.016 -0.0756  0.1545 -0.0318
14276W        W30085   0.236   0.490   5.863  0.0034 -0.1383 -0.0273
14277W        W30086  15.971   3.691  12.795  0.0351  0.0719  0.1573
14278W        W30087   9.998   6.908   0.371  0.2724  0.1622  0.0394
14279W        W30088  15.484  13.473  13.975 -0.1805  0.2844  0.1112
14280W        W30089  17.627  13.631  11.695 -0.0469  0.1203 -0.1794
14281W        W30090   2.000  15.746   2.938  0.3042  0.1082  0.0480
14282W        W30091  14.104   6.576   2.164  0.0893  0.0009 -0.2925
14283W        W30092  16.803  16.530  12.231 -0.0086 -0.2571 -0.3795
14284W        W30093  15.600   0.037  13.490  0.1933 -0.0020  0.0599
14285W        W30094   1.327  13.031  10.898 -0.3011  0.0714  0.3187
14286W        W30095   1.618  14.183   1.148  0.1418  0.4123  0.1789
14287W        W30096   8.599   6.274  13.761 -0.0233  0.0922 -0.1262
14288W        W30097   0.255   8.539   4.047 -0.0912 -0.3581  0.2467
14289W        W30098  17.265   7.471   4.312  0.2168  0.2111  0.2207
14290W        W30099   1.465   0.329  11.876 -0.0806  0.4902 -0.0152
14291W        W30100   2.909   0.802  13.225  0.4957 -0.1427  0.2132
14292W        W30101   6.113  13.959  13.095 -0.3950  0.1430  0.0781
14293W        W30102   1.912  15.515   0.181  0.1784  0.0154  0.1420
14294W        W30103   1.589  18.627  11.082  0.0107 -0.1994 -0.1763
14295W        W30104  10.685  11.051   0.464 -0.0859 -0.1096 -0.0801
14296W        W30105  14.333  17.852  13.822  0.1718 -0.0321 -0.0594
14297W        W30106  16.507   8.133   5.056 -0.5848  0.1888 -0.0159
14298W        W30107  12.107   4.322   3.444  0.0876 -0.0950  0.0866
14299W        W30108   4.580   3.291  15.171 -0.1575 -0.1250  0.3634
14300W        W30109   4.677  15.239  13.250 -0.0662  0.0083  0.0024
14301W        W30110   4.652   4.932   3.706  0.1523 -0.0122 -0.0562
14302W        W30111  15.720   1.506  14.513  0.0199  0.4141  0.0013
14303W        W30112  12.510   4.927   0.243 -0.0542  0.0892 -0.1778
14304W        W30113  17.451  13.415   2.002 -0.1662 -0.0794 -0.0092
14305W        W30114  13.879   1.722   1.927 -0.1751 -0.1935 -0.0409
14306W        W30115  15.250   8.946  15.350  0.2848 -0.0367  0.0810
14307W        W30116   2.239   5.550  11.036 -0.1157 -0.0030  0.0619
14308W        W30117   7.068   7.666   2.214  0.2766 -0.1231 -0.2839
14309W        W30118   6.511   5.156  14.966 -0.1125 -0.1331  0.2323
14310W        W30119   5.687  15.679   3.731  0.4168  0.1147  0.0433
14311W        W30120  11.802  18.059   3.515  0.1683 -0.0694 -0.1831
14312W        W30121  13.225   8.752  15.526  0.0545  0.0027  0.1394
14313W        W30122   4.101  17.389  11.229  0.3137  0.0896 -0.0145
14314W        W30123   6.095   6.727   3.275 -0.2916  0.1123  0.0623
14315W        W30124  17.385  11.359   3.376  0.1791 -0.0009 -0.3358
14316W        W30125  14.297   3.653  13.095  0.3367 -0.0087 -0.1027
14317W        W30126  11.855   1.760  12.980  0.3079 -0.3136 -0.2746
14318W        W30127  12.769  10.626   1.579 -0.0479  0.0734 -0.2285
14319W        W30128   9.997  16.878  14.987 -0.2231  0.2365 -0.0805
14320W        W30129   1.590  17.118   1.243  0.0936 -0.3144 -0.0649
14321W        W30130   1.402   2.832  14.608  0.0077  0.4095  0.0745
14322W        W30131  11.985   3.720  12.688  0.4461 -0.0227  0.1520
14323W        W30132  16.247  18.539   1.669  0.0102 -0.0732  0.3767
14324W        W30133  16.662  11.782   0.973  0.0466 -0.2520  0.1240
14325W        W30134   1.992  14.852  10.938 -0.2224 -0.0166 -0.1046
14326W        W30135   3.775   8.401   1.085 -0.0058  0.1732  0.2674
14327W        W30136   4.046   9.869   5.735 -0.1834 -0.1179 -0.2401
14328W        W30137   5.894   6.393  14.166  0.1907 -0.2167 -0.2166
14329W        W30138   4.203  18.562   2.982  0.0501  0.0538 -0.0362
14330W        W30139   5.534   9.469  12.578 -0.0616  0.3407 -0.1392
14331W        W30140   0.420   2.127  15.311 -0.4540  0.0811  0.1064
14332W        W30141  18.290  13.564   2.363  0.1335  0.1439 -0.3037
14333W        W30142   3.725  15.384  14.768  0.3690 -0.1236 -0.0088
14334W        W30143  16.722   4.946   4.941  0.1465 -0.2473 -0.1688
14335W        W30144   2.664   8.356   0.496 -0.2157 -0.0733  0.2894
14336W        W30145  13.648   3.073   3.116 -0.0297 -0.1506 -0.2208
14337W        W30146   8.009  11.531  14.736 -0.0060 -0.3574  0.0498
14338W        W30147   6.428  12.547   4.908  0.1808 -0.2284 -0.0628
14339W        W30148   4.455  15.822   4.403 -0.1992  0.1441 -0.0475
14340W        W30149  18.241  15.082  14.593  0.0682 -0.1779  0.0840
14341W        W30150  14.205  18.698  13.028 -0.1318  0.0409  0.1594
14342W        W30151   1.061  17.466   3.532  0.0535  0.1567  0.1332
14343W        W30152  14.272   1.858  12.582 -0.3381  0.3013 -0.0510
14344W        W30153   0.559  16.728   2.733 -0.0882 -0.0818  0.0062
14345W        W30154  14.646  16.925   3.242 -0.3065  0.1631  0.0660
14346W        W30155   7.360  17.254  14.043 -0.0416 -0.1075 -0.4060
14347W        W30156   7.206  18.054   1.855  0.0903 -0.0114  0.0507
14348W        W30157   6.611   1.859  15.194 -0.1390 -0.1782 -0.1582
14349W        W30158  17.966  17.395   0.716 -0.0127 -0.1908  0.1323
14350W        W30159  15.557   0.130   2.233 -0.0680 -0.1457 -0.0838
14351W        W30160   1.791   5.538  12.618 -0.2855  0.0171 -0.0114
14352W        W30161   3.933   6.065  11.160 -0.2152  0.0204  0.0888
14353W        W30162   7.783  11.566  11.405  0.0424  0.0677 -0.3658
14354W        W30163  15.525   9.303   3.063  0.0087 -0.0530 -0.0909
14355W        W30164   7.573   1.020  13.206 -0.2887 -0.0114 -0.1157
14356W        W30165   2.440  17.707   4.337  0.1883 -0.3194  0.2918
14357W        W30166   0.850   9.573   1.828  0.0835  0.0018  0.0050
14358W        W30167   8.952  17.610   2.508  0.0934 -0.1693  0.1794
14359W        W30168  16.833   4.335  10.976 -0.1587  0.1249 -0.0046
14360W        W30169   4.020   2.935  13.692  0.2210 -0.3330 -0.1948
14361W        W30170   7.327  16.970  10.828  0.2087 -0.1541  0.2384
14362W        W30171  14.211  13.195  11.790  0.0624  0.0232 -0.0337
14363W        W30172  11.463   5.026  14.802 -0.1152  0.0611 -0.0737
14364W        W30173   5.501  11.607   0.711  0.2223 -0.2614 -0.2545
14365W        W30174  16.170  17.467  12.979 -0.0387  0.0565  0.0352
14366W        W30175   8.078   3.501   4.127  0.1408  0.1628 -0.0256
14367W        W30176  14.839  17.832  10.763 -0.1074  0.0653  0.0228
14368W        W30177   4.060   1.095  14.169 -0.0579  0.0002 -0.2471
14369W        W30178  14.704   3.620   1.514 -0.1696  0.1061 -0.2875
14370W        W30179  17.786   9.207   2.656 -0.2104  0.0325  0.0492
14371W        W30180   3.991  13.332  12.981  0.1514  0.2763  0.2543
14372W        W30181   0.203  16.861  11.257 -0.1558  0.0180 -0.1546
14373W        W30182  14.779   0.697   4.703  0.1361  0.0529  0.0723
14374W        W30183   2.058   2.652   4.408 -0.1469  0.0015 -0.0360
14375W        W30184  12.806  14.507  13.463  0.5139 -0.0679 -0.1184
14376W        W30185  12.347  15.074  13.162  0.3288 -0.0037  0.1781
14377W        W30186   3.166  17.800   2.749  0.0425 -0.3332  0.2745
14378W        W30187   8.847   3.926   4.053 -0.2178 -0.0605 -0.4005
14379W        W30188  15.349   4.479   4.709  0.1081  0.1685  0.0197
14380W        W30189   4.337   7.218   1.010 -0.0597 -0.0388  0.1031
14381W        W30190   7.395  10.569  12.595 -0.0789 -0.1546  0.3545
14382W        W30191   9.653   4.671   3.985  0.2649 -0.0955 -0.0656
14383W        W30192   0.794  11.778  14.812  0.1545 -0.0426 -0.2076
14384W        W30193  10.329   0.978  11.567  0.2729  0.1283  0.0347
14385W        W30194   3.341  16.853   3.788 -0.1355  0.1531  0.0363
14386W        W30195  11.542  10.561  14.427 -0.0167  0.1268  0.0615
14387W        W30196  17.314   9.684   5.663 -0.2979 -0.0301  0.1219
14388W        W30197   7.908   3.139   4.512 -0.1497  0.3905 -0.1112
14389W        W30198   4.659  14.726  13.678 -0.0259  0.0560  0.1596
14390W        W30199   3.504  13.076  11.946 -0.1521  0.0578  0.1727
14391W        W30200   2.386  14.943   5.462  0.0588  0.0913 -0.0957
14392W        W30201   8.027  17.624  14.434  0.2818  0.2108 -0.0800
14393W        W30202  16.786   1.156   3.735  0.0023  0.1347 -0.1860
14394W        W30203   8.374   9.331   2.279 -0.1119  0.1946  0.0491
14395W        W30204  15.998   8.755   0.097 -0.0020 -0.0878  0.2567
14396W        W30205   5.151   3.209   1.553 -0.2268 -0.0539  0.1404
14397W        W30206  14.024  10.011  15.473  0.2274  0.2050  0.2250
14398W        W30207   8.834   2.839   4.723  0.2421 -0.1189 -0.1618
14399W        W30208   2.285   1.248   5.671 -0.0536  0.2396 -0.2596
14400W        W30209  14.273  10.609   3.256  0.1219  0.0448 -0.0887
14401W        W30210   8.174  12.724  11.983 -0.0238  0.3110 -0.0618
14402W        W30211  12.392   8.616   5.322  0.0952  0.3247  0.0604
14403W        W30212  12.901  13.282   4.400  0.1189 -0.1059  0.0916
14404W        W30213  14.487   5.562  10.614 -0.0727  0.1280 -0.0652
14405W        W30214   1.418  10.260   5.006 -0.1360 -0.0969 -0.1835
14406W        W30215   4.448   6.278  12.288 -0.1405  0.0801  0.1465
14407W        W30216  14.850  17.904   4.272 -0.2218  0.1283  0.0881
14408W        W30217  10.371  13.578   4.499 -0.0576  0.0206 -0.3969
14409W        W30218   7.707  12.388   0.233  0.0587  0.0596  0.0792
14410W        W30219   9.235  17.440   0.755 -0.4504  0.2197 -0.1185
14411W        W30220   3.933   4.670  13.079  0.1343  0.1887  0.0899
14412W        W30221  17.345   8.215  10.947 -0.0928 -0.0298  0.5648
14413W        W30222   1.120  14.518   2.147 -0.1699 -0.3103  0.2087
14414W        W30223   0.284  14.195   0.438 -0.0857 -0.0850  0.2700
14415W        W30224   1.270  14.634  13.898  0.1097 -0.3631  0.1829
14416W        W30225  11.862   7.818   2.689  0.1303 -0.1660  0.1024
14417W        W30226  14.545   2.818   4.508  0.0925  0.0198  0.0729
14418W        W30227   9.120   5.388  10.626 -0.1246 -0.0835  0.3627
14419W        W30228  15.778   6.925   5.002  0.2981 -0.0619  0.1651
14420W        W30229  13.682   5.513   2.205 -0.2741 -0.2597 -0.0439
14421W        W30230  10.265  16.001  13.450 -0.0263  0.3062 -0.1535
14422W        W30231  13.142   8.128   4.009 -0.3141  0.0870  0.0293
14423W        W30232  15.885   2.385  11.222 -0.1321 -0.1052 -0.0580
14424W        W30233   2.696   6.138   0.189  0.2937  0.0673 -0.1678
14425W        W30234  12.142   3.764  14.647 -0.1798  0.1510 -0.0893
14426W        W30235  10.255  17.580   2.148 -0.0972  0.1384 -0.0249
14427W        W30236  17.754  14.547  11.826  0.2108  0.2227  0.3936
14428W        W30237   1.663  13.116  10.009  0.0852  0.0418  0.2224
14429W        W30238  10.755   5.507   1.272  0.2493 -0.1197  0.1888
14430W        W30239   4.573  10.118   0.322 -0.1238 -0.0941  0.0054
14431W        W30240  18.469   3.604   1.159  0.0880  0.2702  0.1981
14432W        W30241  16.195  11.740   2.535 -0.3496  0.1660 -0.2860
14433W        W30242   8.106   1.869  14.538 -0.1179  0.0493 -0.0764
14434W        W30243  14.390  11.002   0.213  0.0716  0.0128  0.2730
14435W        W30244   2.572   4.321  11.891 -0.0118  0.2810 -0.0396
14436W        W30245   2.416   6.944   0.384  0.1817 -0.3119  0.1136
14437W        W30246  11.768  12.620  14.416 -0.0270 -0.0796 -0.1957
14438W        W30247   6.215  14.964  13.399 -0.0910  0.0645 -0.6669
14439W        W30248  18.406  13.336   1.833 -0.0657  0.1595  0.0910
14440W        W30249  16.861  10.303  11.625 -0.1015  0.1395 -0.0066
14441W        W30250   9.114  13.657  10.961  0.1383 -0.0974  0.0733
14442W        W30251  10.303  10.172  13.245  0.1036  0.0951 -0.2931
14443W        W30252   2.354   5.631   0.525  0.2093 -0.0472 -0.2407
14444W        W30253  14.895   9.103   1.955  0.0057  0.0480  0.0282
14445W        W30254   1.531   3.495  10.664  0.0107 -0.1516  0.0361
14446W        W30255   9.179   8.082   4.354 -0.0160  0.2109 -0.2556
14447W        W30256   7.175   3.130   4.546 -0.2218 -0.0508  0.1226
14448W        W30257   4.598   8.989   2.945 -0.1647  0.0534 -0.1003
14449W        W30258   5.902   5.485  11.732  0.1684  0.0275  0.1400
14450W        W30259   4.293  15.038  13.858 -0.0824 -0.1678 -0.0378
14451W        W30260  15.065   4.136  10.291 -0.0751  0.1179 -0.2487
14452W        W30261   8.680   6.345   0.375 -0.0419  0.0547  0.3098
14453W        W30262  14.627   8.599   0.860 -0.0883  0.1620 -0.0652
14454W        W30263  12.118   8.797   9.513 -0.2069 -0.0678  0.3849
14455W        W30264   5.264  14.546   0.307 -0.0064 -0.0141 -0.0202
14456W        W30265   7.035   8.847   1.824  0.2730 -0.0145 -0.0039
14457W        W30266   5.490   9.180   1.372  0.2440  0.1176 -0.1009
14458W        W30267   7.514   8.089  13.776  0.0018 -0.1382  0.2991
14459W        W30268   5.438  15.922   3.344 -0.2641  0.0661 -0.3739
14460W        W30269  14.245  12.307  11.511  0.1033 -0.2425  0.1229
14461W        W30270   0.355   7.680  13.756 -0.1995 -0.2642  0.0457
14462W        W30271   1.418   5.899   0.515  0.1265 -0.4997 -0.1906
14463W        W30272   1.967  14.855   3.790  0.2089 -0.0845 -0.3155
14464W        W30273  10.393   0.957  14.109 -0.1635  0.1335 -0.0038
14465W        W30274   5.168  16.792   1.652  0.0711 -0.0115  0.0091
14466W        W30275   9.724   1.790  13.166 -0.0880  0.2395 -0.0800
14467W        W30276   7.901  17.519  11.791  0.3915 -0.1100 -0.0237
14468W        W30277   7.733  16.758  15.530 -0.2096 -0.2959  0.1685
14469W        W30278   8.471   8.258   4.772 -0.0166  0.1102 -0.0021
14470W        W30279  17.389  10.296   0.206  0.0996 -0.1252 -0.1256
14471W        W30280   4.109   5.791   2.101  0.3095  0.2290 -0.3304
14472W        W30281  10.272   3.499   3.253  0.0523 -0.1922 -0.5222
14473W        W30282  12.297   8.849  14.724 -0.1272 -0.0059  0.0161
14474W        W30283   5.075  16.672   5.359 -0.1417 -0.1605 -0.2154
14475W        W30284  11.261   3.945   4.526  0.0192 -0.4745 -0.1061
14476W        W30285   0.758   2.927  14.749 -0.0165 -0.1449  0.1754
14477W        W30286   7.206  12.893  10.978 -0.0175  0.0800  0.2388
14478W        W30287  11.172   9.289   3.196  0.0605  0.1686  0.2793
14479W        W30288   5.773   8.090   3.218  0.2996  0.3844 -0.1076
14480W        W30289  14.415  10.088  12.258 -0.0277  0.1221 -0.0722
14481W        W30290   7.191  11.270   1.255  0.1828  0.0249 -0.1613
14482W        W30291  10.349   0.159   2.185 -0.2503  0.2702  0.0438
14483W        W30292   2.923   2.598   3.912 -0.0245  0.2044 -0.1317
14484W        W30293   1.924  13.747   1.174 -0.1353  0.1209  0.1593
14485W        W30294  13.933   9.513  12.882 -0.2900 -0.0267  0.1864
14486W        W30295  16.898   5.641   0.705 -0.2566 -0.0509 -0.2067
14487W        W30296  16.556  10.444  12.557 -0.2073 -0.3327 -0.1683
14488W        W30297   7.406   3.350   2.276 -0.0292  0.1384  0.0651
14489W        W30298   1.155   8.351   3.137 -0.3160 -0.1151  0.0880
14490W        W30299  14.030  17.456  10.469 -0.0735  0.4775  0.0539
14491W        W30300  18.256  10.906   0.477 -0.2451  0.0946 -0.0187
14492W        W30301  11.060  10.660   0.276  0.3416  0.1491  0.0872
14493W        W30302   1.453  17.690  10.628  0.2619  0.1636 -0.0303
14494W        W30303  16.191   9.194   3.674 -0.2670  0.3648  0.1664
14495W        W30304  11.290  15.676   1.822 -0.1579 -0.1655 -0.1696
14496W        W30305  15.411   9.797  13.664  0.0817  0.1351  0.0787
14497W        W30306   4.083   6.665   2.749  0.2134 -0.2378 -0.4402
14498W        W30307   9.655   7.830  10.719 -0.2105 -0.2837  0.0693
14499W        W30308   3.097  12.574   3.986  0.1375  0.1879 -0.1138
14500W        W30309   7.481  15.821  12.171  0.1462  0.5798 -0.1291
14501W        W30310  17.925  11.688   4.135  0.0395 -0.2470 -0.0793
14502W        W30311  16.156  16.548  13.203 -0.1937 -0.0289  0.1393
14503W        W30312  10.256   1.432   2.856  0.3229 -0.1318 -0.2124
14504W        W30313   7.839   2.406   1.531 -0.1687 -0.2841  0.1284
14505W        W30314   9.846   9.268  13.417 -0.0851  0.3768  0.3364
14506W        W30315  11.592  16.803   2.531 -0.0376 -0.0515 -0.1199
14507W        W30316  12.002  14.257   0.363 -0.3727  0.0594 -0.1547
14508W        W30317  11.826  10.125   0.645 -0.1242 -0.2488  0.0386
14509W        W30318   4.571  12.234  12.390 -0.1569  0.1026  0.0133
14510W        W30319  14.740  16.453   1.492 -0.1002 -0.1943 -0.2100
14511W        W30320  11.349  10.873  13.978  0.0248 -0.0770  0.0041
14512W        W30321  18.022   3.295   4.688  0.1247 -0.1783 -0.1053
14513W        W30322   8.249   4.554   1.796  0.2328  0.0346 -0.0162
14514W        W30323   1.066   2.138  15.369  0.2088  0.3937  0.0024
14515W        W30324   6.817   9.431   0.724  0.0732 -0.1894  0.2333
14516W        W30325   0.614   2.977   0.669  0.0610  0.1980 -0.2173
14517W        W30326   0.641   6.947   3.367 -0.1337  0.1710 -0.2793
14518W        W30327  14.501  12.625   2.625 -0.2133  0.2015 -0.2162
14519W        W30328  15.683   4.260  10.877 -0.2511  0.2205  0.1336
14520W        W30329   5.234  16.947  13.342  0.1055  0.2475 -0.2183
14521W        W30330  11.486  14.665  14.633 -0.0681 -0.1993 -0.4022
14522W        W30331   2.641   4.532   1.706  0.0965  0.2089 -0.0115
14523W        W30332  13.855  16.521   1.177  0.1768  0.3211  0.0143
14524W        W30333   6.165  10.999   4.343  0.0684  0.3292  0.0677
14525W        W30334   8.819  18.642   1.867  0.0823 -0.0607 -0.0969
14526W        W30335   5.832   1.135   1.768  0.0036  0.0105  0.0605
14527W        W30336   0.526   4.251  14.615  0.0381 -0.0923 -0.1804
14528W        W30337   6.261   1.669  14.887  0.1798 -0.2254  0.0105
14529W        W30338  11.762   7.267  15.270 -0.1361  0.0767 -0.0282
14530W        W30339   3.731   7.844   0.200 -0.1012 -0.0548 -0.0096
14531W        W30340   0.781  13.288  10.210 -0.4096  0.2031  0.0926
14532W        W30341   3.663   2.396   0.484 -0.0043 -0.0239  0.2036
14533W        W30342   2.823   0.615   2.513  0.2812 -0.0099  0.2894
14534W        W30343  15.106   5.136   6.008 -0.1504 -0.0481 -0.1096
14535W        W30344   5.519  13.370  10.243 -0.1575 -0.3607  0.1339
14536W        W30345   4.676   9.837   1.594 -0.1502 -0.3152  0.1240
14537W        W30346   5.389   5.764   0.890  0.0059 -0.1754  0.0281
14538W        W30347  17.323   3.391   3.167  0.0095  0.0424 -0.0622
14539W        W30348   6.648  15.437  15.185  0.0248  0.3358  0.1348
14540W        W30349  13.191  10.025   4.958  0.0869 -0.2111 -0.0889
14541W        W30350   2.797  15.479  12.156  0.0389  0.1251  0.0875
14542W        W30351  10.825   0.318  12.803  0.1520  0.0550  0.1191
14543W        W30352   6.004  13.199   5.415  0.2515 -0.2364 -0.1349
14544W        W30353   0.102   9.222   1.225 -0.2349 -0.2013 -0.0339
14545W        W30354  10.730  12.023  10.101 -0.2923 -0.2577  0.1293
14546W        W30355   7.470   4.240   2.649 -0.0273  0.2836  0.1642
14547W        W30356   0.227   3.536   4.250 -0.2455  0.1348 -0.0874
14548W        W30357   5.733   5.104  10.961  0.2928 -0.0644  0.0356
14549W        W30358   3.456   7.231   5.544 -0.2457  0.0272 -0.3102
14550W        W30359   3.499   0.249  10.899 -0.0161 -0.1043 -0.0612
14551W        W30360   0.252   2.396  12.138 -0.0399 -0.2330  0.0216
14552W        W30361   7.679  17.335  12.544  0.0876 -0.2731  0.0183
14553W        W30362  11.869   3.321  14.459  0.1390 -0.2572  0.0284
14554W        W30363  13.620   8.509  13.703 -0.0765 -0.1168  0.0790
14555W        W30364  13.265  13.827   0.301 -0.1136 -0.0294 -0.1096
14556W        W30365   4.332  18.559  14.343 -0.0863 -0.0437  0.4221
14557W        W30366   6.133   6.839   5.588  0.2868 -0.0012 -0.0845
14558W        W30367  13.510   2.930  12.449  0.1559 -0.1560 -0.0000
14559W        W30368   4.366   5.656   0.568 -0.0423  0.2244  0.0267
14560W        W30369  18.222   2.399   4.492 -0.1235 -0.1196 -0.1241
14561W        W30370   1.597  15.407   2.623 -0.3673 -0.2732 -0.0104
14562W        W30371   4.206   9.281   0.951  0.0235  0.1738  0.1476
14563W        W30372  14.340  10.802   3.739  0.0204 -0.1905 -0.3405
14564W        W30373  15.337  17.703  13.293  0.4300 -0.1378  0.1668
14565W        W30374  11.382  11.865  13.190  0.0248 -0.1226 -0.2425
14566W        W30375  18.459   6.385  11.842 -0.0719 -0.1646 -0.1507
14567W        W30376   0.917   7.974  11.557  0.3082  0.0046  0.1716
14568W        W30377  15.995  13.832   1.636  0.2404  0.1922  0.2545
14569W        W30378  12.499   9.312  13.317  0.1564  0.1779 -0.2230
14570W        W30379   2.906   8.951  12.517 -0.1838  0.0965 -0.2446
14571W        W30380  14.366   4.584   0.538 -0.1794 -0.0084  0.0018
14572W        W30381   8.221  14.029  14.932  0.1648 -0.0485 -0.0413
14573W        W30382  18.573   0.334   3.644  0.3332 -0.0904 -0.0918
14574W        W30383   6.202  16.094   2.187 -0.1114 -0.2433  0.2770
14575W        W30384  12.981  12.410  13.632 -0.0460 -0.0923 -0.0479
14576W        W30385   8.144   0.224  13.116 -0.1028 -0.2944 -0.0241
14577W        W30386   2.219   9.211   4.402 -0.3780  0.0086 -0.0770
14578W        W30387  15.052   9.501  13.974 -0.1006 -0.0989  0.2080
14579W        W30388   6.487   7.246   4.984  0.0482  0.0441 -0.1862
14580W        W30389   6.747  15.297   1.434  0.1353  0.2070 -0.0151
14581W        W30390   9.023  15.716  11.423 -0.1244 -0.3012 -0.1266
14582W        W30391   4.628   0.392   2.918 -0.0330  0.0529  0.0200
14583W        W30392  13.313   6.440   1.727  0.0047 -0.1045  0.0513
14584W        W30393  15.208  17.293   1.107 -0.0261  0.2757  0.0794
14585W        W30394   0.076   0.955  11.972  0.3734  0.1791  0.1042
14586W        W30395  11.807   7.303   4.532 -0.3140 -0.3678 -0.1832
14587W        W30396  17.646   8.925   4.819  0.0417 -0.1533  0.3663
14588W        W30397   3.899   6.089  10.322 -0.3338  0.2926  0.2660
14589W        W30398   2.626   5.005   5.554 -0.1140  0.2047 -0.0695
14590W        W30399  16.761   8.129  13.255 -0.0321  0.2008  0.0888
14591W        W30400   9.386   2.357   1.982  0.0332  0.1005 -0.2652
14592W        W30401  11.945   0.299   1.957  0.0489  0.1068  0.2245
14593W        W30402   8.233   5.523   4.599  0.3173 -0.0113 -0.1386
14594W        W30403  17.357   1.771  15.020  0.2508 -0.0490 -0.0589
14595W        W30404   2.250   1.208  14.799 -0.2105  0.3478  0.1355
14596W        W30405  15.622   6.079  15.558 -0.2581 -0.1334 -0.0649
14597W        W30406   6.815  12.889   4.159 -0.0789  0.0444  0.1136
14598W        W30407   2.585   5.111   1.151 -0.0589  0.0916  0.1353
14599W        W30408   6.551  17.707  13.854  0.1577  0.1653 -0.1096
14600W        W30409   5.657   7.459   1.151  0.3358 -0.2509 -0.0507
14601W        W30410  18.439   7.333  12.225 -0.0703  0.2904  0.1745
14602W        W30411   2.094   4.803   3.603  0.0954  0.1574  0.1126
14603W        W30412   7.335  13.128  13.486  0.2344 -0.0746  0.0666
14604W        W30413   1.915   3.069  14.362 -0.0858 -0.2235  0.1870
14605W        W30414  14.323   5.747  11.751  0.0765  0.2901  0.2257
14606W        W30415   4.974   7.633   2.284  0.0667  0.1886 -0.0900
14607W        W30416   5.179   6.501  14.790 -0.2320  0.1034  0.3642
14608W        W30417  15.620  14.949  12.380 -0.3116  0.1621  0.1864
14609W        W30418   2.295  10.675   4.595 -0.0630 -0.0743  0.1489
14610W        W30419   8.668   7.089   3.356 -0.0441 -0.0578  0.1558
14611W        W30420   0.960  12.223  13.925 -0.1002  0.2371 -0.3546
14612W        W30421  15.355  18.219  11.471 -0.0205 -0.1175  0.0515
14613W        W30422  18.581   1.488  12.727  0.2310  0.1675  0.1362
14614W        W30423  18.206  11.337   4.619  0.1936 -0.1820  0.0651
14615W        W30424   7.474  12.819   1.183  0.2036  0.0340  0.0600
14616W        W30425  11.293   2.784   2.009  0.0443 -0.1868  0.1330
14617W        W30426   3.670   9.953   2.674 -0.0081  0.0077 -0.0253
14618W        W30427   7.337   2.749  13.442  0.2516  0.2614 -0.0551
14619W        W30428   2.443   0.351  14.909 -0.2306  0.1498 -0.1735
14620W        W30429   0.814   5.437   3.621 -0.0115 -0.0363 -0.2190
14621W        W30430  10.289  16.040  11.960 -0.2273  0.0827  0.3337
14622W        W30431   6.333  15.019   4.293  0.2004  0.0664  0.1970
14623W        W30432  14.437   1.473  15.410  0.1893 -0.0034 -0.1313
14624W        W30433  18.686  10.996   0.321 -0.0982  0.3069 -0.1729
14625W        W30434  16.189  16.344   0.353  0.0901 -0.2338 -0.0125
14626W        W30435   5.936   5.019  12.130  0.1805 -0.0345  0.1112
14627W        W30436   6.389  15.608   1.173 -0.1902 -0.1850  0.1576
14628W        W30437   0.188   0.055   1.081  0.2136  0.2476  0.0659
14629W        W30438   9.859   9.198  14.754 -0.3105 -0.0426  0.0155
14630W        W30439   3.746   8.986  11.233  0.2271 -0.0987  0.1420
14631W        W30440  11.762  15.894   2.669  0.3216  0.4742 -0.1943
14632W        W30441   9.051   7.716   4.013  0.0317  0.1683 -0.1400
14633W        W30442  16.521   7.576   4.154 -0.3437 -0.1184 -0.0065
14634W        W30443  17.333  17.858   0.138  0.2744  0.3298  0.1657
14635W        W30444   7.182   0.585   2.681 -0.0707  0.5025  0.0710
14636W        W30445   8.592   9.847   2.971 -0.2459 -0.0062  0.1797
14637W        W30446   5.399   3.166   5.864  0.1757  0.1626  0.1176
14638W        W30447  10.729   4.653  11.085 -0.1094  0.0196 -0.0057
14639W        W30448  10.855   4.416   3.976 -0.0945 -0.0401  0.1014
14640W        W30449   9.953  18.376   4.627  0.1993  0.0863  0.0876
14641W        W30450  15.213   6.594  13.172 -0.2491 -0.1105 -0.1085
14642W        W30451  15.269  16.933   4.976  0.3334  0.0740 -0.0378
14643W        W30452  15.647  11.483  12.545  0.0137 -0.0367 -0.1217
14644W        W30453   8.718   1.601  12.247  0.0170 -0.1287 -0.2180
14645W        W30454   2.621  18.691  12.165 -0.1783 -0.0003  0.0835
14646W        W30455  13.863   9.888   0.398 -0.2088  0.2100 -0.1890
14647W        W30456   5.408  15.976  10.354  0.0489  0.0769  0.1972
14648W        W30457  15.312   1.070   1.105  0.1846  0.0503 -0.0850
14649W        W30458   3.752  15.762   4.750 -0.0697  0.3866 -0.0288
14650W        W30459  11.952  15.237   0.030 -0.3369 -0.0508 -0.2733
14651W        W30460   1.534  10.074   1.837  0.4038 -0.4612 -0.1877
14652W        W30461   8.929   8.237   2.010 -0.1178 -0.0154  0.1231
14653W        W30462   0.723   6.087   9.669  0.0542  0.0289  0.0428
14654W        W30463   7.270  12.785   4.487 -0.1433  0.0997  0.0629
14655W        W30464   5.361   2.561   0.926  0.0040 -0.1534  0.1448
14656W        W30465   5.898  15.819   3.153  0.3510  0.1796 -0.1130
14657W        W30466   2.034   9.930   2.752  0.0446 -0.0515 -0.1212
14658W        W30467  16.706   7.128   4.971  0.1138  0.3247  0.0595
14659W        W30468  16.595  18.077  12.241 -0.1780  0.2524 -0.0309
14660W        W30469  16.795   7.913   1.522 -0.0278 -0.1119 -0.3011
14661W        W30470  15.887  17.507   4.413 -0.1225  0.1555  0.2912
14662W        W30471  16.799  11.331  13.245  0.1240 -0.1452  0.1097
14663W        W30472  17.817   0.157   5.061  0.2661  0.2993 -0.1841
14664W        W30473   5.486   4.341  12.187  0.2538  0.2055 -0.2093
14665W        W30474   0.681   0.854  14.004  0.0598  0.2396  0.2434
14666W        W30475   5.207   9.158   1.799  0.1643  0.1248 -0.0283
14667W        W30476   8.976   9.150   0.841 -0.1900  0.4261  0.1468
14668W        W30477  13.769  17.976   0.014  0.2826  0.0834  0.0908
14669W        W30478   0.316  17.154   4.043 -0.0579  0.1642 -0.2955
14670W        W30479   8.302  14.490  12.250  0.1998 -0.0600 -0.0279
14671W        W30480   3.954  17.643  10.741 -0.0609 -0.1630 -0.5395
14672W        W30481   7.754  12.779   3.300 -0.2088  0.0331  0.2001
14673W        W30482  10.037  16.503   3.163 -0.0104 -0.0466  0.0073
14674W        W30483   7.528   7.186  12.942 -0.2766  0.0842 -0.1913
14675W        W30484   7.727   5.022   3.420  0.1600 -0.0711 -0.0779
14676W        W30485  12.630  11.449   1.777  0.1773  0.0046 -0.3986
14677W        W30486   5.744   5.970   4.729  0.0861  0.2813 -0.3462
14678W        W30487   3.972  11.777   1.786  0.1811  0.0520 -0.0991
14679W        W30488  17.433   3.359  15.216  0.3920 -0.5261  0.1033
14680W        W30489   1.253   5.552  11.222  0.2991 -0.0535 -0.1231
14681W        W30490  12.179  15.731   2.836  0.2277  0.1534 -0.1503
14682W        W30491   9.391  17.775   3.518  0.1630  0.2386 -0.0688
14683W        W30492  12.449  18.230  12.554 -0.0240  0.1707  0.3458
14684W        W30493  12.140  15.929  14.866 -0.0711 -0.3553  0.0201
14685W        W30494   9.050   8.407   2.911  0.2863  0.2919 -0.0775
14686W        W30495  11.868   1.116  12.179  0.1124 -0.0843  0.2309
14687W        W30496   9.485  17.468   2.530  0.0297  0.1098 -0.0935
14688W        W30497  12.424  13.498  13.524  0.2994  0.2217  0.1535
14689W        W30498   7.878   0.620  14.433 -0.1248 -0.0174  0.0141
14690W        W30499  15.946  10.846   1.963  0.0702 -0.1706 -0.0160
14691W        W30500  15.414   2.360   4.941  0.0591  0.0850 -0.4242
14692W        W30501   7.626   7.751   9.772 -0.2509 -0.1432 -0.1384
14693W        W30502   2.701   0.666  10.178  0.1389 -0.1876 -0.3178
14694W        W30503  12.839   4.716   2.900  0.2398 -0.2747 -0.0406
14695W        W30504   8.629   4.928   1.143 -0.1106 -0.0182 -0.2696
14696W        W30505   3.880   8.869  12.777  0.2337  0.1658 -0.4722
14697W        W30506   9.649  17.031   5.359 -0.0823 -0.2198 -0.2599
14698W        W30507   7.645  15.786   3.966 -0.0096 -0.2805  0.1162
14699W        W30508   8.891   2.283   2.163 -0.1079  0.0782  0.0737
14700W        W30509   2.464  14.857   3.075 -0.1772  0.2399 -0.1638
14701W        W30510  16.258  14.028   4.026 -0.2814  0.3439 -0.0378
14702W        W30511   7.223  10.945  11.085  0.0002 -0.2451 -0.0911
14703W        W30512  17.821  11.787   5.449  0.0777  0.2903 -0.1191
14704W        W30513   9.262   8.199  12.849  0.0576 -0.3296  0.0699
14705W        W30514   7.229   3.397  13.271 -0.1119 -0.1674 -0.0617
14706W        W30515   9.388   3.081  12.147 -0.1466 -0.2106 -0.0353
14707W        W30516  12.866   8.582   1.462 -0.2775  0.1038 -0.0435
14708W        W30517  12.377   9.294   4.403 -0.4891  0.1448 -0.1253
14709W        W30518  17.241  10.600  10.344  0.3018 -0.0238 -0.4446
14710W        W30519   9.986  16.958  14.449  0.2679  0.1776  0.1223
14711W        W30520  12.837   3.949  15.188 -0.1316  0.1309 -0.0532
14712W        W30521   1.221   7.985  15.388 -0.1305 -0.0820  0.0152
14713W        W30522  15.185   0.731   2.430  0.1947  0.0640 -0.3042
14714W        W30523  16.665  10.630  11.125 -0.2766 -0.0748  0.0858
14715W        W30524   6.840  15.906  15.157 -0.1006 -0.2235 -0.1673
14716W        W30525   1.914   1.521  14.948 -0.0016 -0.0504  0.1993
14717W        W30526  14.252  14.383   1.287 -0.0634  0.0396 -0.1797
14718W        W30527  14.608  11.428   3.287  0.2194 -0.0403 -0.2814
14719W        W30528   6.325   4.709   2.466  0.0297 -0.0172 -0.0036
14720W        W30529   1.548   0.251  12.905 -0.2013  0.1811 -0.2844
14721W        W30530   1.512   4.534   2.173  0.2187  0.0406  0.0501
14722W        W30531  15.489   6.470   3.657  0.0092  0.1298 -0.0330
14723W        W30532  11.391  13.020   3.926  0.1358 -0.1513  0.1744
14724W        W30533   5.353   9.732   2.243 -0.0626  0.3647 -0.1800
14725W        W30534  16.762   3.100   4.335 -0.0881  0.0363  0.0151
14726W        W30535   6.338  13.892  11.857 -0.1045  0.1163  0.1316
14727W        W30536  11.240  10.790  13.168 -0.2072 -0.1901  0.0475
14728W        W30537   8.954   1.774   3.414 -0.2144 -0.0464  0.1288
14729W        W30538  10.773   7.524  15.047  0.0879  0.3763 -0.1229
14730W        W30539  16.685  16.477   0.306 -0.1789  0.2455  0.0661
14731W        W30540  12.628   6.697  15.428 -0.0990 -0.0741  0.0152
14732W        W30541   3.964   4.545  10.661 -0.0212 -0.2818 -0.0404
14733W        W30542   1.347   7.750   2.393  0.2817 -0.4993  0.2143
14734W        W30543  14.541   0.952  13.776 -0.0182 -0.0875  0.1623
14735W        W30544  13.587   4.510  13.280  0.4397 -0.2488 -0.3026
14736W        W30545   1.701  17.808  13.156 -0.0147 -0.1939  0.2006
14737W        W30546   0.527   0.679  14.419  0.0064  0.4026 -0.4432
14738W        W30547  10.186  14.669  13.021 -0.0348 -0.2250 -0.2028
14739W        W30548   6.411  13.228   4.572 -0.1672 -0.4785 -0.1803
14740W        W30549  14.300   0.170   1.004 -0.1024  0.2011  0.3411
14741W        W30550   7.827  16.861  12.784 -0.0821 -0.0059  0.0675
14742W        W30551   9.198   2.942   3.262  0.1999  0.0098 -0.1272
14743W        W30552  12.390   5.852   3.160 -0.1364 -0.1048 -0.3026
14744W        W30553   0.140  13.554  11.506  0.1437  0.1910 -0.2260
14745W        W30554  15.169   9.931   4.433 -0.0310  0.0585  0.0679
14746W        W30555   4.287   2.578  10.832 -0.3143  0.0760 -0.2204
14747W        W30556   4.032   2.684   1.976  0.3123 -0.2505 -0.1605
14748W        W30557  13.101  14.572   4.173  0.1124  0.0033 -0.0129
14749W        W30558  12.950   2.831   4.530  0.0330 -0.1148 -0.1374
14750W        W30559   2.251  16.212  14.160 -0.0767 -0.1605 -0.0403
14751W        W30560  15.574   6.004   1.588 -0.0457  0.0023  0.0347
14752W        W30561  16.866  11.071   0.247 -0.1854  0.0111 -0.2983
14753W        W30562  18.439  15.433  10.318  0.1055 -0.2866 -0.0182
14754W        W30563   6.054   7.708   3.477  0.0149 -0.2456  0.1742
14755W        W30564   2.764  10.144   3.773  0.0025 -0.1782  0.1904
14756W        W30565  13.791  14.381  11.192 -0.0706  0.2394 -0.2279
14757W        W30566  16.530  15.429   0.528  0.1908 -0.1423  0.2298
14758W        W30567   0.746  14.935   5.557 -0.0054 -0.1161 -0.0598
14759W        W30568   3.032   7.324   0.173  0.1237  0.1017 -0.0157
14760W        W30569  18.086   1.532  11.659 -0.1374  0.1662 -0.0684
14761W        W30570  10.493   2.471  11.960 -0.0310 -0.2798  0.1316
14762W        W30571   7.959   0.699   2.172 -0.3548 -0.0771 -0.0739
14763W        W30572   7.601  14.010  12.380  0.2577  0.1512  0.1561
14764W        W30573  11.005   5.853   3.158  0.0345 -0.0681 -0.0861
14765W        W30574   3.604  10.678  13.337  0.0726  0.0926  0.1226
14766W        W30575  15.168   4.884  14.394  0.0506  0.0955  0.4264
14767W        W30576   8.810   0.331   2.142 -0.1471  0.0757 -0.1753
14768W        W30577   7.908  15.005  10.423 -0.0789 -0.0129 -0.0065
14769W        W30578   6.060  11.276  15.171 -0.0710  0.1278  0.0901
14770W        W30579  15.745   6.734  11.715 -0.1718  0.2256 -0.0201
14771W        W30580   7.821   0.767  12.759  0.0369  0.1815 -0.2821
14772W        W30581   2.411   4.860   2.073 -0.0223  0.0888  0.4624
14773W        W30582   4.119   2.959   3.575  0.0571  0.2058 -0.2426
14774W        W30583  17.770   1.362   1.359  0.1232  0.1501 -0.1407
14775W        W30584  17.948   5.231   1.359  0.1101 -0.3242 -0.1457
14776W        W30585  18.006   0.807   9.627 -0.1173 -0.1376  0.3835
14777W        W30586   6.205   9.841   1.127 -0.0632 -0.6114  0.2356
14778W        W30587   2.082  17.183  11.836  0.0954  0.0839  0.0808
14779W        W30588   2.797   3.535   0.590  0.0021  0.2921  0.2028
14780W        W30589   2.079   3.032   4.860 -0.1581  0.0419  0.1570
14781W        W30590  18.365   2.822  14.902  0.0657 -0.0472 -0.2687
14782W        W30591  12.874  15.845  13.734 -0.0312 -0.1604  0.0882
14783W        W30592   6.809  15.123   4.701  0.0976  0.1646 -0.0292
14784W        W30593   4.053   3.441   0.434  0.0628 -0.1568  0.1708
14785W        W30594  13.328   4.672   1.704  0.0835  0.2302 -0.1825
14786W        W30595   8.240  18.417  10.972  0.2015  0.1144 -0.1383
14787W        W30596   0.022  14.567   4.990  0.4906 -0.1622  0.2716
14788W        W30597   9.116   0.726   0.255 -0.0117  0.0015 -0.1958
14789W        W30598   6.842   3.032  11.907  0.1165 -0.2250 -0.1451
14790W        W30599   6.655   0.043   1.499  0.1412 -0.1803 -0.1878
14791W        W30600  12.395  18.692  15.125  0.2680 -0.1117 -0.0403
14792W        W30601  11.526  14.930   1.546  0.2390 -0.2803 -0.0021
14793W        W30602   7.599   8.497  12.898 -0.1831 -0.1364  0.2576
14794W        W30603  12.884   7.846  12.699 -0.0363 -0.1581  0.3642
14795W        W30604   8.321  18.678   3.133 -0.1029  0.1587  0.0603
14796W        W30605  18.270  15.815  13.786 -0.1878  0.0893 -0.0120
14797W        W30606  17.864  18.419  14.364 -0.1770 -0.0833  0.0141
14798W        W30607  10.351   3.012  11.988 -0.2358 -0.0068  0.0636
14799W        W30608   4.209   8.273   5.154 -0.0032  0.2691 -0.0908
14800W        W30609   5.698  15.022  12.269  0.0364 -0.0943  0.4443
14801W        W30610   6.328   5.467   3.345 -0.1575  0.0470  0.0602
14802W        W30611   7.849   5.810   4.755 -0.0625 -0.2401  0.1820
14803W        W30612  17.028  17.168  14.122 -0.0263 -0.3041  0.3016
14804W        W30613   1.831  15.751   1.364  0.3004  0.1654  0.1393
14805W        W30614  11.276   2.001  14.278  0.1256  0.1743  0.0450
14806W        W30615   1.869  15.341   3.628  0.3396 -0.1861 -0.1212
14807W        W30616  17.199  13.382   4.543 -0.0816  0.0960  0.2716
14808W        W30617  10.052  12.300   1.968 -0.0359 -0.3697 -0.2492
14809W        W30618   4.029   3.401  14.990 -0.0016 -0.0310  0.0784
14810W        W30619   5.554  10.201  12.055  0.0376 -0.0661 -0.2804
14811W        W30620   5.840   1.501  14.709  0.1461  0.2538 -0.0178
14812W        W30621  16.860   1.004  11.170  0.0199  0.3382 -0.1361
14813W        W30622  13.209   5.028  10.716 -0.0199 -0.0394  0.1398
14814W        W30623  15.641  10.806   1.124  0.0942 -0.2859  0.0301
14815W        W30624   4.814   2.421  15.188  0.2516 -0.1070 -0.3049
14816W        W30625  11.806  14.302   1.260  0.0605  0.2671  0.0579
14817W        W30626   9.438  17.142  12.619 -0.1840  0.3774 -0.2390
14818W        W30627   1.830   7.221  14.102 -0.1998 -0.0080  0.1858
14819W        W30628   3.040   3.655   2.669  0.0127 -0.1573  0.0257
14820W        W30629   2.593   6.647   2.104  0.1387 -0.1462  0.3442
14821W        W30630  10.764   6.246  14.918 -0.0057 -0.0310 -0.1062
14822W        W30631  14.106  14.974  12.684  0.1193  0.2642 -0.1245
14823W        W30632   8.516  12.333   0.772  0.1273  0.0704  0.2010
14824W        W30633   0.403  15.416  11.551 -0.1755  0.1194 -0.1179
14825W        W30634  13.189   0.084  14.450  0.2814  0.3504 -0.0524
14826W        W30635  16.149   5.220   1.688  0.2719 -0.1537 -0.1027
14827W        W30636   4.879  15.098  14.536 -0.0602 -0.0997  0.0236
14828W        W30637  10.974  14.223  12.369  0.2057  0.1412  0.0671
14829W        W30638   4.084   4.879   3.685  0.1428 -0.2403 -0.1484
14830W        W30639  15.491   2.988   5.001 -0.0091 -0.0459  0.2596
14831W        W30640  14.296  13.583   1.781  0.1219 -0.1567  0.2422
14832W        W30641  15.823   6.679  13.812 -0.3645 -0.0199  0.0525
14833W        W30642   4.371  13.588  13.881  0.0329 -0.1266  0.0813
14834W        W30643  14.411  16.685   3.708  0.1454  0.1792 -0.0442
14835W        W30644  13.985  16.259  12.230  0.2400  0.3069 -0.1981
14836W        W30645  15.492  15.622   4.205 -0.0280 -0.2222 -0.2449
14837W        W30646   6.366   5.227   4.836  0.1700 -0.1010 -0.0363
14838W        W30647   5.421   1.562  12.105 -0.0088 -0.1404  0.1052
14839W        W30648  12.130   9.027   3.469 -0.2717 -0.0009 -0.1280
14840W        W30649  17.583   8.098   4.983  0.1643  0.0376 -0.0082
14841W        W30650   7.157   2.844  14.332 -0.1174 -0.0957 -0.0353
14842W        W30651   8.947  13.719  14.214  0.2669 -0.1223  0.2804
14843W        W30652   6.160   4.773   0.019 -0.0091  0.0395  0.0713
14844W        W30653  12.474  15.707  15.242  0.0501  0.2875  0.1176
14845W        W30654   9.348  10.601  11.210 -0.0380  0.2963  0.0670
14846W        W30655   8.431   8.325   1.290  0.0855  0.1134  0.0336
14847W        W30656  10.728   1.518  13.551 -0.2010  0.1729  0.0158
14848W        W30657   3.020  11.814  15.556 -0.1285  0.2693 -0.2058
14849W        W30658   7.357   6.284   0.833  0.1001 -0.1227  0.1796
14850W        W30659   0.048   5.170  10.353 -0.0361  0.2973  0.2722
14851W        W30660   5.894  13.681   2.605  0.0367 -0.1257  0.2169
14852W        W30661  15.476  15.265   5.139  0.0857  0.5648 -0.1384
14853W        W30662  18.103   1.157   2.752 -0.0035  0.2219  0.1691
14854W        W30663  16.071   8.141  12.974  0.0910 -0.0846  0.0119
14855W        W30664   4.398   5.344   3.768 -0.1864  0.0994  0.1106
14856W        W30665  15.295   4.980   0.639  0.0860  0.0713 -0.0553
14857W        W30666   5.358  18.669   2.256  0.0950 -0.0875  0.0414
14858W        W30667   4.785  13.936  12.949 -0.4362  0.0514 -0.0619
14859W        W30668  15.591  12.460   5.240  0.2507 -0.1427  0.0219
14860W        W30669   6.554   9.460   5.236 -0.3732 -0.2168  0.2822
14861W        W30670  13.325   1.227  15.321  0.0604 -0.0151 -0.1110
14862W        W30671   1.138   8.743  13.699 -0.0988 -0.2742  0.1422
14863W        W30672  16.741   2.881   9.964 -0.0994  0.0877  0.2648
14864W        W30673  13.058   2.624   1.925 -0.0062 -0.0251  0.2053
14865W        W30674   0.238  17.553  13.234  0.1521 -0.0529 -0.1161
14866W        W30675   5.567  17.841   2.797 -0.1278  0.1854 -0.0362
14867W        W30676  15.135  11.498  12.736 -0.0493  0.2361 -0.1724
14868W        W30677   6.992  16.906   5.237 -0.0503  0.0160 -0.3044
14869W        W30678   6.188  17.448  10.997  0.3764  0.1225  0.1634
14870W        W30679   5.875   5.313   1.453 -0.0908 -0.3039  0.2090
14871W        W30680  15.224  13.282  13.579  0.0016  0.0080 -0.2524
14872W        W30681   3.276   0.857  15.104 -0.1909  0.0541  0.3415
14873W        W30682   7.003   4.283  14.883  0.1204 -0.0892  0.0967
14874W        W30683   2.261   9.546  14.030 -0.0329 -0.0794  0.0773
14875W        W30684  11.119  10.945   2.686 -0.1127 -0.0838  0.0663
14876W        W30685  10.997   2.793  14.919  0.0840  0.0924 -0.2446
14877W        W30686  14.038  16.356   3.718  0.0156  0.3673  0.1719
14878W        W30687  15.210   6.971   3.619 -0.0882  0.0187 -0.2682
14879W        W30688   8.603  11.997   0.430  0.3000 -0.0550 -0.1859
14880W        W30689   9.870  12.193   1.403 -0.2227  0.1001  0.0661
14881W        W30690   7.947   6.371   0.731  0.1874 -0.0356  0.1300
14882W        W30691   4.648   5.108  14.292 -0.2210 -0.1339  0.0414
14883W        W30692   7.545   9.983   0.683  0.0862  0.2857 -0.0312
14884W        W30693  11.124   4.381  11.015  0.2429  0.0066 -0.2624
14885W        W30694  11.903  14.537  13.145 -0.1795 -0.0821 -0.2299
14886W        W30695   7.214   3.857   3.646  0.0244 -0.3328 -0.0710
14887W        W30696   6.344   0.930   1.764  0.0123  0.0756  0.2851
14888W        W30697   0.241   8.623  13.890  0.1503 -0.0762 -0.1380
14889W        W30698   0.003   9.797  13.836  0.0520  0.0037 -0.0855
14890W        W30699  11.512  14.043  12.581 -0.0099  0.2620 -0.0555
14891W        W30700  12.940  14.124   3.953 -0.3623  0.3764  0.0096
14892W        W30701  12.344  10.170  14.674 -0.0898  0.1341  0.0145
14893W        W30702  10.624   9.640  12.561  0.2075  0.1231 -0.0125
14894W        W30703  10.632  17.248  11.332  0.2531  0.2775  0.0768
14895W        W30704   7.606   8.069  14.431 -0.0896  0.2059 -0.1906
14896W        W30705  16.168   6.827   0.305 -0.0780 -0.3926  0.1401
14897W        W30706  16.981  11.677   1.370 -0.0733 -0.2142  0.1519
14898W        W30707  13.844   1.356   2.290  0.2096 -0.3093  0.1045
14899W        W30708   0.889  13.658   1.654 -0.0617  0.2351 -0.1277
14900W        W30709   7.243  13.079   3.073 -0.0492  0.2066  0.1294
14901W        W30710  15.256  18.471   4.441  0.3208 -0.1964  0.0402
14902W        W30711   8.804   9.817   5.365  0.0664  0.0982  0.0172
14903W        W30712  13.779   3.803   5.382  0.1955  0.4464  0.2312
14904W        W30713   6.697  16.073   3.501  0.0671  0.0801  0.2053
14905W        W30714   4.906   3.615  11.491 -0.0173  0.3606 -0.1925
14906W        W30715  14.858   6.395   2.537 -0.1612  0.0414 -0.1065
14907W        W30716   9.596   2.122   3.994  0.1947 -0.0006  0.1546
14908W        W30717  12.139  10.649  13.068 -0.0170 -0.1015  0.2767
14909W        W30718   6.379  16.411  14.383 -0.1009  0.1575 -0.0845
14910W        W30719  16.617   7.652   3.558 -0.1709 -0.0189 -0.3205
14911W        W30720  12.120   0.868  14.704 -0.0600  0.0947  0.1404
14912W        W30721   9.380   1.164  14.731  0.0975 -0.1458  0.1240
14913W        W30722   0.964  15.834   2.624  0.0383  0.3017  0.2041
14914W        W30723   9.580   8.430   2.889 -0.0484  0.0909  0.3328
14915W        W30724   1.230  18.503   2.857  0.4686  0.0245  0.0499
14916W        W30725   3.516  17.306  14.938  0.0014  0.0968 -0.3895
14917W        W30726   5.463   2.808   1.361  0.2194 -0.0250 -0.1776
14918W        W30727   7.942   9.236  13.723 -0.2822  0.3924 -0.0589
14919W        W30728  15.773  13.753  12.253 -0.4595 -0.0759  0.2339
14920W        W30729   5.460   3.822   4.500  0.0425 -0.0649 -0.2151
14921W        W30730   1.416   2.627  13.608 -0.0946  0.1165  0.3463
14922W        W30731  15.522   9.076  10.134  0.2872  0.0124 -0.2248
14923W        W30732  14.346   2.021   2.676 -0.0027  0.1743 -0.3287
14924W        W30733  13.855  18.493  15.491 -0.0333  0.3088  0.1001
14925W        W30734   2.610   0.677   5.006  0.0421 -0.2834  0.1747
14926W        W30735  14.596  13.995  10.834 -0.2057  0.0183 -0.2111
14927W        W30736   6.494  14.817  10.389  0.1192  0.0167  0.1714
14928W        W30737   6.666  12.100  11.266 -0.0071  0.0546 -0.0886
14929W        W30738   5.469  16.576  12.113 -0.0382  0.3183 -0.1327
14930W        W30739   3.777   4.411   1.362 -0.4354 -0.3059 -0.3274
14931W        W30740   2.090  17.098  14.358 -0.2088 -0.0322  0.2017
14932W        W30741  11.116   0.724   4.496  0.1046  0.0360  0.2558
14933W        W30742   3.207  17.597  11.383  0.3648  0.1295 -0.0568
14934W        W30743  10.809  16.369   2.825 -0.2316 -0.2080 -0.0414
14935W        W30744   0.299   7.868   3.170 -0.3679  0.1154 -0.1434
14936W        W30745   6.550  13.799   3.358  0.1926  0.1277  0.1513
14937W        W30746   0.980  11.701  13.991 -0.1133  0.0985 -0.2918
14938W        W30747   9.949   6.751  12.254  0.0962 -0.0003  0.3279
14939W        W30748   9.564   1.668   1.785 -0.4328 -0.0196  0.1879
14940W        W30749   3.125  17.072   1.090 -0.2560 -0.0077 -0.0122
14941W        W30750  13.491   4.812  12.878  0.0196  0.0637  0.1857
14942W        W30751   7.190  10.186   2.279 -0.0375 -0.0657  0.0386
14943W        W30752   6.095  13.833  14.518  0.3054 -0.0306 -0.3178
14944W        W30753  13.637  15.671  11.680 -0.0848  0.3222 -0.0595
14945W        W30754   2.897   3.893   1.892 -0.3458 -0.3084 -0.1310
14946W        W30755   5.167   0.480  11.583 -0.1405  0.4786 -0.0343
14947W        W30756   4.507   5.840   5.862  0.1676  0.2075 -0.2160
14948W        W30757  14.648   0.625  12.433 -0.0693  0.3765 -0.3209
14949W        W30758  16.529  15.960   0.227  0.1086  0.1087  0.1839
14950W        W30759   5.204   4.555  10.787 -0.2176  0.1084 -0.2905
14951W        W30760   2.311   4.110   0.669  0.0748  0.2741 -0.3596
14952W        W30761  10.326  16.908   3.381 -0.0708 -0.4028  0.1525
14953W        W30762   0.662  13.309   2.030 -0.3039 -0.0893 -0.0034
14954W        W30763   1.189   5.481  11.698 -0.0378 -0.1687  0.0073
14955W        W30764  16.277  17.248   2.816 -0.1411  0.0386 -0.2861
14956W        W30765   9.257   7.882  11.184  0.3480  0.0807 -0.0384
14957W        W30766  12.539   9.257  12.814  0.1643  0.0811 -0.0194
14958W        W30767  14.203   4.255   2.924 -0.2772 -0.4649  0.0083
14959W        W30768   4.868   5.448  13.428 -0.0532  0.3774  0.1460
14960W        W30769   2.957  15.569  14.333 -0.0336  0.0880 -0.0444
14961W        W30770  15.995   7.132  12.690 -0.1756  0.0743  0.2252
14962W        W30771   1.926  18.542  11.490 -0.0202  0.1392 -0.0311
14963W        W30772   2.884  15.836  15.542 -0.5194 -0.2022  0.1183
14964W        W30773   5.841   3.640  11.855  0.0185 -0.4191  0.3855
14965W        W30774   9.197   6.660  13.135  0.1044  0.3429  0.2200
14966W        W30775  14.447  14.404   5.008 -0.0440  0.1578 -0.0966
14967W        W30776   3.590   7.805  13.738 -0.3846  0.0021  0.1817
14968W        W30777  15.024   7.705   1.140 -0.0832  0.1524  0.0017
14969W        W30778   2.763  13.904   4.204 -0.2383 -0.0940  0.0481
14970W        W30779   5.399   0.497   4.734  0.0277 -0.4411 -0.0805
14971W        W30780   6.749  18.535   0.957  0.0137 -0.3370  0.1797
14972W        W30781  13.648   4.171  12.834 -0.1175 -0.0059 -0.2212
14973W        W30782   7.141  15.130  14.122  0.0972  0.0271 -0.2135
14974W        W30783  18.046   1.685   2.050 -0.0542  0.0213 -0.2636
14975W        W30784  15.919  12.823   4.246 -0.0220 -0.0151 -0.2422
14976W        W30785   6.838  16.926  15.434  0.1860  0.2887  0.0498
14977W        W30786  17.465   7.001   0.254  0.0271  0.0770  0.2273
14978W        W30787   8.685  10.053  11.605 -0.3073  0.0300  0.3725
14979W        W30788   3.723  11.138  13.595 -0.4659 -0.2317 -0.0777
14980W        W30789   7.270   5.494  12.214  0.1527 -0.0437 -0.1420
14981W        W30790   6.557  16.732  11.032  0.1477 -0.2271 -0.2176
14982W        W30791  13.404   4.268   6.297  0.0891 -0.1438 -0.0118
14983W        W30792   7.877   5.048  12.322  0.3735 -0.1676 -0.0705
14984W        W30793   2.440   5.290   2.492 -0.0541  0.0651  0.1309
14985W        W30794   3.854  13.597  13.877  0.1596  0.0525  0.1138
14986W        W30795  10.611   2.131   3.655 -0.0176  0.0071 -0.1169
14987W        W30796   3.234  15.229   4.044  0.4749 -0.0804  0.0819
14988W        W30797  14.514   5.056   2.562 -0.0142  0.4338 -0.1616
14989W        W30798   9.455   8.261   2.039 -0.0211 -0.0385  0.0443
14990W        W30799   1.226  12.196   9.994  0.2685 -0.2970 -0.1348
14991W        W30800   5.235  15.378  10.727  0.1531  0.1599  0.0831
14992W        W30801  17.711   6.368  15.387 -0.1783  0.1996 -0.2736
14993W        W30802  17.419   3.179  11.663 -0.0413 -0.0405  0.3956
14994W        W30803   4.244   5.375  11.747 -0.0834  0.0337  0.0174
14995W        W30804   9.729  14.048   5.211 -0.1418  0.1106 -0.0138
14996W        W30805  16.925   7.370  14.363  0.1873  0.3503 -0.2618
14997W        W30806  13.046  13.820  14.636 -0.0877 -0.0767  0.3060
14998W        W30807  15.145   9.849   4.960  0.2170 -0.0389 -0.1374
14999W        W30808  12.793  16.026   0.025 -0.0391 -0.0020  0.2830
15000W        W30809  14.705  13.452   3.145 -0.0637  0.1035 -0.1102
15001W        W30810   6.226  13.118  14.408  0.2289  0.0299  0.2040
15002W        W30811   7.093   2.926   0.265 -0.1465 -0.1339  0.0010
15003W        W30812   3.427  18.602   0.534 -0.2288  0.2571 -0.0294
15004W        W30813   9.028   9.760  11.020  0.1449  0.1585 -0.2299
15005W        W30814  10.390   8.985   3.874 -0.0357  0.1755  0.0780
15006W        W30815   6.824  10.882   1.484 -0.0180 -0.2330  0.0751
15007W        W30816   2.427   4.743  12.684 -0.2475  0.0130  0.1138
15008W        W30817   2.667   7.308   2.962  0.2668 -0.0424  0.1047
15009W        W30818   9.368   9.418   4.079 -0.0117 -0.0661  0.2944
15010W        W30819   9.873   1.853   5.124  0.1256 -0.2370 -0.2461
15011W        W30820   5.532  13.072   3.323  0.0273 -0.0228  0.0605
15012W        W30821  18.186  16.742  14.755 -0.0507  0.1329 -0.0970
15013W        W30822   8.087   1.610  13.735 -0.0928 -0.0226 -0.2176
15014W        W30823   0.823  16.672  12.082 -0.0992 -0.1026 -0.0520
15015W        W30824  17.913   5.211   0.291  0.1513  0.1226 -0.1745
15016W        W30825  16.779  17.024  12.483  0.3086 -0.2195 -0.3953
15017W        W30826   0.333  14.756  13.350 -0.0473  0.4402 -0.0786
15018W        W30827  14.993  14.562  14.028  0.1288 -0.0848  0.1189
15019W        W30828   9.884  18.759   1.173 -0.3829  0.5160 -0.1888
15020W        W30829   1.280   0.910  13.300 -0.0926  0.7154 -0.2994
15021W        W30830  12.435  18.597   1.870  0.2465  0.0912  0.3707
15022W        W30831   3.665   4.311   4.087  0.1343  0.3978 -0.1382
15023W        W30832  13.238   1.386  12.167 -0.0737  0.2006  0.0186
15024W        W30833  15.136  12.990  14.219  0.0939  0.1459  0.3121
15025W        W30834   0.510   5.248   2.710  0.1754  0.1207 -0.0331
15026W        W30835  12.211  16.526  10.720  0.2166 -0.0207 -0.0222
15027W        W30836  14.363  14.826   0.175 -0.4110 -0.1145 -0.2446
15028W        W30837   8.472  16.290  13.440  0.0320 -0.1986 -0.0009
15029W        W30838  16.790   8.572   2.983 -0.0815  0.0812  0.0981
15030W        W30839  15.695   4.703   1.808 -0.1286 -0.2749 -0.1514
15031W        W30840  11.387  15.897   3.214  0.2491 -0.0189 -0.2058
15032W        W30841   3.821  15.981  14.002  0.0109 -0.2677  0.0564
15033W        W30842  15.454   2.644   5.365 -0.2289  0.2972  0.0939
15034W        W30843  14.317  17.539  12.047 -0.0261  0.3686 -0.0522
15035W        W30844   9.285   0.248   5.612  0.0801 -0.3221  0.0909
15036W        W30845   1.236   0.503   0.428 -0.1663 -0.2468  0.0700
15037W        W30846   4.650   9.980   2.962 -0.2442  0.2471  0.2494
15038W        W30847  18.569  12.834   0.996 -0.0947  0.4108 -0.4390
15039W        W30848   0.671   8.809  14.718  0.1227 -0.2618 -0.2029
15040W        W30849   8.055  11.039   2.572  0.3572 -0.1155  0.0361
15041W        W30850   9.688  11.082   5.003  0.0402  0.3136 -0.2005
15042W        W30851  14.483  18.674   5.659 -0.0300  0.2328  0.1191
15043W        W30852  12.562   6.390   3.077  0.2009  0.0655 -0.0698
15044W        W30853   3.365   9.014  12.971 -0.0569  0.0514  0.2196
15045W        W30854   6.469   4.743   4.735 -0.2422  0.1400  0.2120
15046W        W30855  18.696  10.639  13.664 -0.4751 -0.3187  0.1160
15047W        W30856   1.949  10.800  14.122 -0.0576 -0.1533 -0.5120
15048W        W30857   6.957  16.252   3.098 -0.2593  0.0694  0.1718
15049W        W30858   1.253   6.978   1.982 -0.0731 -0.0466 -0.1883
15050W        W30859  14.114   4.514  11.728  0.0604 -0.0290  0.0223
15051W        W30860  15.926   4.328  14.483  0.0929 -0.0674 -0.1619
15052W        W30861   6.877  15.091  10.656  0.0315 -0.0006 -0.3250
15053W        W30862   2.902   5.923  11.672  0.1711 -0.2806 -0.1347
15054W        W30863   9.369   7.394   1.750 -0.0903  0.2347 -0.1726
15055W        W30864  13.065   7.076  11.998  0.1875  0.0029  0.1480
15056W        W30865   3.545   8.981  14.897 -0.4371  0.2824  0.2099
15057W        W30866   8.862  12.110  10.094 -0.0180 -0.0495  0.0584
15058W        W30867   8.556   6.799  11.638  0.1147  0.0779  0.2873
15059W        W30868  12.908   7.622   9.762  0.0570  0.0570 -0.2720
15060W        W30869  18.398  11.927  12.751  0.2553 -0.1792  0.0283
15061W        W30870  11.682  15.091   3.329  0.0082 -0.1014 -0.2846
15062W        W30871  16.618   6.106  14.000  0.1429 -0.1987 -0.2013
15063W        W30872  15.199   4.860  11.042 -0.1177 -0.0740 -0.1253
15064W        W30873   6.160   1.114  14.870 -0.4564 -0.0538 -0.0630
15065W        W30874   2.907   7.271  13.576 -0.0641 -0.0588  0.0879
15066W        W30875  14.092   2.962   3.622  0.1826  0.1655 -0.0235
15067W        W30876  11.330  17.431   3.674  0.1999  0.1764  0.0587
15068W        W30877  11.520   3.535   0.871  0.0688 -0.1827 -0.1311
15069W        W30878  13.601   6.866   1.507  0.1489  0.3610 -0.2250
15070W        W30879  16.020   4.056  11.214  0.1068 -0.0567  0.0500
15071W        W30880   0.456   3.699  13.509  0.1536  0.0030 -0.1864
15072W        W30881  14.055  10.881   0.610 -0.2587  0.1524  0.1052
15073W        W30882   9.999   1.008   0.274  0.1679 -0.0153 -0.1093
15074W        W30883   1.967  17.765   4.037 -0.2361 -0.0002 -0.3478
15075W        W30884  15.152   9.308  14.461  0.0789 -0.1992  0.1677
15076W        W30885   4.154   0.330   2.199 -0.3373 -0.1077 -0.2600
15077W        W30886   2.683  12.378   1.351 -0.4478  0.1498 -0.0686
15078W        W30887   1.061   5.267   1.385 -0.0784 -0.2389 -0.2199
15079W        W30888   2.561   6.971  15.178 -0.1568  0.0285  0.0425
15080W        W30889   7.740   6.038  10.496 -0.0012 -0.3300  0.1091
15081W        W30890  14.815   4.843  12.374 -0.1811  0.1170 -0.2457
15082W        W30891  16.134  14.960   2.608 -0.1914 -0.1894 -0.0867
15083W        W30892  17.015   3.128  15.298  0.0325  0.1258  0.3187
15084W        W30893  15.032  15.073  14.135  0.1805  0.1368  0.3550
15085W        W30894   3.192  14.303   2.598 -0.1569 -0.1859  0.1260
15086W        W30895  17.415   7.956   4.049 -0.1024 -0.1255 -0.2919
15087W        W30896   1.611   5.567  13.716 -0.4166 -0.1194  0.1748
15088W        W30897   5.096  13.685  13.799 -0.0993 -0.2594  0.3950
15089W        W30898  18.586   9.461  14.215 -0.0806 -0.0307 -0.1725
15090W        W30899  10.975  17.183   5.017 -0.0169 -0.1328  0.0331
15091W        W30900   4.014   4.500   5.410 -0.2167  0.0955  0.2137
15092W        W30901   4.927  12.495   9.590  0.0893 -0.2672  0.1580
15093W        W30902   9.709  13.824  14.609 -0.2536 -0.1787  0.1946
15094W        W30903   1.651  10.300   4.492  0.2430 -0.0190 -0.1627
15095W        W30904   0.472   8.851  12.918 -0.2613  0.1170  0.1738
15096W        W30905   8.398   7.834   1.337 -0.0657  0.4623  0.1760
15097W        W30906   0.625   4.539   1.001 -0.3024 -0.1666 -0.0461
15098W        W30907   3.560  14.273   1.752  0.2251 -0.0814  0.0554
15099W        W30908   2.320   9.504  15.162 -0.2315  0.1928 -0.0661
15100W        W30909  15.592  11.587   4.507  0.0153 -0.0504  0.2509
15101W        W30910  15.095   3.171  13.536 -0.0623 -0.1422  0.0497
15102W        W30911   9.711  16.580  15.271 -0.2957 -0.0378 -0.1128
15103W        W30912   3.697  13.486  10.927  0.2527 -0.0328 -0.2014
15104W        W30913  12.156   0.427   4.522 -0.0686 -0.1730  0.0685
15105W        W30914   2.736  17.692  12.179 -0.0861 -0.0778 -0.2081
15106W        W30915  12.232  16.268   2.529  0.0527  0.3307 -0.3905
15107W        W30916   6.141  18.475   5.528  0.3170 -0.2669  0.0824
15108W        W30917   4.270   7.598  10.666 -0.1914  0.0615  0.0211
15109W        W30918  14.181   0.444  14.360  0.0345  0.1616  0.1875
15110W        W30919   4.570   4.994  11.787 -0.1792  0.0916 -0.5809
15111W        W30920  16.443   7.311  12.820 -0.3222 -0.0300 -0.2070
15112W        W30921  18.417   6.034  11.506  0.3332 -0.1863 -0.2890
15113W        W30922  13.929   4.312   0.032  0.1735  0.1044  0.2824
15114W        W30923  15.019   6.587  11.167  0.1556 -0.2430  0.1762
15115W        W30924   5.251   8.590  11.881  0.1704  0.1143  0.2412
15116W        W30925  14.805  14.417   5.368  0.2409  0.2952  0.0353
15117W        W30926  11.508  16.030   2.134 -0.4532  0.1021 -0.0201
15118W        W30927   2.886   4.074  14.734 -0.2026 -0.1548  0.0276
15119W        W30928  15.704  16.546   2.072 -0.2598 -0.0467 -0.0145
15120W        W30929   4.070  14.354   9.211 -0.3334 -0.1066  0.1173
15121W        W30930  10.919   1.737  11.381 -0.0163  0.0721 -0.3339
15122W        W30931  18.287  12.547   0.209 -0.0966  0.2921 -0.0451
15123W        W30932   3.596   1.512   1.524 -0.0654 -0.2673 -0.2117
15124W        W30933   6.127   7.758   3.001 -0.1609  0.0729 -0.2441
15125W        W30934  13.157   4.126   4.368  0.1549  0.0197 -0.1470
15126W        W30935   8.273  17.472  12.224  0.1172 -0.0875 -0.2389
15127W        W30936  16.355  12.240  10.194  0.1437 -0.1119 -0.0625
15128W        W30937   2.557  15.429   1.323  0.0226 -0.0648  0.1776
15129W        W30938   8.879  11.967  12.112 -0.2065 -0.1939  0.0231
15130W        W30939  15.073   4.320   1.148  0.1385  0.0911 -0.2451
15131W        W30940  16.398  18.747  14.356 -0.1553 -0.3557 -0.1479
15132W        W30941   9.878  13.881   0.502  0.0283  0.0324  0.0480
15133W        W30942  18.057   2.024   4.005  0.2964 -0.2767  0.2868
15134W        W30943  16.375   6.758  12.047 -0.1641 -0.0356 -0.2799
15135W        W30944   9.355   6.762  14.956 -0.0696  0.1673 -0.1259
15136W        W30945   3.889   2.319   5.028 -0.0947  0.4241  0.0373
15137W        W30946  13.212   4.378   5.818  0.3518 -0.2961 -0.0006
15138W        W30947   3.553  14.991   1.084 -0.0127  0.1169  0.0551
15139W        W30948  17.609   2.834  13.006 -0.1918 -0.2149  0.2053
15140W        W30949  15.644   2.067   2.915 -0.0863  0.1709 -0.2391
15141W        W30950   2.376   8.887   2.508  0.0548  0.0243  0.1332
15142W        W30951  11.509   5.726   0.069  0.1000 -0.1508  0.1255
15143W        W30952   3.396   6.897  11.822  0.4615 -0.0532 -0.0870
15144W        W30953  15.561   3.249  11.205  0.1516 -0.2094  0.1031
15145W        W30954  13.103  14.274   0.579  0.0569  0.1815  0.0333
15146W        W30955   1.206  14.781  11.804 -0.2145 -0.0233  0.3903
15147W        W30956  14.627   4.049  14.005 -0.2496 -0.0327  0.0505
15148W        W30957  13.192  12.562   3.992 -0.2043 -0.2734 -0.1365
15149W        W30958  15.889  10.244  11.571 -0.1991 -0.3537 -0.1442
15150W        W30959   6.551  15.130   1.869 -0.1532  0.2753  0.1013
15151W        W30960  11.311   2.124   5.098 -0.0380  0.1299 -0.0699
15152W        W30961   0.847   2.567   3.950 -0.0209 -0.1962 -0.1427
15153W        W30962  18.029   5.393   3.507 -0.3428  0.0323  0.2476
15154W        W30963  16.213   5.746   5.320  0.0064 -0.2402 -0.0046
15155W        W30964   7.102  11.795  13.725  0.1573  0.1982  0.0738
15156W        W30965  14.066  12.058   0.886  0.4669 -0.2465  0.0845
15157W        W30966  11.206   3.952  11.301  0.2278 -0.0620 -0.2644
15158W        W30967  14.085   6.196   2.626 -0.0718  0.0906  0.1561
15159W        W30968   1.210  16.136   5.214  0.1166  0.3884 -0.0229
15160W        W30969  14.732   4.360   0.283 -0.1183  0.1236  0.2723
15161W        W30970   0.418   8.291  13.090 -0.0193 -0.1222 -0.1115
15162W        W30971  10.886  18.565   3.105 -0.0262  0.2431  0.2209
15163W        W30972   8.975  12.059   4.462 -0.0043 -0.1566  0.2200
15164W        W30973  12.727   9.120  14.751  0.1233  0.1406  0.1575
15165W        W30974   4.297  10.236  12.637  0.2106 -0.1012 -0.2032
15166W        W30975   0.221   2.357  10.610 -0.1048  0.1804  0.1677
15167W        W30976   1.970  14.538   4.215  0.0898 -0.0602 -0.1253
15168W        W30977   5.319   9.247  10.250  0.0181  0.1187 -0.2875
15169W        W30978  18.708  12.672  15.345  0.2893  0.0782 -0.1581
15170W        W30979   1.040  10.494  11.564 -0.0142 -0.2260 -0.1015
15171W        W30980  14.699  12.755   3.908  0.0009  0.0392  0.0491
15172W        W30981   4.158  11.798  11.646  0.0387 -0.2944  0.1331
15173W        W30982   3.987   4.007   1.592 -0.1231  0.0497 -0.1305
15174W        W30983   1.423   4.622   0.927  0.0625  0.3718 -0.0656
15175W        W30984   5.913  16.614  10.466 -0.0981  0.2720  0.2224
15176W        W30985  15.856  16.801   3.734  0.0401 -0.3623 -0.4277
15177W        W30986  13.521  12.455  11.522  0.4247  0.1525 -0.0285
15178W        W30987  12.631  17.724  12.673  0.2443 -0.2576  0.0967
15179W        W30988   3.862   7.954  11.091  0.1489 -0.1487  0.0826
15180W        W30989   7.368   8.162  11.352 -0.2498  0.2305  0.0080
15181W        W30990  16.005  11.210  12.180  0.0640  0.0409 -0.1258
15182W        W30991   9.810  16.853  11.848 -0.0337 -0.0429 -0.1707
15183W        W30992   7.286  13.888   1.512 -0.0261  0.3501  0.2907
15184W        W30993   3.618   5.790   2.559 -0.3958  0.2818  0.2126
15185W        W30994   0.374   4.206   4.954 -0.3373  0.1767 -0.3746
15186W        W30995  14.149  16.936   1.109 -0.1402  0.2545 -0.1470
15187W        W30996  12.467  12.612  11.184  0.1868  0.0618 -0.1185
15188W        W30997   3.927   4.059   1.048  0.1142 -0.0377  0.0523
15189W        W30998  18.086   2.148   0.912 -0.3362 -0.2313  0.0933
15190W        W30999  10.924   2.106   2.565  0.1667 -0.2626 -0.1577
15191W        W31000   0.013   4.976  10.834  0.0666 -0.0272 -0.0152
15192W        W31001  15.142   3.600  10.896 -0.1782  0.0104  0.0843
15193W        W31002   7.573  12.232   3.171 -0.1943  0.3584  0.0190
15194W        W31003  15.482  14.888  14.260  0.0758 -0.2524  0.0113
15195W        W31004   7.047   4.779   0.015  0.0785 -0.1659 -0.0751
15196W        W31005  12.672  16.396   1.449  0.3401 -0.1401  0.3660
15197W        W31006  11.377  13.382   4.684  0.0824 -0.0103  0.1007
15198W        W31007  16.665  18.496  10.505  0.1578 -0.0212  0.2317
15199W        W31008  12.044   5.612  14.542 -0.2495 -0.2125  0.3315
15200W        W31009   2.436   8.693  12.565 -0.0267  0.1308  0.0700
15201W        W31010   6.867  14.619   3.020 -0.0701  0.3564 -0.1174
15202W        W31011  12.381   6.721   1.465 -0.2399 -0.0030  0.0331
15203W        W31012   8.642  18.706   2.341 -0.1072 -0.1495  0.1545
15204W        W31013  14.199   1.171   5.517  0.1145  0.1337 -0.0574
15205W        W31014   8.054  18.223   3.226 -0.1210 -0.1257  0.2682
15206W        W31015  12.372   4.341   0.315 -0.0676  0.1724  0.1626
15207W        W31016   8.232  15.789   3.264 -0.1352 -0.0678  0.0886
15208W        W31017   0.354   9.102  10.994 -0.0434 -0.2436 -0.0326
15209W        W31018  16.643   9.291   1.051  0.0460  0.0489  0.1557
15210W        W31019   0.915  16.694   3.058  0.0922  0.0306 -0.1211
15211W        W31020  16.820   6.568   3.274  0.0172 -0.2439 -0.4023
15212W        W31021   6.270  13.876   3.754  0.3832 -0.0634 -0.0205
15213W        W31022  11.444  11.226   0.873 -0.3591  0.0253 -0.2717
15214W        W31023   0.966  14.067  13.588  0.0049 -0.0710 -0.2649
15215W        W31024  10.932   4.885   3.497  0.1605 -0.0807  0.0667
15216W        W31025   4.333  16.312   1.549  0.3495  0.2151  0.0069
15217W        W31026  13.315  17.309  11.802 -0.0344 -0.2311  0.1886
15218W        W31027   3.684  11.718  14.759  0.0592 -0.2746 -0.0218
15219W        W31028   5.498   5.989   1.459 -0.0575  0.2059 -0.0962
15220W        W31029   0.750  11.882   3.304  0.1698 -0.1028 -0.1999
15221W        W31030   2.344   4.464  13.163  0.1757  0.0228  0.1194
15222W        W31031   9.854  17.029  10.227 -0.2106  0.0018 -0.1869
15223W        W31032   7.953   8.593   2.768 -0.1836  0.0789 -0.0761
15224W        W31033   8.737   3.844  14.121 -0.2299 -0.1560 -0.0312
15225W        W31034   9.381  12.054  14.794 -0.3224  0.1003  0.2822
15226W        W31035   1.987   5.509   2.333 -0.1388  0.3129  0.0027
15227W        W31036  10.155   0.876  12.853  0.3544 -0.0839 -0.2011
15228W        W31037  15.215  16.721   2.872  0.4346 -0.1297  0.1210
15229W        W31038  10.968   3.763  15.194  0.0980  0.0785 -0.1282
15230W        W31039  10.688  10.870  13.359 -0.1672  0.1812  0.2203
15231W        W31040   3.937  17.906  13.810  0.0049 -0.0206 -0.0028
15232W        W31041  18.710  15.829   3.557 -0.0871  0.3434 -0.0396
15233W        W31042  13.150   6.798   3.153  0.2020  0.1058  0.3266
15234W        W31043  12.239   7.185  13.221 -0.3052 -0.2767 -0.1531
15235W        W31044  12.965   4.345   3.907  0.1791  0.1387  0.1868
15236W        W31045  11.794   2.053   1.300  0.0222 -0.1191 -0.0136
15237W        W31046  16.582   4.600   2.361 -0.3869 -0.0510  0.0580
15238W        W31047   9.253  13.360  13.562 -0.0327 -0.1700  0.2437
15239W        W31048  14.117  18.526   3.780 -0.0018  0.1124 -0.2645
15240W        W31049  11.303   4.872  15.240 -0.0856 -0.1381 -0.1435
15241W        W31050  13.361  13.947  12.024 -0.3998 -0.1147  0.0727
15242W        W31051   3.687   6.827  13.237 -0.2963 -0.0900 -0.0244
15243W        W31052  12.782   7.811   3.383  0.0934 -0.1270 -0.0487
15244W        W31053   1.403  15.659   4.590  0.1745  0.1019  0.0590
15245W        W31054  11.373  10.914   9.487 -0.0853  0.2286  0.1669
15246W        W31055  10.922   5.163  13.518 -0.0411 -0.1830  0.1077
15247W        W31056  12.908  10.745   0.668  0.0285 -0.1534 -0.3495
15248W        W31057  13.019   4.083   1.601 -0.2194  0.4724 -0.0265
15249W        W31058  15.875   9.588   2.801  0.2218  0.0133  0.1646
15250W        W31059   4.107   9.046   2.775  0.1942  0.0058  0.1121
15251W        W31060   3.972   5.586  12.258 -0.1031 -0.2154 -0.1648
15252W        W31061   5.834  16.105   9.556  0.1720  0.0063 -0.0791
15253W        W31062  16.790   0.573   4.477  0.1768  0.1974 -0.1637
15254W        W31063  16.380  16.782   5.700  0.1465  0.0726 -0.0039
15255W        W31064   2.481  17.520  11.731 -0.1146  0.0479 -0.2597
15256W        W31065   7.133   1.280  10.931 -0.0976 -0.0015  0.1547
15257W        W31066  16.323   9.810   1.909 -0.3473  0.0664  0.0665
15258W        W31067  15.977   1.553   1.616  0.0918 -0.2720  0.2180
15259W        W31068   6.381  15.212  11.037  0.2328 -0.2383  0.0537
15260W        W31069  10.457   6.874  12.705 -0.1158 -0.2576  0.3590
15261W        W31070   9.851   3.591   2.880  0.0839  0.1680  0.1896
15262W        W31071   2.724   5.380  10.981  0.3521  0.1841 -0.2154
15263W        W31072  16.471  15.388   5.529 -0.1673  0.3736 -0.3143
15264W        W31073  18.642  10.984   4.760 -0.1848 -0.1637 -0.1549
15265W        W31074  16.971   1.429   0.827  0.0707  0.1763  0.1140
15266W        W31075  16.767  16.625   4.208  0.1855  0.2187 -0.2151
15267W        W31076   0.914  11.087  12.239  0.1054 -0.2869 -0.1138
15268W        W31077  17.782  15.950   0.992 -0.0088  0.0188 -0.1208
15269W        W31078   0.984  14.223  14.942  0.1041 -0.0953  0.0279
15270W        W31079   6.473   5.751   4.926 -0.0364 -0.1635 -0.1287
15271W        W31080   6.077  17.236   3.769  0.0159  0.0321 -0.0137
15272W        W31081  12.018   3.734   3.902  0.3734 -0.1048 -0.2855
15273W        W31082   0.759  13.005  10.652 -0.0110 -0.0772  0.1873
15274W        W31083  17.555  10.119   4.588  0.1828  0.0130  0.2811
15275W        W31084  11.183   8.251  14.279 -0.1592  0.3184  0.1799
15276W        W31085   6.540   9.955  14.460  0.0665  0.0902  0.3693
15277W        W31086   3.913  18.499   0.239 -0.1934 -0.0673 -0.0924
15278W        W31087   9.411  10.396   2.679  0.0703  0.0501  0.0650
15279W        W31088  17.205   2.594   1.839 -0.0779  0.3970 -0.0717
15280W        W31089   7.774   3.960   6.255  0.0023 -0.1741  0.1478
15281W        W31090   6.287  10.245   2.157 -0.2181  0.1172  0.1507
15282W        W31091   5.165  12.140   4.072  0.3614  0.2994 -0.0291
15283W        W31092   2.380  12.694   2.714 -0.1755  0.1700  0.2079
15284W        W31093  17.805   9.717   2.529  0.2838  0.1140 -0.1059
15285W        W31094   2.447   0.002   3.763  0.2311 -0.1021 -0.0341
15286W        W31095   6.277  18.711  12.188  0.0584  0.1424 -0.0351
15287W        W31096   0.084   2.359   3.045  0.0444  0.1122 -0.1290
15288W        W31097   1.350   7.077   0.226 -0.0527 -0.0529 -0.0964
15289W        W31098   3.433  10.193  13.141 -0.1452 -0.0514 -0.0526
15290W        W31099   1.924   0.485  12.651  0.0482 -0.0416  0.0813
15291W        W31100  17.312   5.244  11.129 -0.1659  0.2693  0.0974
15292W        W31101   2.901   6.357  15.356 -0.3593  0.4246  0.4230
15293W        W31102   0.704  14.768   2.990 -0.1350 -0.1752 -0.2407
15294W        W31103  12.535   9.864  14.240  0.0112  0.3769 -0.1360
15295W        W31104   4.310  16.952  10.349 -0.0938 -0.1546 -0.2560
15296W        W31105   7.161  14.628  12.527  0.0153  0.3282  0.1575
15297W        W31106  10.709  10.324  15.184 -0.4026 -0.1046 -0.2448
15298W        W31107  13.372   3.735  12.679  0.2473 -0.0289  0.1355
15299W        W31108  14.303   2.040   1.890  0.0224 -0.1538 -0.2728
15300W        W31109  14.488   1.195   3.867 -0.1177  0.2714  0.4312
15301W        W31110   8.052   5.454   3.164  0.1226 -0.2411 -0.2128
15302W        W31111  10.729  18.144  10.880  0.0126  0.1650  0.0886
15303W        W31112   2.881   3.065   3.696 -0.1718  0.0451  0.1509
15304W        W31113   9.582  15.801   0.023 -0.0504  0.1412  0.3252
15305W        W31114  15.522  13.959   5.120 -0.2045  0.1257  0.1356
15306W        W31115   1.129  18.449   3.455  0.0043  0.0085  0.2149
15307W        W31116  17.944   4.596  12.160  0.0418 -0.0511 -0.3098
15308W        W31117   1.117   4.956   3.518 -0.2435  0.1658 -0.0468
15309W        W31118  17.036  18.040   2.079 -0.1393 -0.0376 -0.2806
15310W        W31119   4.357   7.588  12.967  0.0074  0.0337  0.2073
15311W        W31120  13.078  17.283   2.500  0.1068 -0.1691 -0.1841
15312W        W31121   2.868   5.199  12.331  0.0001 -0.1465 -0.1198
15313W        W31122   0.243  17.104   4.828 -0.1636  0.0846 -0.0688
15314W        W31123   8.152  15.665  11.547  0.0612 -0.0372 -0.1758
15315W        W31124   2.059  15.777  14.478 -0.2311  0.1958  0.1800
15316W        W31125  18.673  18.092  14.853 -0.2019 -0.0087 -0.1307
15317W        W31126   7.075   0.115   1.701 -0.2773 -0.0294 -0.1289
15318W        W31127  10.747   7.316   2.074 -0.2401  0.4352 -0.1585
15319W        W31128  11.152   1.029   0.145  0.0814  0.0558  0.3088
15320W        W31129  15.865   4.600   5.002  0.5687  0.2787  0.0378
15321W        W31130  12.547   7.436  12.111 -0.0456 -0.1189  0.2996
15322W        W31131  13.922   6.266  13.683  0.1089  0.0939  0.0074
15323W        W31132   0.311  11.308   0.458  0.0354  0.2799  0.0023
15324W        W31133  17.587  15.182   0.548  0.3180  0.0507  0.0791
15325W        W31134  11.156  14.650   1.772 -0.1436  0.1845  0.0964
15326W        W31135  11.401  14.676  13.321  0.1116  0.2322  0.0394
15327W        W31136   0.803  18.586   0.001 -0.4703 -0.0961 -0.2141
15328W        W31137   9.857   5.728   3.147  0.0811  0.2521 -0.2269
15329W        W31138  11.430   9.436   5.592  0.1481 -0.0789 -0.2644
15330W        W31139   0.204   6.362   4.335 -0.0027  0.2412 -0.1761
15331W        W31140   6.539   9.255  12.942  0.2426  0.0589  0.3847
15332W        W31141  17.935  11.591   0.021  0.3206 -0.1203  0.4468
15333W        W31142   9.855  10.328  10.958 -0.0441 -0.1069 -0.0085
15334W        W31143  18.001  15.875   4.863  0.0554 -0.1260  0.0554
15335W        W31144   0.970  10.361  15.436  0.1490  0.2233  0.0017
15336W        W31145  10.858   6.276   6.062  0.0693 -0.1557 -0.1117
15337W        W31146  13.206   5.156   0.828  0.0320 -0.1195 -0.1216
15338W        W31147  14.486  15.155   2.449  0.0730  0.1215  0.3597
15339W        W31148  12.887   2.375  12.053 -0.4812  0.1358 -0.1647
15340W        W31149   4.600   9.394  11.061 -0.3099  0.0440  0.3699
15341W        W31150   4.948  16.325   1.465  0.1215 -0.0362 -0.0629
15342W        W31151  13.400   4.686   2.915  0.1909  0.1468 -0.3808
15343W        W31152  12.737  13.512  14.896  0.2371  0.0816 -0.1249
15344W        W31153   7.944   4.238   2.910  0.1235  0.2466 -0.0700
15345W        W31154   7.744   8.002   1.573  0.0607 -0.1705 -0.4083
15346W        W31155  18.294   2.912  15.382  0.0604  0.5451 -0.3153
15347W        W31156  15.246   6.864   1.518  0.0399 -0.2566 -0.1910
15348W        W31157   0.842   0.473  11.261 -0.2653  0.1380  0.1816
15349W        W31158   6.780   5.789  15.354  0.0109  0.0014 -0.0383
15350W        W31159  12.988  15.868  15.126  0.1451  0.1028 -0.1725
15351W        W31160  17.168  16.141  15.241  0.1577  0.1405 -0.0874
15352W        W31161   4.933   8.927  12.050  0.1075  0.1730  0.1081
15353W        W31162   8.917  13.865   2.397 -0.0268 -0.0916 -0.0127
15354W        W31163  12.759   9.589  11.933 -0.3679  0.0902  0.1281
15355W        W31164   4.329   5.109  11.173 -0.0443  0.1626 -0.3916
15356W        W31165  18.402   2.524   1.087  0.4451 -0.0828  0.3930
15357W        W31166   0.775   0.625   4.048  0.2611 -0.0050  0.2763
15358W        W31167   5.917   0.480   4.433 -0.2746 -0.2474 -0.0477
15359W        W31168  13.941   7.332  13.177 -0.0128 -0.0416 -0.2230
15360W        W31169   9.663   9.514  11.824  0.1728  0.0736 -0.2110
15361W        W31170  18.022  15.054   0.105 -0.1316 -0.0102 -0.1605
15362W        W31171  10.221   6.099   4.132 -0.1585 -0.0059  0.1511
15363W        W31172   2.784  10.267   0.659  0.2872  0.1732 -0.3505
15364W        W31173   8.808  10.008  15.497 -0.0802 -0.2217  0.2227
15365W        W31174   3.260  12.832  14.740  0.1564 -0.0031 -0.2036
15366W        W31175  10.893  11.164  14.201  0.0516  0.2299  0.0293
15367W        W31176  17.255   1.254   3.474  0.1751 -0.1640 -0.0950
15368W        W31177  18.380  18.654   3.391 -0.2280  0.3426 -0.1433
15369W        W31178   0.833  10.301  13.940 -0.2465 -0.0193 -0.0235
15370W        W31179  18.735  12.142   1.700  0.3326  0.1599  0.0965
15371W        W31180   7.505  10.914  14.286  0.4792  0.2457 -0.2374
15372W        W31181  11.637  11.058  10.380  0.1103  0.4801  0.1204
15373W        W31182   8.700  16.301  10.897  0.0010  0.3553 -0.0438
15374W        W31183  11.259  10.505  10.927  0.0833  0.0026 -0.0355
15375W        W31184   9.533  17.738  14.557  0.3026 -0.0233 -0.0344
15376W        W31185   1.182   7.417   0.561 -0.1449  0.3413 -0.2399
15377W        W31186  18.460  15.727  12.273  0.0364  0.2881  0.1505
15378W        W31187   2.480  13.493  14.613 -0.4569  0.0829 -0.0957
15379W        W31188  11.508   0.298   3.940 -0.1614 -0.3296 -0.3607
15380W        W31189   9.499   8.838   5.426 -0.1068  0.1785  0.0972
15381W        W31190  12.772   1.245   4.597 -0.2055  0.0152 -0.2804
15382W        W31191   0.888  18.382  10.866 -0.1087  0.2636  0.3037
15383W        W31192   4.350   4.831  13.314  0.2646 -0.1056  0.1090
15384W        W31193  13.933  16.411  10.884  0.0828  0.3258 -0.0325
15385W        W31194  11.970  12.258   4.872  0.1139  0.2251 -0.5015
15386W        W31195   0.052  15.165  14.015 -0.0030 -0.0767 -0.0279
15387W        W31196   8.602  15.581  13.301 -0.0429  0.0801  0.2853
15388W        W31197   4.389  17.051  11.906 -0.1971  0.2896 -0.1416
15389W        W31198   2.929  16.882  13.761  0.1212  0.1468 -0.0841
15390W        W31199   4.417   7.479   0.489  0.0136 -0.0257  0.0144
15391W        W31200   5.022   4.996  12.119 -0.3555 -0.0400  0.0507
15392W        W31201   5.269  14.091  12.835  0.1561  0.0481 -0.0019
15393W        W31202  15.029   1.482   1.125  0.0555  0.1099 -0.2580
15394W        W31203  17.551   3.059   4.750  0.0239  0.2933  0.0492
15395W        W31204  11.081   7.961  11.170  0.1664  0.0212 -0.1026
15396W        W31205   9.116   6.182  11.429 -0.1057 -0.2717 -0.0749
15397W        W31206  12.835   7.694  11.275 -0.0374 -0.1479 -0.0266
15398W        W31207   5.407  12.150  10.931 -0.2476 -0.0341  0.1359
15399W        W31208  18.393  16.296  11.062 -0.2819 -0.0405  0.0054
15400W        W31209   1.495  11.801   1.566  0.2788  0.0403 -0.0606
15401W        W31210  12.140   4.084   2.417  0.2280  0.0203 -0.0972
15402W        W31211   9.756   5.073  14.749 -0.3454  0.1273  0.2295
15403W        W31212   4.666  12.056  13.685 -0.1055 -0.0898 -0.0305
15404W        W31213  15.975   6.433  11.322  0.1070 -0.2383  0.0422
15405W        W31214   0.447   6.086  12.734  0.1261 -0.0177  0.1146
15406W        W31215   5.032   2.660  14.740  0.0581  0.1376  0.0399
15407W        W31216   7.547  10.496   2.451 -0.0744  0.3500 -0.0700
15408W        W31217   1.861   6.720  14.725  0.2036 -0.0896 -0.2500
15409W        W31218  17.644  16.318  11.698  0.1586 -0.0116  0.1377
15410W        W31219  12.504  10.924  13.347 -0.0816  0.2372  0.0677
15411W        W31220   8.913  10.447  13.756  0.1641 -0.0502 -0.0130
15412W        W31221   1.910  12.474   0.206  0.1583 -0.0365 -0.1183
15413W        W31222  11.894   5.448  11.231 -0.0405  0.1953  0.1947
15414W        W31223  10.268   1.239   5.491 -0.2713  0.2106 -0.2656
15415W        W31224   0.297   4.489  14.181  0.0859 -0.1637  0.0734
15416W        W31225  10.782  11.558   3.802  0.0772 -0.0517  0.1248
15417W        W31226   0.961  11.517  11.706 -0.2812  0.0916 -0.0233
15418W        W31227  16.759   1.783   4.738  0.1009 -0.1098 -0.4457
15419W        W31228  17.242   2.328  14.246 -0.0070 -0.0498  0.0512
15420W        W31229   3.499  18.318  14.604 -0.0098 -0.0734 -0.1537
15421W        W31230   6.845   1.537   9.948  0.0368 -0.1420 -0.0800
15422W        W31231   6.789   7.343  15.425  0.0009  0.1114 -0.0005
15423W        W31232   1.804  13.159  12.007  0.0815 -0.1149  0.1026
15424W        W31233   4.909   4.555   2.550  0.0191  0.1355 -0.0431
15425W        W31234  11.117   1.640   4.985  0.3460 -0.2383 -0.1429
15426W        W31235  17.357   1.259  13.530 -0.1057  0.3446  0.1361
15427W        W31236  15.932   8.961  12.828  0.0250 -0.5825 -0.0411
15428W        W31237   9.617  15.406   4.487  0.0130 -0.3238 -0.0170
15429W        W31238   7.990   8.174  13.018  0.1500 -0.1709  0.2433
15430W        W31239   1.790  14.452  13.592 -0.2564  0.3390 -0.0036
15431W        W31240  12.153   6.288  11.408 -0.1720  0.2017 -0.2249
15432W        W31241   8.083  13.051   4.626  0.3214  0.1599  0.0577
15433W        W31242  18.705   7.572  12.944 -0.3865  0.0596 -0.1083
15434W        W31243   4.009  17.455   1.519 -0.0761 -0.0740 -0.1254
15435W        W31244  16.639   8.044  11.457 -0.1468 -0.0556  0.0256
15436W        W31245  18.702  18.334  14.074  0.0056  0.1267 -0.3604
15437W        W31246  11.230   1.928  11.010 -0.0455 -0.1148 -0.3548
15438W        W31247   9.591   2.907   4.134 -0.0878  0.0042  0.1341
15439W        W31248   0.805   5.415  10.860 -0.0244  0.0620 -0.0929
15440W        W31249  16.710  16.659   1.639 -0.1212 -0.2847 -0.1066
15441W        W31250  10.207   9.419  15.103 -0.0768  0.3531 -0.2177
15442W        W31251  13.675  18.053  13.534  0.0665 -0.0526 -0.1098
15443W        W31252  15.986   2.484   0.539  0.0764 -0.0116 -0.0267
15444W        W31253   5.684  11.135   2.269 -0.1615  0.2542 -0.1852
15445W        W31254   1.220  18.328  11.243 -0.0635  0.0505 -0.1962
15446W        W31255  16.117  12.860  13.631 -0.0933 -0.4061  0.0627
15447W        W31256   0.404   6.119  11.283 -0.1992 -0.2670  0.2639
15448W        W31257  10.919   6.545  10.529  0.1692  0.0130 -0.2581
15449W        W31258  17.566   5.134  11.665  0.1026 -0.0311  0.1751
15450W        W31259  14.446  16.741   0.371 -0.0672  0.0421  0.2288
15451W        W31260   6.424  13.729   2.412  0.0889 -0.3398 -0.0511
15452W        W31261   8.079   3.936   4.571 -0.0528  0.1709  0.2989
15453W        W31262   4.096  17.629  14.786  0.0379  0.0011 -0.1966
15454W        W31263   0.879   4.594  14.089 -0.1713 -0.0419  0.2060
15455W        W31264   8.253   6.188  10.840  0.0819 -0.1225 -0.2898
15456W        W31265  14.951   8.820   3.608 -0.1838  0.0104 -0.1692
15457W        W31266   8.433   0.295   0.983  0.0379  0.0474  0.0467
15458W        W31267   9.906   0.128   0.722 -0.1070  0.1759  0.2256
15459W        W31268   5.465   6.712  11.781  0.0321 -0.2334 -0.1869
15460W        W31269   3.067  16.443   2.798 -0.1188  0.2472 -0.2021
15461W        W31270   2.099  11.626   0.891  0.0403  0.2021 -0.1318
15462W        W31271   5.409  10.714  14.710 -0.0734  0.0025  0.2467
15463W        W31272  17.735   0.193   0.691 -0.0489  0.0375  0.0362
15464W        W31273   2.518   2.707   3.026  0.4790  0.1891 -0.0571
15465W        W31274  11.867  10.107  10.938 -0.2361 -0.0854  0.0394
15466W        W31275   2.124   4.850  10.505  0.4825  0.0144  0.0689
15467W        W31276  10.205   5.403   3.139  0.0448 -0.2250  0.2570
15468W        W31277  14.548  10.642   0.523 -0.2200  0.1319  0.0555
15469W        W31278  18.228  10.781  15.218 -0.0878  0.5255  0.0491
15470W        W31279   0.250  12.592  14.877 -0.1335 -0.3315 -0.4711
15471W        W31280  14.916  10.456   2.749 -0.1678 -0.2415  0.1027
15472W        W31281  15.869  17.675   3.542 -0.2985  0.1828  0.0684
15473W        W31282   9.128   9.847  11.963 -0.2223  0.3048  0.3688
15474W        W31283   3.722   0.079  12.683 -0.0709  0.3206 -0.1875
15475W        W31284  18.377  15.582   3.816  0.1241  0.1113 -0.0986
15476W        W31285   0.175   4.979  15.167 -0.0541 -0.1233  0.0263
15477W        W31286  11.537  14.173  10.650 -0.3418 -0.0139 -0.0930
15478W        W31287  15.722   1.126   3.849 -0.1313  0.0832 -0.1831
15479W        W31288   4.211  10.178  12.030  0.3739 -0.0120  0.1109
15480W        W31289  10.000   9.727  14.476  0.0067 -0.1194 -0.2822
15481W        W31290  16.344  17.483  14.609  0.1396  0.0856 -0.2445
15482W        W31291   9.523   4.240  15.392  0.0642  0.3591 -0.0378
15483W        W31292   6.093   7.313  14.220 -0.1265  0.2567 -0.2244
15484W        W31293   2.335   0.766   2.495 -0.2610 -0.2496  0.0699
15485W        W31294   5.191   2.909   4.436 -0.3078  0.0571  0.0783
15486W        W31295   0.799   1.118  13.590 -0.1245  0.0040 -0.2176
15487W        W31296   1.583  18.125   3.905  0.2081 -0.0248 -0.1624
15488W        W31297  17.084   2.344   3.712 -0.0078 -0.1690  0.0331
15489W        W31298  12.180  12.467  10.146 -0.1141  0.0540  0.0998
15490W        W31299   6.048  13.684   1.201 -0.0825 -0.1817  0.0573
15491W        W31300  18.756   3.651  10.792 -0.1360 -0.2599 -0.0630
15492W        W31301  10.623   9.888  11.749 -0.2612  0.0159  0.0230
15493W        W31302  13.680  13.428   2.389  0.1485 -0.3548  0.2102
15494W        W31303   6.884   8.365   1.823  0.3241 -0.1222  0.1604
15495W        W31304   9.453   4.158  13.361 -0.2406 -0.1023  0.0236
15496W        W31305   3.204   0.018  15.035  0.1829 -0.1813  0.2807
15497W        W31306  17.018   1.699  11.892 -0.0725 -0.2287 -0.1726
15498W        W31307  16.797   4.935  15.357  0.0296 -0.3315  0.3203
15499W        W31308   1.632  15.667  10.885 -0.1610 -0.2395 -0.0940
15500W        W31309  14.067   9.736   3.616 -0.2221 -0.1165  0.1056
15501W        W31310  15.968   3.462   2.727 -0.1684 -0.0840 -0.0966
15502W        W31311  11.224   9.085   2.351 -0.3594  0.1409  0.1276
15503W        W31312   1.932   4.764  13.102  0.1032  0.1757  0.0625
15504W        W31313   0.495   6.673   4.727 -0.4148  0.1105  0.1570
15505W        W31314   2.967   7.441  10.985 -0.0461 -0.3614 -0.2198
15506W        W31315   3.193   9.235   0.410 -0.0188 -0.1398  0.2056
15507W        W31316   9.681  17.749  12.155  0.1429 -0.0795 -0.1775
15508W        W31317  13.657   7.145   0.951 -0.1345  0.2727  0.3208
15509W        W31318   3.252   7.548  10.565  0.0306 -0.1292  0.1223
15510W        W31319   6.781   4.998   2.622  0.4246 -0.2611  0.1898
15511W        W31320   8.263  11.054  14.145 -0.0302  0.0159 -0.1564
15512W        W31321   0.249   7.751   1.374 -0.0790 -0.1348 -0.2253
15513W        W31322  16.740   3.958  14.542  0.2600 -0.1759  0.2672
15514W        W31323  17.867  15.860   3.820 -0.1105 -0.1339 -0.1045
15515W        W31324   0.430   2.157  13.792  0.1447 -0.0140  0.0402
15516W        W31325  15.289  14.697  10.733  0.1894  0.1107  0.0088
15517W        W31326   2.876  15.643  10.872  0.4817  0.1342  0.2654
15518W        W31327   5.959  14.589  14.350  0.0032  0.3177 -0.0467
15519W        W31328  16.504   2.007  15.316 -0.1331  0.0479 -0.0501
15520W        W31329  10.494   6.288   2.067  0.1545 -0.3070 -0.0296
15521W        W31330  17.638   1.862   9.929  0.0342  0.0873 -0.0510
15522W        W31331   2.697  17.270   4.236 -0.0112  0.2263 -0.2336
15523W        W31332   2.108  14.765   1.931  0.4757  0.0338 -0.0385
15524W        W31333  18.283   4.803  13.847  0.0313 -0.1171  0.2718
15525W        W31334   1.021  16.056  12.542  0.1531  0.2003  0.3183
15526W        W31335  15.217   2.843   4.137  0.0800 -0.1324  0.0532
15527W        W31336  11.017  18.644  12.184 -0.2366  0.1283  0.2105
15528W        W31337   0.376   2.876   0.170  0.0186  0.0085  0.3380
15529W        W31338  18.647   1.956  12.385  0.0023 -0.3365 -0.0729
15530W        W31339  13.350   6.897   2.607  0.1375  0.1450 -0.0685
15531W        W31340  12.528  16.073  11.457  0.0572 -0.2740  0.1359
15532W        W31341  11.650  17.152  10.420  0.1568  0.0916  0.4302
15533W        W31342  15.489   1.735   0.700 -0.1304 -0.3042 -0.2116
15534W        W31343   3.143   7.117  12.801 -0.1996 -0.1084 -0.0545
15535W        W31344   6.663  14.597   0.267  0.0701  0.3724  0.2266
15536W        W31345  16.349  11.808  15.097  0.1796  0.1018 -0.0338
15537W        W31346  16.720  15.157   1.748 -0.0869  0.2436 -0.1131
15538W        W31347  15.507   4.383  12.569 -0.0137  0.2958  0.1581
15539W        W31348   2.718  10.041   2.128 -0.0569  0.2141  0.1744
15540W        W31349  15.112   1.712  15.285 -0.1846  0.0235 -0.1045
15541W        W31350  13.359  12.219   3.541  0.1024 -0.0584  0.0868
15542W        W31351  15.467  15.212   1.101  0.2663  0.2256  0.0785
15543W        W31352   1.389   8.234  14.661  0.1635 -0.0690 -0.1034
15544W        W31353   0.927  17.008  11.144 -0.2179 -0.0757 -0.0200
15545W        W31354   7.281   6.613  11.065 -0.1833  0.0794 -0.0864
15546W        W31355   0.135  14.705   2.783  0.3750 -0.1972 -0.2314
15547W        W31356   3.827   4.364  14.895 -0.2999  0.1016  0.0582
15548W        W31357   2.350   9.696   4.185  0.2800 -0.4249 -0.3145
15549W        W31358  11.400   2.398   5.962  0.1905 -0.2251 -0.2557
15550W        W31359   1.767   5.375  11.422 -0.2461 -0.0101  0.0227
15551W        W31360   4.337   0.390  12.442  0.1662  0.0487  0.2126
15552W        W31361   9.177  15.806   1.777  0.0846  0.0519 -0.2184
15553W        W31362  16.776   5.304  11.159  0.1207  0.2115  0.3553
15554W        W31363   6.814   8.635  13.552  0.0875 -0.1399  0.1794
15555W        W31364   5.472   6.161  10.976 -0.0200 -0.3286  0.0234
15556W        W31365  16.591   9.694  13.685 -0.0631 -0.3364 -0.0451
15557W        W31366   0.361   6.056   0.607  0.1452  0.1360 -0.0982
15558W        W31367   9.139   9.745   4.997 -0.0539  0.1418  0.2642
15559W        W31368  13.554  15.844   5.596 -0.3091  0.0984  0.3371
15560W        W31369   0.513  18.418  11.791  0.3145 -0.0554  0.4496
15561W        W31370   1.294   5.176  15.441  0.1617 -0.0492 -0.0379
15562W        W31371  13.359   8.035  11.927  0.2437 -0.0151 -0.2555
15563W        W31372   1.418   9.018  14.057  0.2505  0.2067  0.0936
15564W        W31373   8.566  12.525   2.726  0.3954 -0.0734  0.3009
15565W        W31374   2.074   1.324   4.195  0.3438 -0.1365 -0.0753
15566W        W31375  17.023   3.454   1.487 -0.3754 -0.0923  0.2291
15567W        W31376  15.050  11.018   4.364  0.1096 -0.0942  0.0759
15568W        W31377   0.636   0.368  14.836 -0.1856 -0.0879  0.1873
15569W        W31378  16.428   4.545   1.270 -0.0313  0.2185 -0.0391
15570W        W31379   5.352   0.278   4.289  0.2088  0.1611 -0.1382
15571W        W31380   5.867  13.161   2.363 -0.2235 -0.0013 -0.2630
15572W        W31381   8.669  13.689  11.295 -0.0842  0.1179 -0.3780
15573W        W31382  16.551   3.426  15.202 -0.2136 -0.3100  0.2901
15574W        W31383  15.451   4.043   3.519 -0.1934  0.0399 -0.0718
15575W        W31384   9.353   0.394   2.355  0.1733  0.1928 -0.0280
15576W        W31385  14.280  15.167   0.553  0.1276 -0.1472 -0.0544
15577W        W31386   7.432  14.918  11.474  0.0473  0.2276 -0.3006
15578W        W31387  10.681  14.109  13.651  0.0065 -0.0910  0.3929
15579W        W31388  16.582   1.847  10.916 -0.2175 -0.4224 -0.0633
15580W        W31389  15.164   1.667   3.998  0.3444  0.2626 -0.0374
15581W        W31390  12.325  11.991   5.029  0.1243  0.0671  0.0917
15582W        W31391  10.133   4.752   5.787 -0.1205  0.3428 -0.1168
15583W        W31392   4.985  14.993  10.979 -0.0375  0.1174 -0.1218
15584W        W31393  11.795   5.441  11.782  0.0315 -0.0096 -0.1072
15585W        W31394  18.021   0.237  11.005  0.0746 -0.0003  0.2742
15586W        W31395   4.364  12.354  11.841 -0.1411  0.0879 -0.2651
15587W        W31396   0.133  15.516  12.237  0.0062 -0.1141  0.0805
15588W        W31397   3.548   5.637   0.033  0.1698 -0.1390  0.2994
15589W        W31398   9.592   4.323   6.106 -0.4104 -0.4513 -0.1827
15590W        W31399  11.952   2.073  14.478  0.1838  0.1553 -0.2888
15591W        W31400  13.219   9.271   3.007 -0.0193 -0.2680  0.0857
15592W        W31401   8.474  11.980   4.396 -0.5094  0.1712  0.1857
15593W        W31402  10.576   9.579   1.008  0.1603  0.1722 -0.0899
15594W        W31403  18.438   3.638   5.099  0.1386 -0.0841  0.2616
15595W        W31404  11.688   2.488   2.915  0.1432  0.2696  0.1379
15596W        W31405  12.575  17.854   4.961  0.0569  0.2431  0.4019
15597W        W31406   4.264  11.205  14.709  0.0387  0.3596  0.1740
15598W        W31407   9.337  14.544  14.194 -0.1042 -0.0533 -0.0445
15599W        W31408  15.631   4.954  12.869  0.0857  0.0966 -0.2608
15600W        W31409   4.787   2.788   1.717  0.0747  0.1029  0.1434
15601W        W31410  15.737  17.776  11.297 -0.2008 -0.2003 -0.2561
15602W        W31411  12.768   5.901   0.301  0.0644 -0.0096 -0.0218
15603W        W31412   8.250   4.387   2.346 -0.2950 -0.4363  0.3170
15604W        W31413  10.496   0.850  15.102  0.4044 -0.0696  0.3749
15605W        W31414  11.523  18.098   1.051 -0.4202 -0.2043 -0.1210
15606W        W31415  17.236  17.248  11.488  0.1237 -0.1030  0.1480
15607W        W31416   9.021  10.477   2.325 -0.0810  0.0973  0.3213
15608W        W31417   3.964   9.982  11.677 -0.0070 -0.0473  0.2301
15609W        W31418  11.083   8.743   3.371  0.3773  0.3114  0.1457
15610W        W31419   1.036  17.511   4.426 -0.4358  0.1637 -0.0834
15611W        W31420  15.545   4.163  14.830 -0.1934  0.0034 -0.2602
15612W        W31421   5.601  12.919  13.755 -0.1422 -0.2825  0.0713
15613W        W31422  12.977  18.712   3.972 -0.2450 -0.0345  0.1670
15614W        W31423  12.706   8.388   4.818  0.2640  0.1299  0.1092
15615W        W31424   3.776  13.756  15.502 -0.2801 -0.3726  0.0022
15616W        W31425   5.095  12.554   4.363  0.2661 -0.0234 -0.1965
15617W        W31426  10.954   6.530  11.106  0.0702 -0.0251 -0.0825
15618W        W31427   5.179   1.648  12.990 -0.0265 -0.3711 -0.3055
15619W        W31428  13.065  15.357  13.745  0.0166 -0.0191  0.3402
15620W        W31429   2.823   0.818   0.778 -0.2158  0.2289  0.0930
15621W        W31430  12.875   4.334  11.638  0.0402 -0.0179 -0.1040
15622W        W31431  11.091  18.056   1.536 -0.0652  0.1095 -0.2593
15623W        W31432  18.206  14.946   2.507  0.0001 -0.1280  0.0490
15624W        W31433  12.547  12.128  15.232 -0.0260 -0.2174  0.0487
15625W        W31434   7.987  15.048   3.790  0.0102 -0.1580  0.0847
15626W        W31435  17.866   5.777   0.995  0.0531 -0.0279  0.1394
15627W        W31436  10.001   9.077   0.671  0.0430  0.1647  0.1049
15628W        W31437   2.627  18.498   1.487 -0.0193  0.0202 -0.0364
15629W        W31438   8.441   1.733   0.842  0.0850  0.0613  0.2745
15630W        W31439   1.496  12.705   2.716 -0.0268  0.0313 -0.1334
15631W        W31440  17.349   6.931  12.898  0.1638  0.5690 -0.2031
15632W        W31441   4.594   5.337  12.142  0.0114 -0.2032 -0.0977
15633W        W31442   7.311   3.509  13.772  0.1326  0.1427 -0.3951
15634W        W31443  12.436   6.110   4.347  0.1239  0.1213 -0.0984
15635W        W31444   1.828   4.401   3.499 -0.2211  0.0633 -0.0602
15636W        W31445   3.231  18.692  11.706 -0.0809  0.1709  0.0930
15637W        W31446   6.794   3.294  13.021 -0.4287 -0.0281 -0.1041
15638W        W31447   6.698  10.860   2.084  0.3327  0.0636 -0.0086
15639W        W31448   1.021   6.678   4.588  0.0779  0.0589 -0.1707
15640W        W31449   8.112   4.009  15.428 -0.0062  0.0671 -0.1931
15641W        W31450  13.904   1.600  11.711 -0.2524 -0.0548  0.1670
15642W        W31451   0.203  16.146  13.662 -0.2752  0.0433  0.0678
15643W        W31452  17.402   1.450   0.081 -0.3348  0.1661 -0.1579
15644W        W31453  14.046   6.247  10.986 -0.4434 -0.2996 -0.1115
15645W        W31454   8.994  18.765   3.971  0.0289 -0.0002  0.1661
15646W        W31455  10.180  11.138   2.672  0.0757  0.1885  0.0910
15647W        W31456   3.077   6.222   5.803 -0.3668 -0.0696 -0.0618
15648W        W31457   5.806  13.934  10.987  0.0533 -0.1783 -0.0678
15649W        W31458  17.721  10.343  12.476 -0.2352  0.2395  0.1816
15650W        W31459   8.205   4.962   4.511 -0.0091  0.0259  0.1370
15651W        W31460   2.662   8.701  14.716 -0.0879 -0.3117  0.2058
15652W        W31461  11.700   8.027   0.200  0.0221  0.1748 -0.0407
15653W        W31462   2.956   7.038   3.855 -0.0730 -0.3992  0.0697
15654W        W31463   8.001   7.856   5.594  0.1216 -0.1401 -0.1032
15655W        W31464   2.913  13.528  10.196 -0.1812  0.2877  0.0420
15656W        W31465  16.600   1.710   0.642 -0.1569  0.0481  0.1865
15657W        W31466   0.035   6.922   1.687  0.0557 -0.0212 -0.1877
15658W        W31467   2.706   6.863  14.414 -0.1379  0.2053  0.1127
15659W        W31468   6.224  17.613  11.792 -0.0155  0.1500  0.1080
15660W        W31469   2.518  14.828  12.873  0.3250  0.3305 -0.1666
15661W        W31470   1.655   7.050   3.726  0.1954  0.0506  0.3002
15662W        W31471  17.702  11.598   0.768  0.0004  0.0251  0.1831
15663W        W31472   6.594  17.855  12.832  0.0606  0.2515  0.0076
15664W        W31473   9.605  11.636  13.534  0.1821  0.0972 -0.1383
15665W        W31474  12.851  11.998  13.353 -0.3082  0.1071 -0.0635
15666W        W31475  17.729  14.078   4.595 -0.2142  0.1764 -0.1134
15667W        W31476   4.224  12.061   4.838  0.1422 -0.0763  0.1122
15668W        W31477  11.730  17.268  13.877  0.0487  0.0006  0.0602
15669W        W31478  17.950   7.312  12.236  0.2325 -0.2741  0.1169
15670W        W31479   9.533   4.449   4.433 -0.0589  0.0048  0.0341
15671W        W31480  14.513  15.104  14.206 -0.1140 -0.2595 -0.0229
15672W        W31481  10.130   7.557   2.895  0.0955  0.1460  0.3210
15673W        W31482  14.317  14.591   3.247 -0.0961 -0.4004  0.0185
15674W        W31483   9.024   1.325  14.245  0.2083 -0.2193 -0.1001
15675W        W31484   6.748  13.360   2.427 -0.0884  0.1283 -0.0265
15676W        W31485   7.136   2.630  11.941 -0.1127 -0.0633  0.0191
15677W        W31486  18.497   7.311  10.617 -0.0731  0.0326  0.0430
15678W        W31487   0.354   8.529  12.108 -0.2727 -0.1860  0.1755
15679W        W31488  12.295   0.439   4.984 -0.1088 -0.0389  0.0711
15680W        W31489  10.890   9.846  13.462 -0.0219 -0.0239 -0.1501
15681W        W31490   6.417   5.180  11.705 -0.1257  0.0701 -0.3504
15682W        W31491   1.795  10.558  13.680 -0.1485 -0.0463 -0.2708
15683W        W31492  18.244   4.091  14.519  0.0667 -0.0809  0.0286
15684W        W31493  10.035  16.718  12.690  0.3493  0.0662  0.3037
15685W        W31494  13.681  10.274   9.743  0.4975  0.3570 -0.3184
15686W        W31495   5.559  17.012  12.957  0.0121 -0.3285 -0.1222
15687W        W31496  18.119   3.104  13.493 -0.3445  0.2890  0.0656
15688W        W31497  17.289  17.630  11.167  0.0129  0.2252 -0.1463
15689W        W31498  15.992  17.115   3.314 -0.1500  0.0816 -0.2422
15690W        W31499   1.140   8.617  10.802 -0.0713  0.3017  0.4260
15691W        W31500   1.314  10.866  13.035 -0.0232  0.1322  0.0253
15692W        W31501   3.279   5.161  11.993  0.1751 -0.1538  0.1058
15693W        W31502  13.600  16.758   0.255 -0.0207  0.0676 -0.0240
15694W        W31503  16.926   1.527  11.051  0.5761 -0.1189 -0.2033
15695W        W31504   5.685  11.358  13.879 -0.0541  0.1319  0.2549
15696W        W31505   6.215   6.396   2.593 -0.0439 -0.1212 -0.1187
15697W        W31506  15.973   1.540   4.666 -0.0175 -0.2836  0.0721
15698W        W31507  16.790   9.487  11.416 -0.2780  0.0167  0.1019
15699W        W31508  13.548  18.711  12.354 -0.0508  0.1012 -0.1570
15700W        W31509   8.018  11.185  12.880 -0.0006 -0.4405  0.2663
15701W        W31510   8.925  16.575  15.073 -0.2924  0.1199 -0.1683
15702W        W31511  10.752   3.160  13.675 -0.0188 -0.4413  0.1192
15703W        W31512   6.286  16.306  10.738 -0.1121 -0.4027  0.0489
15704W        W31513  13.357   7.733  13.308 -0.0230  0.0284  0.1448
15705W        W31514   7.392  18.274  11.627  0.2025 -0.0960 -0.0152
15706W        W31515  18.780   7.865  15.023 -0.0665 -0.0132 -0.2279
15707W        W31516  15.396  10.846   1.955 -0.1160 -0.3942 -0.2256
15708W        W31517   4.029  10.617   1.523 -0.0912  0.2668 -0.1056
15709W        W31518   4.097   1.184  11.919  0.1454 -0.4134  0.0132
15710W        W31519  10.422   5.439  13.422 -0.0606  0.0237  0.2437
15711W        W31520   5.150   5.861   2.651  0.1839 -0.3776  0.4378
15712W        W31521   0.092  13.995   4.870 -0.1095 -0.0231 -0.4550
15713W        W31522   6.537   7.337   0.704  0.0006 -0.2850 -0.0173
15714W        W31523   9.057   9.690   3.056 -0.0074  0.0351 -0.1408
15715W        W31524  10.213   0.392  10.791 -0.1248 -0.3613 -0.3455
15716W        W31525  15.501  15.214   3.833 -0.1807 -0.0242 -0.0745
15717W        W31526  12.394   1.353  13.444  0.1431 -0.1250  0.0191
15718W        W31527  10.046  11.226   4.738  0.0707  0.2383  0.0751
15719W        W31528  10.379   2.277   3.251  0.2616  0.1763  0.1340
15720W        W31529   7.336   2.561  10.655  0.2366  0.1465  0.1601
15721W        W31530  16.711  15.060  15.551 -0.2296 -0.2941 -0.1326
15722W        W31531  13.096   8.240  11.538  0.2249  0.2200  0.2257
15723W        W31532   9.315  18.223  13.035  0.0793 -0.4146 -0.0771
15724W        W31533   2.242  17.969  12.327  0.1293  0.1941  0.0532
15725W        W31534  11.742  17.913  11.234  0.1458  0.3452  0.1378
15726W        W31535  16.286  16.381  15.024  0.0117  0.4203 -0.3285
15727W        W31536   9.835   6.530  15.070 -0.1273 -0.0363 -0.0920
15728W        W31537  17.388  16.335   0.307  0.3144  0.1347 -0.2270
15729W        W31538   3.310   0.989  14.521  0.1143 -0.1249  0.0311
15730W        W31539  13.253   0.732   5.111 -0.2070 -0.0434 -0.0152
15731W        W31540  18.375   3.570  15.390  0.3126 -0.3263  0.3392
15732W        W31541   7.482   0.012   4.285 -0.0055 -0.2206 -0.2014
15733W        W31542   6.297   7.157   3.425  0.1286  0.0218  0.0727
15734W        W31543  13.243   0.828  13.244  0.4620  0.0779 -0.0317
15735W        W31544   8.891  11.024   2.572  0.1105 -0.0058  0.0152
15736W        W31545  16.183   1.558  12.032 -0.0478  0.4631  0.1023
15737W        W31546   5.002   2.747   0.237 -0.4743 -0.3979 -0.2961
15738W        W31547   5.951  10.296  12.428 -0.3089  0.1916  0.1659
15739W        W31548  11.808   3.309   2.478 -0.1456  0.0153 -0.2428
15740W        W31549  16.162  16.072   1.191  0.0930  0.1044  0.1921
15741W        W31550   9.944  13.499   0.874  0.1363 -0.0756 -0.2827
15742W        W31551   3.806  13.952  11.718  0.2034 -0.1321 -0.1131
15743W        W31552   4.443   6.475   0.714  0.0533  0.0834 -0.1062
15744W        W31553  17.862   7.241  15.553  0.1764  0.0416  0.1868
15745W        W31554  10.868   7.703  13.929  0.1066 -0.3064 -0.0164
15746W        W31555  11.682  13.724   4.944  0.2296 -0.3396  0.1634
15747W        W31556  14.924  14.331   3.967  0.2314 -0.0528  0.0607
15748W        W31557   5.579  14.265  11.259  0.1844 -0.2864  0.1170
15749W        W31558   9.388  10.469   4.261  0.2062 -0.3565 -0.0831
15750W        W31559  17.648  14.206  12.221  0.0366 -0.3213  0.1268
15751W        W31560  18.554   1.925  14.331  0.2500  0.0927  0.4414
15752W        W31561  17.401  18.003   2.606  0.0077  0.0140  0.0424
15753W        W31562   1.753   6.284   2.018 -0.1287 -0.1389 -0.0719
15754W        W31563   4.065  13.060   3.048  0.2209 -0.0332 -0.0614
15755W        W31564   3.643  11.522   2.051 -0.2618  0.0347  0.0287
15756W        W31565   8.664   9.713  11.996 -0.2681 -0.1016  0.1740
15757W        W31566  11.763   5.224  14.465 -0.1798  0.0824 -0.1483
15758W        W31567   0.199   2.217   4.749 -0.2097 -0.2950 -0.0020
15759W        W31568  15.505   9.676   4.163 -0.0644  0.1922  0.0332
15760W        W31569   4.920   3.995  13.968  0.0622 -0.1091  0.3344
15761W        W31570  12.854   5.703  11.567  0.1870  0.0466 -0.0148
15762W        W31571  18.685   9.621  14.710 -0.1811 -0.3447 -0.1266
15763W        W31572   1.755  10.111  15.147  0.4565  0.1921  0.0729
15764W        W31573   8.111  14.582  15.035 -0.2339  0.0961 -0.2901
15765W        W31574  18.120   0.697   3.946  0.1944 -0.0759 -0.1152
15766W        W31575   8.755  16.318   9.775  0.0024 -0.1886 -0.1136
15767W        W31576   2.922   7.351  14.352  0.0300 -0.0664 -0.1819
15768W        W31577  10.552  14.324  11.580 -0.1170 -0.1176 -0.0203
15769W        W31578  10.202  17.719   3.788 -0.3369  0.0316 -0.3160
15770W        W31579  11.407  16.911  13.247  0.0271 -0.0046 -0.1317
15771W        W31580  14.949  12.458   2.520 -0.1545 -0.2704 -0.2624
15772W        W31581  10.039   2.152   0.639  0.2802  0.0926  0.0699
15773W        W31582   9.662   5.826  10.067 -0.0196  0.1244  0.2471
15774W        W31583  11.992  18.127  12.928 -0.3269 -0.0260  0.0050
15775W        W31584   7.729   6.239  11.023 -0.2228 -0.0409 -0.0556
15776W        W31585  15.286  11.025  10.880 -0.0937  0.0410 -0.1864
15777W        W31586   8.932   1.875  10.773  0.2385 -0.1471  0.1906
15778W        W31587  15.710  15.951  15.465 -0.1110 -0.2414  0.2202
15779W        W31588   8.842   5.221   0.793  0.2183 -0.1561  0.2016
15780W        W31589  16.850   2.007  12.250  0.0703 -0.1456  0.0160
15781W        W31590  15.184   6.403  14.756  0.1352 -0.0419  0.2230
15782W        W31591   8.514   0.635   0.323  0.0818  0.1169  0.1497
15783W        W31592  18.069   3.984   2.194 -0.0586  0.0632 -0.2339
15784W        W31593  12.800  13.373  12.190  0.1006  0.0060 -0.0341
15785W        W31594  13.672   5.664  11.734  0.0113 -0.0045 -0.1129
15786W        W31595   7.857  11.901   0.049  0.0097 -0.0425  0.2303
15787W        W31596  15.317  16.002   0.225 -0.0974 -0.1618  0.0715
15788W        W31597  17.010   2.303   5.039 -0.1206 -0.2021  0.0991
15789W        W31598  13.977   4.794  11.318 -0.0932 -0.1825 -0.1560
15790W        W31599  16.794   1.813  11.457  0.0933  0.1608  0.1218
15791W        W31600   1.268   9.674   9.242 -0.1753 -0.1716 -0.3437
15792W        W31601   7.832  11.186  11.753 -0.1490 -0.4111  0.2136
15793W        W31602  12.750   2.126   2.719 -0.0813  0.2686 -0.0850
15794W        W31603  13.592   4.628   2.169  0.2287  0.1398  0.1766
15795W        W31604  15.921  12.748   2.216  0.1408 -0.1325 -0.2034
15796W        W31605  16.720   2.224   2.468  0.3917 -0.1329  0.0537
15797W        W31606   7.788  16.825  13.328 -0.1867  0.0858  0.2087
15798W        W31607  11.243  14.655   0.400 -0.0278  0.1952 -0.0316
15799W        W31608   8.633  14.576   2.943  0.4392 -0.0657 -0.2529
15800W        W31609   4.720  10.433  15.359 -0.0344 -0.1338  0.0139
15801W        W31610  13.540   6.442  12.034  0.1596 -0.2002 -0.2465
15802W        W31611   6.377   3.528   4.189 -0.0315  0.1151 -0.1620
15803W        W31612   1.159  15.278   0.478 -0.1556  0.0625  0.0815
15804W        W31613  10.269   5.678   3.827  0.0873 -0.2379  0.1213
15805W        W31614  10.544   2.487   0.429  0.5629 -0.0662 -0.1007
15806W        W31615  13.061   1.806   2.963  0.0436 -0.0192 -0.0108
15807W        W31616   6.247  11.147   2.439  0.2588  0.0951  0.1498
15808W        W31617  11.115   7.042  11.483 -0.0419 -0.0529  0.0130
15809W        W31618  17.112  16.066   5.603  0.1477 -0.1055  0.0747
15810W        W31619  15.194   9.617  12.106 -0.0827 -0.0987 -0.1639
15811W        W31620   1.143  16.640   4.207 -0.0352  0.1369  0.1122
15812W        W31621  10.287   6.722  15.517  0.1028 -0.1489  0.0144
15813W        W31622   5.711  16.339   4.087  0.0853  0.0981 -0.0552
15814W        W31623  13.610  11.322  14.094  0.1256  0.0465  0.0500
15815W        W31624   0.018   5.013   0.078 -0.2410 -0.0669  0.3084
15816W        W31625  12.110   1.284  11.061  0.2317 -0.0810 -0.0173
15817W        W31626  12.365  18.039   0.396 -0.1578  0.0586  0.1711
15818W        W31627   6.211   9.130   2.832 -0.1125  0.0013  0.1734
15819W        W31628   8.507  16.894  12.209  0.0274 -0.2968  0.0133
15820W        W31629   9.123   2.716  14.589 -0.2306  0.0103 -0.2451
15821W        W31630  18.033  17.798   3.357  0.0927 -0.0459 -0.2973
15822W        W31631  17.736   7.568  10.258  0.0496 -0.0304  0.3833
15823W        W31632   9.880   9.036  12.959  0.0502 -0.1668  0.3802
15824W        W31633  16.385  10.289   0.538  0.3591 -0.1034  0.2320
15825W        W31634   4.296  15.458  15.411  0.1356  0.2021 -0.0586
15826W        W31635   0.091   4.213  11.379  0.0167 -0.0739  0.0309
15827W        W31636  18.403  18.741   9.976  0.1014  0.2002  0.1017
15828W        W31637   2.035  14.089   0.286 -0.2079  0.2242  0.0536
15829W        W31638   7.763  12.755  15.105 -0.1241  0.1378 -0.2197
15830W        W31639  16.830  17.156  11.050  0.5319 -0.1754  0.0949
15831W        W31640  15.598  11.584  12.024 -0.1380  0.1281  0.0940
15832W        W31641   1.566   9.881   5.810  0.0999 -0.1400  0.2748
15833W        W31642   7.234  12.547   3.987 -0.0191  0.2779 -0.1570
15834W        W31643   8.445  12.640  13.905 -0.0932  0.0184 -0.2133
15835W        W31644   9.150   3.554  12.112 -0.0983 -0.0487 -0.0008
15836W        W31645   3.296   7.541  14.589  0.0983 -0.0224  0.0717
15837W        W31646  16.928  13.433   2.185 -0.3922 -0.2477 -0.1455
15838W        W31647  12.405  15.797   5.929  0.0283 -0.4050  0.2332
15839W        W31648   6.531   3.740   2.709  0.1022  0.2195 -0.1434
15840W        W31649  15.866   9.716  14.608  0.2575 -0.1079 -0.1528
15841W        W31650   6.713   7.586  13.164  0.3383 -0.2759  0.2894
15842W        W31651   7.544   4.409  12.820  0.0724  0.0909  0.0666
15843W        W31652  10.548   4.327   1.049 -0.3057  0.2142  0.1000
15844W        W31653   4.417   4.509   4.621 -0.1498 -0.2280  0.1504
15845W        W31654   4.967   2.598  10.733  0.1714 -0.1380 -0.0196
15846W        W31655  15.778   1.909  11.922 -0.0183  0.2216  0.1431
15847W        W31656   6.271   7.298  15.157 -0.0584 -0.0757  0.0257
15848W        W31657   2.681  10.554   2.263  0.0376 -0.1641 -0.0849
15849W        W31658   7.058   6.751  13.686  0.3317  0.1933  0.1200
15850W        W31659   3.409   2.571  15.124 -0.0624  0.1493  0.0269
15851W        W31660  12.990  15.477  14.730 -0.1132  0.2163 -0.0880
15852W        W31661  16.116   6.426  10.788  0.3454 -0.4801  0.2025
15853W        W31662   0.185  12.814  12.793  0.0734  0.0170  0.0552
15854W        W31663   3.117  15.179   3.529  0.1345  0.2537  0.1513
15855W        W31664  18.262  17.390   5.238 -0.0764 -0.1314  0.4877
15856W        W31665  14.290  18.527   2.444  0.2565  0.0329 -0.0125
15857W        W31666   7.916  13.174   0.471  0.1447  0.0397  0.1844
15858W        W31667   1.683  11.473   4.467  0.0232 -0.2370  0.2966
15859W        W31668  18.244   3.352   1.580  0.0567 -0.3931 -0.1276
15860W        W31669  17.999   9.075  12.305 -0.2470  0.4466  0.1088
15861W        W31670   0.128   0.297  14.773  0.1375  0.1265  0.0860
15862W        W31671   2.290  14.438  13.175 -0.2485 -0.0620  0.2947
15863W        W31672   1.006  17.252  15.505  0.1637  0.1662 -0.0448
15864W        W31673   2.174  16.380   3.411 -0.4020 -0.1583 -0.0484
15865W        W31674  10.778  18.492  14.158 -0.1424 -0.1780 -0.1029
15866W        W31675   3.879  13.810   2.675 -0.0865  0.1309 -0.2133
15867W        W31676   5.235   6.436  13.392  0.1788 -0.0148  0.1834
15868W        W31677   7.386  10.851  15.334 -0.1427  0.2180  0.0377
15869W        W31678  11.071  17.695  14.728 -0.0053  0.4553 -0.1144
15870W        W31679   6.441   8.861   1.150  0.1536 -0.3849 -0.2934
15871W        W31680  14.533   5.319  11.954 -0.1756  0.0968  0.1432
15872W        W31681  16.916   1.793   2.228  0.0581  0.3326  0.0061
15873W        W31682   1.601   0.433   0.090  0.0010 -0.0460  0.0718
15874W        W31683  10.392  12.026   0.382  0.1531  0.2413  0.0833
15875W        W31684  18.282   0.678  10.715 -0.1210  0.0319 -0.1782
15876W        W31685   0.182  11.376  15.549  0.1243 -0.1247  0.0258
15877W        W31686  18.235  17.872   0.530 -0.0028  0.3057  0.1331
15878W        W31687   5.314   9.888  15.116 -0.2074 -0.1795 -0.0611
15879W        W31688   3.698   4.354   5.023  0.0043  0.1342  0.0273
15880W        W31689   3.805  12.709  12.171  0.0343 -0.3202  0.0768
15881W        W31690  18.192  15.954   4.193 -0.0133 -0.0260  0.0785
15882W        W31691  17.440   7.355   3.662 -0.4155 -0.0526 -0.5569
15883W        W31692  12.673  10.528   0.331  0.0988  0.1250 -0.2259
15884W        W31693   7.732   5.247   5.502 -0.3474  0.4303 -0.0859
15885W        W31694   2.594  15.946   1.421 -0.3301  0.0187 -0.0217
15886W        W31695  13.480   5.118  10.338  0.0327 -0.0314 -0.1068
15887W        W31696  14.356  11.668   2.653  0.0735  0.1306  0.2563
15888W        W31697   9.877  16.905   3.913 -0.3982 -0.2192 -0.0499
15889W        W31698   7.319  15.698   0.273  0.0738  0.2204  0.0537
15890W        W31699  12.777  11.845  14.862 -0.0566  0.0849 -0.2779
15891W        W31700   6.420   9.677  13.626  0.0406  0.0884  0.1556
15892W        W31701   2.412   6.397  11.005 -0.1768 -0.0675  0.3885
15893W        W31702   8.806  12.536   3.647  0.1068  0.0933  0.0818
15894W        W31703   6.151   7.506  13.303  0.0177  0.0005 -0.0585
15895W        W31704   6.978  11.500   1.815 -0.3343  0.1343  0.2606
15896W        W31705  14.576  13.211   2.738  0.0711  0.2607 -0.3182
15897W        W31706  11.240   4.700  13.510 -0.0341  0.1015  0.1987
15898W        W31707   7.976  18.648  15.088  0.0321  0.1074 -0.0317
15899W        W31708   3.201   6.817   1.617  0.0564  0.0361 -0.3283
15900W        W31709  12.828  15.715  14.300  0.0809 -0.2366 -0.0115
15901W        W31710   9.781  16.106   2.904 -0.0714  0.0363 -0.0362
15902W        W31711  17.521  15.415  11.439  0.0791  0.0334 -0.0374
15903W        W31712  11.242   1.019  12.890 -0.1964  0.2253 -0.0374
15904W        W31713   6.843  11.640  11.694  0.0023 -0.0512  0.1622
15905W        W31714  17.687   5.738  12.074 -0.2471 -0.0427 -0.0907
15906W        W31715   9.134  10.892  13.919 -0.0022  0.2937 -0.2070
15907W        W31716  15.247  11.138  15.116 -0.0567  0.1502  0.2083
15908W        W31717   9.708   4.672   0.519  0.0476  0.0411 -0.0057
15909W        W31718  18.141  13.983  13.485  0.0759  0.1141  0.1315
15910W        W31719  14.263  11.499  14.679 -0.2881 -0.3877 -0.0087
15911W        W31720   1.288  12.294   0.341 -0.1356 -0.1087 -0.0978
15912W        W31721   9.572   8.863   0.455  0.1203  0.0176  0.1027
15913W        W31722  17.550   3.407   1.433 -0.0273  0.1334 -0.3899
15914W        W31723   8.542   3.694  11.299 -0.2558 -0.0991 -0.0057
15915W        W31724   0.559   3.836   4.651  0.0709 -0.1791 -0.3003
15916W        W31725  11.491   2.982  14.497  0.1089  0.2665 -0.2080
15917W        W31726  15.938   1.058   4.589  0.1977 -0.1847 -0.1017
15918W        W31727  14.693  10.008   1.652 -0.0242  0.6377 -0.0074
15919W        W31728  13.499   7.867   1.465  0.2536  0.2552  0.1795
15920W        W31729   7.126  10.739   2.336  0.0862  0.1693  0.0062
15921W        W31730  12.877   6.643   3.901 -0.3342  0.1621 -0.1936
15922W        W31731   0.603   2.553  12.829 -0.0910 -0.0608 -0.0202
15923W        W31732  16.158   8.820  13.595 -0.1518  0.3449 -0.0042
15924W        W31733   2.154  11.702  11.446 -0.0672 -0.2264 -0.0637
15925W        W31734   5.786   6.006  12.402  0.2326 -0.2994  0.0349
15926W        W31735  17.893   3.594   1.848 -0.1467 -0.0625  0.3952
15927W        W31736  12.036   6.882   3.189 -0.0248 -0.0411  0.0474
15928W        W31737   2.050  16.740  11.553 -0.1926 -0.0639 -0.3927
15929W        W31738   4.670   0.711   0.758 -0.0028 -0.2303 -0.2770
15930W        W31739   7.780  15.183   5.190 -0.3238  0.1470  0.3097
15931W        W31740  12.172   7.381   0.248 -0.1633 -0.2464  0.0292
15932W        W31741  16.439  16.163  11.918 -0.0051 -0.3042  0.1291
15933W        W31742   8.659  18.300   4.966 -0.3036 -0.0263  0.1909
15934W        W31743  18.493   4.227  14.946  0.1320  0.2092 -0.0928
15935W        W31744  10.795  16.832  11.466 -0.0371  0.0586 -0.0483
15936W        W31745   3.068   9.180   1.995 -0.0504 -0.0495  0.3264
15937W        W31746  14.812   7.387  12.675  0.0139 -0.0884  0.3660
15938W        W31747   3.123   9.393  12.683  0.1656  0.0820 -0.1196
15939W        W31748   5.327   7.604   0.072 -0.0040  0.1305  0.2950
15940W        W31749   9.570  15.655  10.047 -0.1173  0.0567 -0.1181
15941W        W31750   7.574   3.754   2.580 -0.1150  0.1552 -0.2774
15942W        W31751   6.000  12.272  14.994 -0.0170  0.0046 -0.1994
15943W        W31752  14.415   6.494  10.746 -0.0301 -0.0680 -0.0744
15944W        W31753   7.419  13.402   4.508  0.3812 -0.1622  0.0470
15945W        W31754   9.281   9.793  13.294 -0.0027 -0.3719  0.2111
15946W        W31755   6.349   9.346  15.345 -0.1262  0.1074  0.0398
15947W        W31756  10.427   3.388  14.424 -0.3927 -0.1673  0.1951
15948W        W31757   7.091   0.652  10.372  0.0541 -0.3163 -0.2047
15949W        W31758   4.179  16.584  10.823  0.1734  0.0316 -0.1442
15950W        W31759  15.639  18.279   2.306  0.0953  0.2450 -0.2513
15951W        W31760  15.312   5.670  12.308 -0.1020 -0.0943  0.0731
15952W        W31761  15.868   7.628  12.721 -0.0967 -0.2093 -0.2089
15953W        W31762   1.330   8.478   1.068 -0.1183  0.2723 -0.2724
15954W        W31763  15.312  15.046   2.116 -0.0794 -0.0157 -0.2024
15955W        W31764  12.254   9.720   1.870  0.1309 -0.1679  0.0334
15956W        W31765  10.768   5.580  13.697  0.0021  0.2263  0.0549
15957W        W31766  12.613   7.922  14.664 -0.1396 -0.0649  0.1009
15958W        W31767  13.869  11.584   4.773 -0.3055 -0.0086 -0.1086
15959W        W31768  16.963   3.987  12.878  0.2990  0.4305  0.0029
15960W        W31769  11.500   8.055  11.448  0.0275 -0.0096 -0.1349
15961W        W31770   6.516  13.171  12.757 -0.1743 -0.0371  0.1149
15962W        W31771   5.884   9.869  12.809  0.0284  0.1084  0.0812
15963W        W31772  14.650  13.548   0.219 -0.0403 -0.0619 -0.0413
15964W        W31773  13.334  14.664   0.276 -0.0603 -0.2293  0.5866
15965W        W31774   5.213  16.331   4.189  0.0080 -0.3367  0.0889
15966W        W31775  11.627   6.931  14.277  0.3647  0.2275  0.2117
15967W        W31776   5.636  15.106   0.104 -0.3648 -0.1025  0.1721
15968W        W31777   8.678   1.293   0.922  0.0978 -0.1986 -0.0624
15969W        W31778   3.002  14.408  13.791  0.2896  0.1976  0.2684
15970W        W31779   1.565  14.036  11.741  0.0758 -0.2416 -0.0549
15971W        W31780   2.317   1.920  11.701  0.0771  0.0558 -0.2200
15972W        W31781   0.310  16.706   0.535 -0.0534 -0.2205 -0.1179
15973W        W31782   6.472  17.672  15.259 -0.0866 -0.4754 -0.3533
15974W        W31783  11.328   7.807  10.731  0.3377 -0.2459  0.1002
15975W        W31784  16.680  11.297   0.713 -0.1191  0.0264  0.1259
15976W        W31785   8.171   2.905   2.894 -0.2025 -0.0792 -0.0107
15977W        W31786   4.875  14.589   3.207  0.1956  0.0396  0.1274
15978W        W31787  18.285  16.377  14.394 -0.2734 -0.1128 -0.2055
15979W        W31788  15.828   6.095   4.744  0.1575 -0.0271 -0.1552
15980W        W31789  15.947   1.468  13.321 -0.0405 -0.0420 -0.0048
15981W        W31790   2.966  10.864   1.457  0.1109  0.1424 -0.2294
15982W        W31791  17.061   5.353   1.199 -0.1546 -0.2230 -0.0821
15983W        W31792  15.936  13.263  13.884  0.1778 -0.1457  0.0168
15984W        W31793   0.613   0.462  12.056  0.2084 -0.1122  0.1793
15985W        W31794  15.547  11.964  14.399  0.0054 -0.1508 -0.0162
15986W        W31795  11.089   4.173   0.717 -0.1366 -0.1276 -0.2268
15987W        W31796  11.728  13.896  14.876  0.0650  0.0272  0.2556
15988W        W31797  17.804   9.884  15.274  0.2240  0.2335 -0.1876
15989W        W31798   7.191   9.993   1.823  0.1054  0.3427 -0.1568
15990W        W31799  14.190   3.413  11.117  0.0263 -0.1775 -0.0810
15991W        W31800   5.170  11.150  10.864  0.2937 -0.0429 -0.4637
15992W        W31801   0.927   4.501  13.156  0.3008  0.0824  0.1224
15993W        W31802   1.934   2.291   2.408 -0.0189 -0.1776 -0.1860
15994W        W31803  15.821  18.630   1.895  0.0602  0.1511  0.0627
15995W        W31804  14.012  14.053   0.343 -0.1977 -0.1915 -0.2711
15996W        W31805  12.570   6.003  13.627  0.1509  0.3396  0.1421
15997W        W31806   5.064   5.602   0.533  0.1672  0.0580 -0.0859
15998W        W31807   1.142   9.446   3.946 -0.0951 -0.2107  0.0245
15999W        W31808   8.872   3.649   2.504 -0.1334  0.3667  0.0542
16000W        W31809   1.965  15.557   4.434  0.3492 -0.1215  0.0441
16001W        W31810   4.402   8.864   4.421 -0.1308 -0.1293  0.1313
16002W        W31811  15.176   4.579   1.919 -0.3792  0.3157  0.1166
16003W        W31812  10.889  18.661   0.688 -0.1240  0.0538 -0.2362
16004W        W31813   3.314   7.975   4.239 -0.0540 -0.1039 -0.0256
16005W        W31814  16.583   3.419   0.691 -0.0412  0.3441 -0.1278
16006W        W31815   5.181  10.558  11.843 -0.0781  0.1152  0.0463
16007W        W31816  16.163   4.262   2.341  0.1984  0.1931 -0.0182
16008W        W31817  14.177  13.195  11.190  0.1146 -0.1336  0.1242
16009W        W31818   7.313   1.731  10.171  0.2654 -0.0330  0.0217
16010W        W31819   2.101   7.089  14.995  0.1614 -0.2492 -0.0638
16011W        W31820  18.456  11.951   2.062 -0.1302  0.0057 -0.0989
16012W        W31821  13.174  15.389   1.445  0.0651  0.0101 -0.3830
16013W        W31822   6.438  11.276   0.606 -0.1705 -0.1493  0.0255
16014W        W31823   4.350   3.990   2.933  0.1281  0.1568  0.1190
16015W        W31824  15.996   3.276  13.069  0.0361 -0.1600  0.0099
16016W        W31825  18.776  13.423  10.450  0.2887 -0.0993  0.2024
16017W        W31826   8.251  16.680  12.549 -0.0081  0.0925  0.0272
16018W        W31827  10.890   5.822   2.181  0.0559  0.0356  0.0357
16019W        W31828  11.530  15.445  15.419  0.1325  0.3588 -0.2190
16020W        W31829   1.584  10.557  11.649  0.0150  0.3639  0.0025
16021W        W31830   3.416   2.231  13.779  0.1278  0.1623 -0.2973
16022W        W31831  16.338  15.191  14.277 -0.0180 -0.0080 -0.1987
16023W        W31832  14.681   1.897  15.297  0.1841 -0.0126 -0.0097
16024W        W31833  16.841  15.251  14.360 -0.0926 -0.2490  0.1346
16025W        W31834   5.851  16.968   1.862 -0.0636  0.3492  0.1177
16026W        W31835   3.350  17.775   3.811 -0.0729  0.3790 -0.0494
16027W        W31836   7.255   8.274   3.335  0.1531  0.2358 -0.0346
16028W        W31837  17.105   6.391   2.126 -0.1242 -0.1956 -0.0139
16029W        W31838   5.303   3.401   4.508  0.1059  0.0364  0.0280
16030W        W31839   0.379  18.133  11.336  0.1024 -0.0405 -0.0125
16031W        W31840   6.595   0.939  15.212 -0.0895 -0.0661  0.0984
16032W        W31841  11.561   9.443  12.298 -0.1615 -0.2741  0.0914
16033W        W31842   3.315   4.561   1.176 -0.0398 -0.1366 -0.0984
16034W        W31843   1.815  12.027  11.377 -0.3534 -0.3608 -0.2516
16035W        W31844  18.552   3.971   2.522  0.0409 -0.1243  0.1912
16036W        W31845   2.751  17.523   2.586 -0.0006 -0.0923  0.2098
16037W        W31846   2.324  14.572   0.440 -0.1302  0.0198  0.1606
16038W        W31847  18.374  16.021   2.880 -0.4706  0.2071 -0.2211
16039W        W31848   4.572   4.718  15.146 -0.2317  0.2053 -0.0808
16040W        W31849  13.084  18.706   0.410  0.2015  0.1259  0.0384
16041W        W31850  12.029  18.289  11.064 -0.1664 -0.2598 -0.0114
16042W        W31851  15.261  11.172  14.217 -0.0918 -0.4045  0.2650
16043W        W31852   2.000   6.116   4.153  0.0376  0.5427 -0.0417
16044W        W31853   3.261   1.184  13.294  0.0058  0.0990  0.1469
16045W        W31854   8.443  12.918   3.606  0.1422  0.1532 -0.4314
16046W        W31855   3.035   4.450   0.108 -0.2278  0.2622 -0.2998
16047W        W31856   2.952   2.503   2.842 -0.0393  0.0308  0.1166
16048W        W31857  18.215  11.959   0.030 -0.2365  0.0539 -0.0367
16049W        W31858  15.779  16.782   5.013  0.1018  0.0155 -0.4372
16050W        W31859  15.054   9.966   2.095 -0.0151  0.3198 -0.2295
16051W        W31860   9.903  16.447  14.233 -0.0015  0.0987 -0.3071
16052W        W31861   1.912  11.430   0.381 -0.1110 -0.3845 -0.2598
16053W        W31862  12.299  14.773   3.052 -0.1316 -0.0958  0.1013
16054W        W31863   1.343  16.946  15.276  0.0708  0.1909  0.2228
16055W        W31864   6.858  10.875   3.800  0.2525 -0.0776 -0.5332
16056W        W31865   6.886   0.279  14.379  0.4160 -0.0031 -0.0953
16057W        W31866  11.266   9.868   4.359  0.0783  0.0557  0.1152
16058W        W31867   9.865   0.922  12.081 -0.3191 -0.1239 -0.2508
16059W        W31868   0.879   9.879   4.159 -0.1888 -0.1452 -0.0765
16060W        W31869   1.070   8.173  12.543  0.0389 -0.1025 -0.0012
16061W        W31870  12.120   9.366  12.156 -0.0967  0.1152 -0.3994
16062W        W31871  10.700  18.265  12.169 -0.0708 -0.0700  0.0322
16063W        W31872   8.747   3.792   6.094 -0.0855  0.2517 -0.0006
16064W        W31873  18.476   3.429  13.622 -0.3642  0.0663 -0.1850
16065W        W31874   5.762   0.650   1.578 -0.4523  0.0798  0.1320
16066W        W31875  18.182   6.661   3.878  0.1448 -0.0262  0.0538
16067W        W31876  10.828  17.725   3.669  0.2213 -0.2330 -0.0863
16068W        W31877  13.399  15.474  15.114 -0.4055 -0.0943 -0.2820
16069W        W31878   7.990   2.658  12.276  0.0425  0.0375 -0.2860
16070W        W31879  16.533   4.938   2.850 -0.0547  0.0470  0.0532
16071W        W31880   7.949  11.493  13.985  0.0460  0.1890 -0.1186
16072W        W31881  11.143  10.231  12.919  0.2364  0.0665 -0.0637
16073W        W31882  10.045   0.547   0.418 -0.2210 -0.1943 -0.2232
16074W        W31883  16.682  11.716   4.826 -0.5223  0.1547 -0.0190
16075W        W31884   9.262   7.518   2.704  0.1898  0.2507 -0.0308
16076W        W31885   4.634   8.608  14.026  0.0174  0.1516  0.1707
16077W        W31886  11.158  11.925  14.046 -0.2066 -0.0498 -0.2561
16078W        W31887   6.875  10.218   5.954 -0.0043  0.2990 -0.0395
16079W        W31888   8.433   8.155  11.795 -0.2103  0.2787 -0.2458
16080W        W31889  15.565   0.954  14.921  0.1582 -0.2180  0.1301
16081W        W31890   0.491   8.366  12.615 -0.2092 -0.0769  0.1018
16082W        W31891   9.528   8.365   3.678 -0.1731  0.2735  0.2367
16083W        W31892  18.489  15.463  14.925  0.1269 -0.1794 -0.0802
16084W        W31893   4.416  15.460  13.612  0.3103  0.2723  0.0870
16085W        W31894   3.056  18.434   1.197 -0.0747 -0.2575 -0.1199
16086W        W31895  14.556   8.046   4.844  0.1170 -0.0769 -0.0504
16087W        W31896   2.223   1.406   1.251 -0.3582  0.4076  0.1025
16088W        W31897   6.301   4.056   2.371  0.0173 -0.0650  0.1543
16089W        W31898  11.462  10.328   5.325 -0.0186 -0.3822  0.5115
16090W        W31899   2.340  10.833   3.256  0.2085 -0.0584  0.0609
16091W        W31900  11.742   4.682   2.554  0.2556 -0.1975 -0.4365
16092W        W31901   7.875  14.028   4.122  0.1719  0.2220  0.0201
16093W        W31902  17.900   5.433  13.103  0.0458  0.1491  0.1956
16094W        W31903  18.507   4.123   2.038 -0.1212 -0.0575 -0.1316
16095W        W31904   4.564  13.100  14.771  0.1102  0.3885  0.0885
16096W        W31905   9.342  15.539   3.384 -0.0681  0.0572  0.0193
16097W        W31906  17.253   5.710  13.660  0.0353  0.0184  0.2727
16098W        W31907   6.888  17.658   2.636 -0.2433  0.4411  0.0393
16099W        W31908   3.607   5.442   0.995 -0.0195  0.1839 -0.1184
16100W        W31909   9.416   4.475  13.830  0.0909 -0.2275 -0.1475
16101W        W31910  16.469   4.508   5.673 -0.1447 -0.0323  0.0489
16102W        W31911  13.243   7.485  12.885 -0.2195  0.0187 -0.0262
16103W        W31912   7.170   5.815   0.712 -0.1773  0.1532 -0.1294
16104W        W31913  11.427  16.527   1.986  0.2028 -0.0037 -0.1708
16105W        W31914   6.304   9.775   2.325 -0.1412 -0.2565 -0.3040
16106W        W31915  18.746  15.802   4.213 -0.0507 -0.0717 -0.2594
16107W        W31916   8.817  15.334   2.545  0.0722 -0.1529 -0.2659
16108W        W31917  18.245  13.096  11.778 -0.4322 -0.1998  0.1026
16109W        W31918  13.965   2.577  15.382 -0.0530  0.1504 -0.2544
16110W        W31919  12.699  16.922   1.721  0.0810  0.2858 -0.5290
16111W        W31920  15.840   1.579  13.759 -0.0353 -0.1033 -0.0606
16112W        W31921   4.026  11.659   2.973 -0.3189 -0.0097 -0.1455
16113W        W31922  15.731  12.335   3.185  0.3511 -0.2608  0.0285
16114W        W31923   7.888   0.711  15.458  0.1225  0.1445  0.2228
16115W        W31924   3.181  14.789  13.236  0.1230  0.3703  0.0211
16116W        W31925  14.505   6.421   4.502  0.0083 -0.0252  0.0168
16117W        W31926  16.135  10.647  12.174  0.1378  0.2522  0.2657
16118W        W31927   8.990   8.545   3.632 -0.4078 -0.0439  0.0455
16119W        W31928   0.459  13.067  12.436  0.3489  0.0903  0.1317
16120W        W31929   0.428  15.155  12.385  0.3155 -0.4118 -0.2540
16121W        W31930  17.542  16.667   2.404 -0.1407  0.5458  0.0036
16122W        W31931  14.357  12.661  15.401 -0.1444  0.2423 -0.1093
16123W        W31932   8.622  15.741   2.940 -0.1183 -0.0370 -0.1062
16124W        W31933   5.855  15.259  13.609 -0.1616  0.0930 -0.0376
16125W        W31934  18.110  17.507   3.823  0.0789 -0.1744 -0.0605
16126W        W31935  14.439  16.403  14.758 -0.0789  0.0171  0.2284
16127W        W31936   0.548  14.273   3.219 -0.1364  0.1207 -0.2466
16128W        W31937  17.152   0.730  12.916 -0.0435  0.1038 -0.0901
16129W        W31938  15.123  10.356   1.755  0.0252  0.1570 -0.1485
16130W        W31939   6.737   9.679   1.153 -0.1710 -0.0931 -0.2645
16131W        W31940  15.885   1.369   2.427 -0.1904  0.0437 -0.1919
16132W        W31941  17.606  16.968  12.557  0.1528 -0.2301  0.0020
16133W        W31942   3.715   7.258  12.166 -0.1400  0.0213 -0.0035
16134W        W31943   9.756  16.672   4.382 -0.2068  0.0389 -0.2541
16135W        W31944   4.917   9.955  12.315  0.0464  0.0709  0.0825
16136W        W31945   9.226   5.582   4.919  0.1353  0.2106 -0.4860
16137W        W31946   3.821  13.078  11.130 -0.2849  0.2691  0.0145
16138W        W31947   1.411  16.444   0.043 -0.1523 -0.1118  0.1832
16139W        W31948   3.247   4.547   0.645  0.3527  0.4591  0.0640
16140W        W31949  13.432  17.002   5.664  0.3603  0.1315  0.0596
16141W        W31950  15.199  10.617  14.660 -0.2401 -0.2066 -0.1110
16142W        W31951   4.419  12.499  13.545 -0.2175 -0.3391 -0.3405
16143W        W31952   2.243   2.299   1.540  0.4669 -0.0277 -0.0888
16144W        W31953   0.173   8.905   0.805  0.0833 -0.2648 -0.0646
16145W        W31954  15.120   6.683  13.752 -0.0684  0.0839  0.0850
16146W        W31955  14.704  16.211   5.799  0.0593 -0.2829 -0.1500
16147W        W31956   1.593  12.665   5.575 -0.1631 -0.1975 -0.1562
16148W        W31957  15.747   0.650  12.745 -0.3382 -0.0190 -0.0492
16149W        W31958  13.079   0.869   5.578 -0.1928  0.0978 -0.0885
16150W        W31959   2.439  16.072   2.650 -0.0785 -0.1432  0.0730
16151W        W31960  11.525  12.262   1.893  0.1640  0.0774  0.1184
16152W        W31961   9.198   9.612  12.788 -0.1849 -0.1505 -0.1115
16153W        W31962  18.155   0.019   0.897 -0.2345  0.0799  0.0667
16154W        W31963   4.357   7.622   1.443  0.1783  0.0081 -0.1950
16155W        W31964   9.460   9.233  15.193  0.1507  0.0541  0.5304
16156W        W31965   3.379   5.735  11.634  0.0597  0.0392 -0.2279
16157W        W31966  14.324   2.472  12.419  0.1379  0.2394 -0.5166
16158W        W31967   5.583   6.356  11.428  0.2401  0.1911 -0.2378
16159W        W31968   2.048   1.327   0.762  0.0820 -0.0881 -0.0741
16160W        W31969  18.588   7.427   3.792  0.1139  0.0110  0.0956
16161W        W31970  17.947  12.844  12.764  0.4451 -0.1404 -0.1881
16162W        W31971  18.288  14.551   3.266 -0.2549  0.1624 -0.0607
16163W        W31972  13.082  16.822   0.049 -0.0534  0.2368  0.0158
16164W        W31973   2.563   8.118  11.616 -0.0833 -0.0414  0.0526
16165W        W31974  16.822   8.293   4.600  0.2263 -0.1854  0.1910
16166W        W31975   5.094   3.064  12.461  0.0265  0.2485 -0.0137
16167W        W31976   8.054  14.673  14.051 -0.2527  0.1452  0.2560
16168W        W31977  14.327   4.092   0.361  0.0628 -0.2480 -0.1162
16169W        W31978  15.685   4.709  11.851 -0.1460  0.3589  0.1739
16170W        W31979  11.768  17.845  14.902 -0.6016 -0.0405 -0.1762
16171W        W31980   9.883   4.239  13.695  0.0546  0.2780  0.3008
16172W        W31981   2.293   1.439  10.948 -0.0404 -0.2975  0.0730
16173W        W31982   5.699   8.963  13.066  0.2320  0.2663  0.0409
16174W        W31983  15.092   9.995  10.846  0.1611 -0.1337  0.2975
16175W        W31984  18.289   3.397  11.497 -0.0488 -0.1190 -0.1818
16176W        W31985  10.292   5.863   5.616 -0.1438  0.2244 -0.2560
16177W        W31986   2.575   8.659   2.926  0.2462 -0.1328 -0.0260
16178W        W31987   3.207  12.512   2.191 -0.2790 -0.1794  0.0077
16179W        W31988  13.991  17.312   3.888  0.2110 -0.0592  0.0322
16180W        W31989   7.387  15.061   0.530 -0.1042 -0.2560  0.1252
16181W        W31990   4.500   0.816  13.968 -0.1829 -0.0920  0.0733
16182W        W31991  15.727  12.892   4.830 -0.0871  0.2488  0.0620
16183W        W31992   8.966  16.570   1.918 -0.0022  0.1006 -0.2107
16184W        W31993  16.841   1.849   2.772 -0.1679 -0.1972 -0.0813
16185W        W31994   1.190   5.979  11.566  0.1282  0.2363 -0.0581
16186W        W31995   0.395   0.605   0.452  0.0492  0.0281 -0.2186
16187W        W31996   5.776   3.210  14.787  0.0139  0.2221  0.0665
16188W        W31997  13.185   6.464   0.714 -0.1102  0.3770  0.0940
16189W        W31998   8.073   5.753  10.848 -0.2351  0.0441  0.1412
16190W        W31999   4.831   9.321  14.484  0.1096  0.0125  0.1861
16191W        W32000   6.862   9.494   3.684  0.0844  0.0092  0.0564
16192W        W32001   5.212  18.616   2.821 -0.0710  0.2601 -0.3589
16193W        W32002   0.430   2.539  14.708 -0.0856 -0.0503 -0.1071
16194W        W32003  10.354   6.042  11.921 -0.1984  0.1757 -0.1853
16195W        W32004  15.812   9.882  14.036 -0.1367 -0.1250  0.1454
16196W        W32005   0.844   3.992   5.702  0.2874 -0.3088  0.2662
16197W        W32006  17.391  16.808   0.478 -0.0585 -0.0818 -0.1806
16198W        W32007  17.327   8.894  11.985  0.1366 -0.0903  0.0956
16199W        W32008  16.522  16.981  11.388 -0.4090  0.0519 -0.0528
16200W        W32009   7.373  15.984  11.520 -0.3322 -0.0930  0.1789
16201W        W32010  12.749  13.952   2.413 -0.2038 -0.2042 -0.0535
16202W        W32011   7.437   4.845   5.676 -0.4696 -0.2629  0.1331
16203W        W32012   6.384  12.433  10.564  0.2505 -0.1313 -0.2080
16204W        W32013  14.360   0.740   3.034 -0.2622 -0.1232  0.0698
16205W        W32014  10.012   5.034   1.385  0.3007  0.2853 -0.0270
16206W        W32015   4.159  16.033   1.192 -0.2588  0.1134  0.1151
16207W        W32016   4.447   6.462  15.259 -0.0994  0.0141  0.0661
16208W        W32017   6.431   9.863   4.138 -0.1340 -0.0986  0.0142
16209W        W32018  15.426   0.480  11.975  0.2200  0.2327  0.0745
16210W        W32019   9.930  10.227  12.898  0.2704  0.4001  0.1451
16211W        W32020   2.080  12.916   1.727 -0.1186 -0.1693  0.0856
16212W        W32021   5.048  18.115   4.924 -0.1901 -0.0840  0.0316
16213W        W32022   1.904   5.108   3.988  0.3770 -0.1494 -0.1272
16214W        W32023  17.376  14.181   3.005 -0.0127  0.0746  0.0548
16215W        W32024  17.146  17.899   3.345 -0.0275  0.2040  0.1057
16216W        W32025   3.250   6.971   9.617  0.0752 -0.1078  0.0592
16217W        W32026  15.956   9.080   2.944 -0.1460  0.2208 -0.0341
16218W        W32027  17.700   8.986  14.734  0.0033 -0.1064  0.3748
16219W        W32028   6.867  12.275   9.451 -0.3018 -0.2477 -0.0555
16220W        W32029  15.705   3.357   3.488 -0.0358  0.0321 -0.2735
16221W        W32030   1.399  17.094  14.151  0.1156  0.0432  0.1064
16222W        W32031   3.137  17.898  15.461  0.0637  0.2585 -0.3028
16223W        W32032  11.107   7.251   3.065  0.3395 -0.0936  0.1878
16224W        W32033   7.686   1.149   0.123  0.0831  0.0170 -0.3574
16225W        W32034   7.273  17.515   0.391  0.3667  0.1368 -0.0623
16226W        W32035  10.033   5.212   0.149  0.2157  0.1172 -0.2946
16227W        W32036  15.801  16.155   4.442 -0.1025  0.0266  0.0652
16228W        W32037   0.243  16.946   1.334  0.3459  0.0383  0.2265
16229W        W32038  10.936   2.950  10.576 -0.3504 -0.1872 -0.1326
16230W        W32039   9.572   5.036  13.252  0.0228 -0.0163 -0.0592
16231W        W32040  15.587  16.983  11.780  0.0700 -0.0737  0.2265
16232W        W32041   5.781   9.279   5.279 -0.0198  0.2893 -0.2713
16233W        W32042  10.830  11.237  12.547 -0.1192 -0.3190 -0.2640
16234W        W32043  17.407  17.954   1.630  0.0521  0.2313 -0.0903
16235W        W32044  12.628   6.323   0.652  0.2714 -0.1969 -0.1095
16236W        W32045  17.218   5.155  14.617  0.0392 -0.0944  0.0151
16237W        W32046   4.141   7.103   1.483  0.1340  0.0749  0.1646
16238W        W32047   5.398  15.135   2.679  0.0772  0.4055  0.1236
16239W        W32048  13.502   2.425   1.709  0.1670  0.0582  0.0378
16240W        W32049   0.051  14.638  14.164  0.1607 -0.0885 -0.0126
16241W        W32050  17.792   1.518   3.413 -0.3148 -0.1392  0.2174
16242W        W32051   4.137  12.158   3.215  0.1467 -0.0276 -0.1623
16243W        W32052   9.035  18.136  12.225 -0.1970 -0.5171 -0.0833
16244W        W32053   2.994  15.869   4.536 -0.2646 -0.2853 -0.3240
16245W        W32054   7.463   0.354  14.475 -0.2556  0.0775  0.1550
16246W        W32055  16.974  13.367   0.571 -0.0732  0.3120  0.1820
16247W        W32056  15.545  16.897   0.369  0.0031  0.2811  0.0101
16248W        W32057   0.542   8.675   2.979 -0.0776  0.0365 -0.1811
16249W        W32058  13.523   3.914  15.373  0.0846 -0.2206  0.3861
16250W        W32059  12.543   8.228  13.378 -0.1634  0.2051 -0.2991
16251W        W32060   9.838   2.094  15.403 -0.1541 -0.1206  0.0287
16252W        W32061  12.500   6.347   5.797  0.1518 -0.0087 -0.1898
16253W        W32062   0.509   3.691  15.154  0.1518 -0.0762  0.0317
16254W        W32063  15.516   2.929  13.018 -0.0192  0.2143  0.0272
16255W        W32064  12.152  11.297   3.191 -0.0155  0.1803 -0.1560
16256W        W32065  18.129  10.748   3.401 -0.0401 -0.0443 -0.1643
16257W        W32066   5.327  13.685  11.840 -0.0783 -0.0514  0.0218
16258W        W32067   5.723  15.582   5.366  0.3566 -0.1054  0.2737
16259W        W32068  11.815  17.562  14.272 -0.0418 -0.0433 -0.0119
16260W        W32069   2.044  17.200   1.472  0.3824 -0.0816  0.1349
16261W        W32070  15.607  12.841  12.812 -0.2954 -0.0170 -0.0491
16262W        W32071   7.988   4.087  12.880  0.0018  0.0746  0.1217
16263W        W32072  12.763   9.792  11.437  0.0948 -0.1932 -0.2325
16264W        W32073   6.743   0.778   5.756 -0.1219 -0.1876  0.2292
16265W        W32074  15.899  13.335   0.410  0.0867  0.0752 -0.0425
16266W        W32075   3.950  17.271   3.159 -0.1053  0.2858  0.2963
16267W        W32076  12.651   5.972  14.751  0.0889 -0.3918 -0.0829
16268W        W32077  14.044   9.222   3.386 -0.1425  0.0731 -0.2231
16269W        W32078   4.870  13.644   0.958 -0.2294  0.0095 -0.4603
16270W        W32079  14.734  10.146  15.315  0.1402 -0.0640 -0.3808
16271W        W32080  15.424   9.456  15.540  0.1371  0.0222 -0.0930
16272W        W32081   4.121   9.390   5.985  0.0132  0.0731 -0.4059
16273W        W32082   2.104   8.317   3.609 -0.3053  0.0576 -0.3817
16274W        W32083   1.775   1.953  14.153  0.0359 -0.1840  0.1197
16275W        W32084  12.685  12.913  11.566  0.0137  0.0513 -0.2205
16276W        W32085  15.915   4.266   1.883 -0.0628  0.1357 -0.0854
16277W        W32086   9.433   3.680   1.526 -0.0665 -0.4110 -0.0024
16278W        W32087   7.011   7.707  13.556  0.5276  0.0410 -0.0266
16279W        W32088   7.848   3.527   2.215  0.4217  0.2492 -0.1114
16280W        W32089  18.515  15.105   3.849  0.0434 -0.0405  0.2524
16281W        W32090  12.843   2.422  14.321  0.0351 -0.0619 -0.1673
16282W        W32091   2.003   4.367  14.604 -0.2692  0.0076 -0.0309
16283W        W32092  13.101  18.386   0.874 -0.0408  0.0279  0.3814
16284W        W32093  11.950   4.900  12.059 -0.2748 -0.1847  0.2176
16285W        W32094   3.821   3.674  12.322 -0.2410 -0.0791  0.0249
16286W        W32095   7.302  12.750   5.010 -0.2460  0.5081 -0.2932
16287W        W32096   7.884  10.785  12.517  0.2786  0.2252  0.1516
16288W        W32097  18.192   6.634  14.881  0.1135 -0.1464  0.3801
16289W        W32098  11.199  17.191   3.175  0.0356 -0.0195 -0.1775
16290W        W32099  12.018  10.786   0.881  0.2616  0.1796  0.2271
16291W        W32100  16.147   6.911  11.493 -0.0698  0.2199 -0.0659
16292W        W32101   7.910   3.238   3.186  0.2325 -0.0366  0.0713
16293W        W32102   5.620  11.325   1.833  0.5351  0.2375  0.1140
16294W        W32103  18.455  10.315  10.752  0.1069  0.0029 -0.2188
16295W        W32104   3.679  14.289   2.805 -0.1660 -0.1105  0.0286
16296W        W32105   1.599   3.499   3.739 -0.0159  0.2148  0.0448
16297W        W32106   7.782  14.271  15.241 -0.0651 -0.0038 -0.0434
16298W        W32107   1.035   4.594  13.634 -0.0647 -0.2089  0.0008
16299W        W32108   0.876   0.107  10.677  0.2997  0.1163  0.1747
16300W        W32109   6.829  15.497  11.043  0.3191  0.2275 -0.1176
16301W        W32110   8.679   6.738  14.736  0.1385  0.1206  0.2604
16302W        W32111   6.644   7.026  15.001  0.0267 -0.3367 -0.0767
16303W        W32112   3.350  15.350  11.447 -0.3006 -0.0980  0.0877
16304W        W32113  11.682  15.430  13.951  0.1746 -0.2949  0.0377
16305W        W32114  11.107   0.762  12.433  0.1952 -0.2122 -0.1531
16306W        W32115   2.625   3.469   4.389  0.0808  0.0334  0.2405
16307W        W32116   1.344   5.442  10.688 -0.2160  0.0600 -0.1721
16308W        W32117   2.426  12.170   1.844 -0.3615 -0.2551 -0.0439
16309W        W32118  12.635   1.267  12.580  0.0849  0.2122  0.0165
16310W        W32119  11.622   5.279  15.422  0.0391  0.2032 -0.1524
16311W        W32120   9.574   6.720  10.757 -0.5555  0.2516  0.0669
16312W        W32121  14.190  10.178  13.594  0.0901 -0.0976  0.2667
16313W        W32122   3.556  10.472  10.166 -0.1624  0.1139 -0.2613
16314W        W32123  16.055   7.506  14.476 -0.1039  0.0018  0.0959
16315W        W32124   7.554  10.470   4.138 -0.0382 -0.0469  0.0287
16316W        W32125   5.178  11.384   1.298 -0.0469  0.3125 -0.1069
16317W        W32126   1.087   8.146  10.513  0.1196  0.2819 -0.0060
16318W        W32127   8.125   3.585   1.128 -0.0773  0.1687  0.2695
16319W        W32128   1.748   2.622  14.955  0.4700  0.2513  0.3561
16320W        W32129   6.401  16.750   1.027  0.0977  0.0455 -0.0656
16321W        W32130  12.293  11.315   4.632 -0.0214  0.1096 -0.0457
16322W        W32131  13.148  14.403   1.751 -0.0124 -0.1036  0.0585
16323W        W32132   2.768   9.977   4.268  0.1202 -0.1155  0.0651
16324W        W32133  11.372   7.439   1.177 -0.0034 -0.0589 -0.3071
16325W        W32134  11.731   4.173  14.685 -0.0948  0.2304  0.0312
16326W        W32135  12.137  18.658   3.718 -0.2772  0.0562 -0.0400
16327W        W32136  14.017  16.984  12.165 -0.2675  0.3469  0.3879
16328W        W32137  15.400   1.556  14.137 -0.1559 -0.1343 -0.4818
16329W        W32138  11.878   4.625   5.473  0.1928  0.1583 -0.0378
16330W        W32139   0.704   9.787   4.651 -0.2037 -0.0971  0.1151
16331W        W32140  18.161   7.986  11.071  0.0593 -0.2389 -0.1530
16332W        W32141   4.003  17.639   2.028  0.0225 -0.0342  0.0313
16333W        W32142   0.771  13.322  11.448  0.3224  0.0359 -0.1415
16334W        W32143  18.751  12.405  11.375 -0.1927 -0.1172 -0.1409
16335W        W32144  14.275   6.318   4.979  0.0953 -0.0064  0.0036
16336W        W32145   0.713   9.172   0.070  0.3132 -0.1662  0.2568
16337W        W32146  15.213  12.579  13.906 -0.2988  0.0537  0.0345
16338W        W32147   0.445  13.424   2.577 -0.0443 -0.4957 -0.4097
16339W        W32148   7.642   9.448   0.854 -0.0945 -0.1837  0.1659
16340W        W32149  14.044   5.409   6.074 -0.1129 -0.0580 -0.0810
16341W        W32150  16.733   7.453   3.021  0.3334  0.1838  0.1129
16342W        W32151  11.467   7.428  11.891  0.1825 -0.2367 -0.0916
16343W        W32152   3.667  14.430  11.408  0.1961  0.1021 -0.1483
16344W        W32153   4.320   5.561   4.627  0.3573 -0.2281  0.1283
16345W        W32154   7.016  14.882  10.147 -0.3984  0.1766  0.1550
16346W        W32155  18.746  12.938  11.646 -0.1226  0.1114  0.4561
16347W        W32156   7.145  12.906   2.566 -0.2922  0.0107  0.0950
16348W        W32157   6.995   9.529  14.624 -0.3514  0.2768  0.5767
16349W        W32158   9.620   9.384   5.102  0.3861 -0.1216 -0.1390
16350W        W32159  12.427   1.744   0.986 -0.4183 -0.1930  0.0372
16351W        W32160   1.096   8.589   5.334 -0.0743  0.1925  0.2066
16352W        W32161   4.452   2.410   1.822  0.0279 -0.1035  0.3037
16353W        W32162   4.809  12.499   0.783  0.1920  0.0984  0.1506
16354W        W32163   1.253   2.647  15.377 -0.2128 -0.1079  0.1137
16355W        W32164  14.464   3.557   2.850 -0.0442  0.1883 -0.1907
16356W        W32165   9.406  16.304  14.972 -0.1614 -0.1232  0.2588
16357W        W32166  13.922   6.552  14.962  0.1737  0.0176 -0.1879
16358W        W32167   5.973   3.689   3.532 -0.0878 -0.0274  0.2179
16359W        W32168   0.027  14.309   0.923 -0.3779  0.0241  0.3068
16360W        W32169  11.453  15.452  11.261 -0.0551 -0.2214 -0.2667
16361W        W32170  12.256   2.182   9.982 -0.1676 -0.1442  0.1108
16362W        W32171  11.943   2.176   3.819  0.1591 -0.1794  0.3462
16363W        W32172  18.549   6.046  13.570 -0.1558 -0.0109  0.0506
16364W        W32173  16.819   0.727   1.018 -0.0148 -0.1005 -0.0208
16365W        W32174  10.396   5.341  14.009  0.1108 -0.1492 -0.0943
16366W        W32175   3.291  12.899  11.547 -0.0437 -0.1433 -0.2969
16367W        W32176   8.365   5.618  14.332 -0.1377 -0.2416 -0.1074
16368W        W32177   8.950   0.255   3.123 -0.1438 -0.0989 -0.2893
16369W        W32178  18.303   8.964  13.140 -0.1604 -0.1518  0.1211
16370W        W32179   8.131  14.919  11.021  0.3204  0.2103  0.1899
16371W        W32180   1.745   8.073  12.663 -0.3255  0.0416 -0.2251
16372W        W32181  10.962  15.915   2.331 -0.0654 -0.2032 -0.2124
16373W        W32182   7.545   6.656  12.618 -0.0842 -0.1123  0.1956
16374W        W32183  17.599   2.343   0.945  0.2683 -0.0283  0.2220
16375W        W32184   2.642   9.727  15.462 -0.0973 -0.1957 -0.0374
16376W        W32185   1.003  12.811   4.496 -0.0936  0.1695  0.4278
16377W        W32186  17.620   4.920   4.345 -0.2285  0.0493 -0.1946
16378W        W32187   2.880   1.584  14.017 -0.1282 -0.3042  0.0562
16379W        W32188   3.479   6.185  14.511 -0.3192  0.2345 -0.1425
16380W        W32189   5.791   3.870  13.629  0.1374  0.0875  0.3723
16381W        W32190  11.216  11.499  12.267  0.1278  0.2878 -0.1280
16382W        W32191   4.292   0.004  10.319  0.0422  0.0726  0.2257
16383W        W32192   0.585   9.476   2.757  0.0910  0.0448  0.2319
16384W        W32193  12.431  15.764   4.289 -0.0872 -0.1903  0.2025
16385W        W32194   0.062   4.912  14.619 -0.0102  0.0632  0.2636
16386W        W32195   9.746  16.832  13.441 -0.0103  0.0679  0.0169
16387W        W32196   1.157   0.175  15.522 -0.1822 -0.1552  0.1665
16388W        W32197   2.511   7.732   3.146  0.0003 -0.2422 -0.3399
16389W        W32198  13.556   1.943   3.115  0.1343  0.2003 -0.1363
16390W        W32199   8.421   7.687   2.669  0.2774 -0.0172  0.1721
16391W        W32200  17.654  12.681   3.800  0.3254 -0.0293 -0.0049
16392W        W32201   5.824   9.903   2.215  0.1401 -0.1291  0.2085
16393W        W32202   4.200  13.597  13.421  0.1807 -0.1326 -0.1365
16394W        W32203   0.000   6.135   1.212 -0.0541 -0.0113 -0.2714
16395W        W32204   3.458   0.475   1.594  0.1021  0.1841  0.3868
16396W        W32205   7.974  17.513   4.494  0.0801 -0.0530  0.2911
16397W        W32206  13.128  16.952  14.175  0.1462 -0.2110  0.1398
16398W        W32207  13.928   1.046   1.817 -0.1303 -0.2427 -0.5143
16399W        W32208   7.365  12.437   5.458 -0.0768 -0.0602  0.1372
16400W        W32209   5.326  15.327   3.529  0.0582  0.1289 -0.0505
16401W        W32210   9.424   8.537   4.682  0.0685 -0.0240  0.0868
16402W        W32211   9.118  12.243  14.273  0.2487 -0.0118  0.3759
16403W        W32212   8.483  16.351  12.058 -0.0125  0.1133  0.3653
16404W        W32213  11.122  14.219  13.918 -0.2640  0.0859 -0.1058
16405W        W32214   0.943   4.332   1.397  0.2383 -0.2099  0.0827
16406W        W32215   2.490  17.201   2.254 -0.2837  0.2459  0.0106
16407W        W32216  14.354   5.902  15.323  0.1321  0.1339 -0.1440
16408W        W32217   0.832  11.945  10.286 -0.0982  0.0644 -0.1895
16409W        W32218   2.594   4.336   2.745  0.2132  0.2903  0.1130
16410W        W32219   5.231   7.900   6.013 -0.3213  0.1908 -0.2144
16411W        W32220   0.957   8.174  11.085  0.0494 -0.1360  0.0001
16412W        W32221  12.875   7.846  13.218  0.1335 -0.1138  0.0953
16413W        W32222   6.416   3.130   1.462  0.0116  0.1409 -0.2751
16414W        W32223   5.956   3.373   3.935 -0.2845  0.0325 -0.0175
16415W        W32224  12.798  16.061   3.446 -0.0050  0.0293  0.3960
16416W        W32225   5.159   5.206   4.081 -0.2464  0.2107 -0.0879
16417W        W32226   3.372  14.978  12.772 -0.0688  0.0593 -0.0421
16418W        W32227   5.304  13.726   3.160  0.3408  0.1155  0.0472
16419W        W32228  15.831  10.126  14.890  0.0823  0.1669 -0.3675
16420W        W32229  10.861   5.644   3.888 -0.2513 -0.1540  0.1992
16421W        W32230  13.402   4.723  11.882  0.0892  0.1312 -0.0799
16422W        W32231   7.627   3.416  10.658  0.2212  0.1485 -0.2425
16423W        W32232   1.394   5.935  10.928  0.0399 -0.1194 -0.2886
16424W        W32233  11.236  15.959   0.729  0.0447  0.0152 -0.0177
16425W        W32234  18.165   4.392  13.645  0.2103 -0.2087  0.1667
16426W        W32235  17.586   3.895  11.428 -0.2074 -0.0771 -0.1472
16427W        W32236  11.762   3.454  13.940 -0.0945  0.2570 -0.1705
16428W        W32237  11.336  17.391  15.093 -0.0219  0.1089  0.0618
16429W        W32238  11.777   6.026  11.124  0.1364 -0.1858 -0.2382
16430W        W32239   2.890  17.813  11.702 -0.1895  0.1385 -0.2256
16431W        W32240  17.687   1.333  11.358 -0.0100  0.3290 -0.1147
16432W        W32241  13.057   3.146  13.556 -0.0415  0.3743 -0.1665
16433W        W32242  11.900   9.244  11.286 -0.3098  0.1640  0.0312
16434W        W32243   2.175  16.197   1.473  0.0551  0.0777 -0.1322
16435W        W32244  15.211  12.611   1.448  0.0565 -0.1421 -0.4037
16436W        W32245   9.189  16.172   2.111 -0.0983  0.1816  0.1047
16437W        W32246  17.661   1.552  12.513 -0.0596  0.6214 -0.0662
16438W        W32247  17.679   5.706  13.415  0.2259  0.2290  0.1826
16439W        W32248   3.256  16.437   1.864 -0.5216  0.0527 -0.0141
16440W        W32249  12.970  15.208  14.300 -0.1062 -0.0824  0.1229
16441W        W32250  17.965  15.871  11.587 -0.0790 -0.0154  0.2270
16442W        W32251  16.992  13.088  12.827 -0.0460 -0.0571 -0.2261
16443W        W32252   4.023  15.849   3.522 -0.1858  0.0410 -0.1672
16444W        W32253  18.723   5.378  14.427  0.2524  0.0261 -0.0395
16445W        W32254   9.146  17.805  11.112 -0.0508  0.4935  0.1604
16446W        W32255  13.114   5.993   1.598  0.4367 -0.0825 -0.1182
16447W        W32256  10.761  15.255  12.477 -0.0328  0.0305  0.1190
16448W        W32257  17.161   5.316  15.092 -0.0631 -0.1380  0.2360
16449W        W32258   8.425   0.512  14.285 -0.0646  0.0331 -0.1162
16450W        W32259   7.185  11.244   3.571 -0.1234  0.1405 -0.2321
16451W        W32260   1.954  12.487  11.494 -0.0451 -0.0422 -0.0222
16452W        W32261   1.314   5.065   0.676 -0.3092 -0.1321  0.2927
16453W        W32262   2.014  11.891   5.042  0.0650 -0.2588  0.0501
16454W        W32263   6.438   5.330  11.143 -0.0873  0.0959  0.1245
16455W        W32264  10.827   0.114  11.752  0.0363 -0.2531  0.2500
16456W        W32265   7.859  17.694  10.438 -0.1520 -0.0256 -0.2753
16457W        W32266  18.420  18.062  12.937  0.1326  0.3447  0.0460
16458W        W32267  15.374   0.857  13.346  0.0330 -0.0460  0.0158
16459W        W32268  18.047  10.293  10.443 -0.2778 -0.3933  0.0895
16460W        W32269  16.781   5.850   0.137  0.0392  0.0028 -0.2193
16461W        W32270  17.104  14.962  12.191  0.1806 -0.2473  0.2514
16462W        W32271   6.070  10.147   5.417 -0.0485 -0.1264  0.3203
16463W        W32272   2.091   9.777   3.786  0.1578 -0.2350 -0.3639
16464W        W32273  15.244   3.696  11.402  0.1492 -0.1148 -0.3166
16465W        W32274  12.194   0.094  13.194 -0.1268 -0.0182 -0.1018
16466W        W32275   5.353   7.980  13.583  0.0988 -0.0098  0.1304
16467W        W32276  14.802   0.711  15.485  0.0837 -0.1381  0.1428
16468W        W32277  10.026   7.161  12.654  0.0528  0.0995  0.0038
16469W        W32278  10.855   5.140  14.020  0.1010 -0.1811 -0.0377
16470W        W32279  10.994  10.764  10.312 -0.0831 -0.2059  0.0719
16471W        W32280   7.304  11.200  11.789 -0.0073  0.3461  0.2360
16472W        W32281   7.043   6.459   4.966  0.1235 -0.1760 -0.2293
16473W        W32282  17.246   0.526  11.165  0.1847  0.1223  0.1280
16474W        W32283   2.130   3.334   1.406  0.2094  0.1198  0.0632
16475W        W32284  12.545  16.417   3.034  0.0427  0.0649 -0.0762
16476W        W32285   8.475  15.113  14.133 -0.0576  0.3573  0.2459
16477W        W32286   7.520  13.830   2.715 -0.0194  0.2004 -0.2493
16478W        W32287  15.439  16.963  14.921 -0.0413  0.1320 -0.3545
16479W        W32288  17.791  18.287  15.035  0.1714 -0.1372  0.1586
16480W        W32289  18.365   0.499   1.509 -0.0246 -0.2489 -0.0863
16481W        W32290   7.369  10.806  12.164  0.0704 -0.2272 -0.0532
16482W        W32291  13.065  11.188   1.605 -0.2627 -0.3315  0.2434
16483W        W32292  14.787   2.917   3.628  0.2576  0.1952 -0.3218
16484W        W32293  10.975  12.715  15.203 -0.0893  0.0925 -0.1418
16485W        W32294   8.385  13.028   0.625  0.0276  0.1663  0.0249
16486W        W32295   6.169   7.376   4.637  0.1514  0.0098 -0.1921
16487W        W32296  15.120  16.321  12.307 -0.0683 -0.2921  0.0314
16488W        W32297  11.812  14.100   2.444  0.2969 -0.0339 -0.1496
16489W        W32298  10.598   8.492  11.518  0.0410 -0.1619 -0.2645
16490W        W32299   9.966  17.468   1.660 -0.3685  0.3524 -0.2699
16491W        W32300   3.562  12.484  13.387  0.0580  0.0039  0.1715
16492W        W32301  17.708   1.428   4.851  0.1102  0.0166 -0.1400
16493W        W32302   2.256  16.422  15.064  0.1726 -0.0208 -0.2426
16494W        W32303  14.963  15.118   5.145  0.2959 -0.1401 -0.0149
16495W        W32304   3.047  11.798   0.500 -0.2403  0.1085 -0.1206
16496W        W32305   3.893   3.874  13.165 -0.1211 -0.2356 -0.0028
16497W        W32306   3.585   5.787  12.653  0.2385 -0.1238  0.1627
16498W        W32307   1.492   3.547  15.094  0.0656  0.1344  0.2237
16499W        W32308   7.404   6.427   1.301 -0.3015 -0.0027  0.0685
16500W        W32309  10.556   2.103  10.641  0.2921 -0.0192  0.1796
16501W        W32310   8.106   2.859   3.427  0.3426  0.0297 -0.1037
16502W        W32311  18.518  13.039  10.630  0.1963 -0.0151 -0.0257
16503W        W32312   0.265   5.040   4.237 -0.2217  0.0693 -0.0583
16504W        W32313   3.405   9.589   1.202 -0.0337  0.0281  0.0893
16505W        W32314  13.877   6.623   1.133 -0.1572  0.1276  0.0156
16506W        W32315  14.166  11.545   1.822  0.0719 -0.0069 -0.0230
16507W        W32316   4.214  18.707  12.799  0.3858 -0.0569  0.0310
16508W        W32317  15.042  18.461   4.919  0.2238 -0.2392  0.1149
16509W        W32318  13.491  15.313   5.594 -0.4882 -0.0461 -0.1098
16510W        W32319   1.022   3.818   4.310  0.0933 -0.1540  0.0538
16511W        W32320  11.683  16.743   5.580 -0.0238 -0.3416 -0.1082
16512W        W32321  17.743  14.106  15.377  0.0086  0.0095  0.1506
16513W        W32322  11.232  11.185   1.340  0.4537 -0.1613 -0.2982
16514W        W32323   0.744   4.738  14.926 -0.2636  0.4153  0.1162
16515W        W32324  13.761   8.249  12.687 -0.1301  0.1063  0.0454
16516W        W32325   4.988  15.399   2.760 -0.2438  0.3263  0.0779
16517W        W32326  11.257  10.197   2.969 -0.3245 -0.3942  0.0453
16518W        W32327   7.009  10.038   2.705 -0.0192  0.3345  0.2680
16519W        W32328   3.381   3.823   4.376 -0.0724  0.1402 -0.1087
16520W        W32329   6.176   9.461  10.787  0.0168 -0.0205  0.2875
16521W        W32330   4.529  17.666   4.734  0.3921  0.0706 -0.4689
16522W        W32331  14.594   0.237  10.801 -0.1114 -0.0534 -0.0645
16523W        W32332   5.437  18.648  12.671 -0.1592 -0.1725 -0.2731
16524W        W32333  14.236   7.014  11.658 -0.0311 -0.4134  0.2134
16525W        W32334  16.432   8.754   2.309 -0.0584 -0.0533  0.1519
16526W        W32335  13.519  11.125  10.761  0.1201 -0.2786 -0.0203
16527W        W32336   9.102   4.840   1.052  0.3303  0.0729  0.3228
16528W        W32337  17.080   2.191   0.982  0.3204 -0.0005  0.3016
16529W        W32338   1.967  17.174  11.301  0.0435 -0.1024  0.0436
16530W        W32339   1.863  16.360   4.778  0.0352  0.2358  0.1429
16531W        W32340  10.915   2.890   4.733  0.1452 -0.0944  0.1332
16532W        W32341  10.772  12.634   3.715  0.0543  0.1479 -0.0796
16533W        W32342  18.714   0.898  15.408 -0.0876 -0.0326  0.0484
16534W        W32343  10.982   3.724  13.237  0.6533 -0.0420 -0.4896
16535W        W32344   2.044   6.204  11.819 -0.0838 -0.0276 -0.2547
16536W        W32345  10.348   2.261  15.289  0.0979  0.2063  0.0036
16537W        W32346  14.927   1.960  14.674 -0.1098 -0.0640  0.0537
16538W        W32347   6.868  16.184  10.132 -0.0255 -0.1719  0.0511
16539W        W32348   7.592   4.305  14.247 -0.1384  0.0779  0.2565
16540W        W32349  16.262  11.927   1.981  0.5066 -0.0976  0.0764
16541W        W32350   7.390  11.858  12.388 -0.3673 -0.0400  0.1315
16542W        W32351   1.952  13.374  11.134 -0.1528 -0.1486 -0.1806
16543W        W32352  10.870   7.700   3.017 -0.1154  0.1715 -0.2045
16544W        W32353   4.803   7.880   4.579  0.1039 -0.0610 -0.0832
16545W        W32354  11.672   0.532  10.581  0.1346  0.2659 -0.0492
16546W        W32355   9.541   1.977   0.596 -0.0894  0.3424  0.1782
16547W        W32356  17.065   8.201  13.731  0.0847 -0.1923  0.0779
16548W        W32357   0.643  12.838   1.203 -0.3343 -0.0497 -0.3230
16549W        W32358  12.250   1.117  10.643 -0.1028 -0.1331 -0.3307
16550W        W32359   6.755  17.011  12.076 -0.0395 -0.1372  0.1769
16551W        W32360  18.313  11.315   1.621 -0.4571 -0.0999 -0.1088
16552W        W32361  13.533   2.378   1.182  0.0314 -0.2889  0.0839
16553W        W32362  18.414   6.006   5.213  0.0345 -0.0608  0.0441
16554W        W32363   0.800  15.063   9.542  0.0480 -0.0379  0.1182
16555W        W32364  18.268  14.059  12.545 -0.1025 -0.2948 -0.0003
16556W        W32365   5.098  15.777   3.636  0.0726 -0.1671  0.0066
16557W        W32366  13.138  11.332  10.392 -0.0837 -0.0045  0.0554
16558W        W32367   4.535  14.140   2.494 -0.1025  0.0214  0.0520
16559W        W32368   9.461   3.893   4.309  0.0347 -0.0170 -0.0132
16560W        W32369   2.534  13.057   1.942 -0.0071  0.0748  0.0127
16561W        W32370   1.192   1.182  13.977 -0.0368 -0.2742  0.4486
16562W        W32371   0.525  12.532   2.367 -0.2341 -0.2738  0.1059
16563W        W32372   1.383   6.412  13.536 -0.2892 -0.1121 -0.2414
16564W        W32373   9.947   8.921   2.732 -0.0372  0.0593 -0.1270
16565W        W32374   1.378  14.443   4.477  0.0935 -0.1239 -0.1602
16566W        W32375   1.604   3.283  11.697  0.2353  0.1909 -0.1009
16567W        W32376  12.927   6.556  12.091  0.0906 -0.0096 -0.1429
16568W        W32377  10.247  16.648   4.312  0.1954  0.1177  0.1837
16569W        W32378   0.480  10.838   0.464  0.0613  0.0448 -0.1106
16570W        W32379  15.450   1.962  15.498 -0.0290  0.2000  0.0485
16571W        W32380   9.235   5.017  14.332  0.2590 -0.0488  0.1864
16572W        W32381  12.296   3.451   4.672  0.3200  0.1040  0.0850
16573W        W32382  11.004   2.294   5.518 -0.2886 -0.0363 -0.3176
16574W        W32383   8.562   7.514  10.603 -0.1392  0.2513 -0.1235
16575W        W32384  10.660   2.208   1.386 -0.1851  0.0937  0.2559
16576W        W32385  16.966   9.598  15.562  0.3598 -0.2499 -0.0986
16577W        W32386   9.905  11.308  14.983 -0.1583  0.0960  0.4054
16578W        W32387  10.465   6.672   2.767 -0.2167  0.4450 -0.2423
16579W        W32388   3.003  12.824   3.369 -0.0536  0.1045  0.1344
16580W        W32389   2.868  15.049   4.525  0.0944 -0.0819 -0.0785
16581W        W32390   2.753  18.521   2.040  0.0646 -0.3429 -0.3778
16582W        W32391  17.624   0.360   4.619  0.1150 -0.3785 -0.1650
16583W        W32392   4.706   4.179   0.261  0.0589  0.3795 -0.0738
16584W        W32393  15.085   4.746   5.567  0.0404  0.1022  0.0178
16585W        W32394   8.913  15.379  14.240 -0.2679 -0.1523 -0.2753
16586W        W32395   0.387  18.220   0.848 -0.2042  0.3132  0.3471
16587W        W32396  17.860  15.065   1.566  0.1739 -0.1415 -0.1101
16588W        W32397  17.715  12.027  12.592 -0.2550 -0.0326 -0.1609
16589W        W32398   7.182   9.059  14.349  0.0856 -0.3839 -0.0974
16590W        W32399   3.563  12.625   2.644 -0.2611  0.2146 -0.0358
16591W        W32400   8.943   7.881  11.911 -0.1283 -0.1497  0.1673
16592W        W32401   9.537  11.840  13.058 -0.1062  0.1124 -0.2595
16593W        W32402   4.131   0.783  11.568 -0.0535 -0.5509  0.1070
16594W        W32403  13.278   9.733   3.216 -0.0545  0.1124 -0.2384
16595W        W32404   3.856   4.684   4.380  0.0889 -0.2200 -0.0050
16596W        W32405   6.461  17.764  10.720 -0.2419  0.3056 -0.1023
16597W        W32406  17.267  18.426  11.355 -0.3071 -0.2528 -0.0300
16598W        W32407  18.691  13.333  12.401 -0.0627 -0.2372  0.0016
16599W        W32408  10.326   9.146  14.196 -0.2366 -0.0828 -0.0003
16600W        W32409  11.288   6.938  12.721  0.3311 -0.1357 -0.1967
16601W        W32410  14.309  14.932  11.695  0.0780 -0.5019  0.1425
16602W        W32411  13.534   5.620   0.108 -0.0302 -0.1030 -0.0051
16603W        W32412   9.888   2.310   5.324  0.2554  0.2262  0.0570
16604W        W32413  12.343  14.634  13.338  0.0928  0.0580  0.0583
16605W        W32414  12.112  10.958  11.422 -0.0222  0.0762  0.0047
16606W        W32415   0.179   5.070  14.097  0.1679 -0.0750 -0.0417
16607W        W32416  14.544  10.546  15.007 -0.0135  0.2309 -0.0603
16608W        W32417  16.059  11.025  12.611 -0.1491  0.0389  0.1349
16609W        W32418   1.478   9.227  10.179  0.2976  0.1559  0.2070
16610W        W32419  17.825   2.789   5.129 -0.0048  0.1139  0.1071
16611W        W32420   1.227   8.868   9.929  0.0725  0.0174  0.1319
16612W        W32421   4.526  14.098   3.767 -0.1526  0.0335 -0.0745
16613W        W32422  14.920   8.107  11.478 -0.0841  0.1235 -0.4783
16614W        W32423  13.317   0.402   2.984  0.4542 -0.1236 -0.1645
16615W        W32424   8.954  14.756   1.109  0.1032  0.0115  0.0178
16616W        W32425   2.667   4.100   1.462 -0.0133  0.0751 -0.1194
16617W        W32426   6.603  16.057  15.554 -0.0830 -0.2379  0.1443
16618W        W32427  17.487  15.905  14.146 -0.2910 -0.0846  0.0497
16619W        W32428  17.650   3.949  13.637 -0.3460 -0.2281  0.0380
16620W        W32429  16.521  14.401   4.232 -0.0299  0.1596 -0.2220
16621W        W32430  11.431  11.795   1.877  0.2391  0.2414 -0.0820
16622W        W32431  13.290   1.854   0.614 -0.2163 -0.1517  0.0191
16623W        W32432   8.447  14.328  10.977 -0.2546 -0.2578 -0.1048
16624W        W32433   6.836  16.438   1.065 -0.1722  0.0954  0.0094
16625W        W32434   8.738  10.170   3.907 -0.0796  0.0436 -0.0987
16626W        W32435  16.225   1.254  13.722  0.0385 -0.0950 -0.1522
16627W        W32436  16.623   0.702  14.049  0.3184  0.0288  0.0024
16628W        W32437  14.725   1.488  14.980 -0.2324  0.3786  0.0446
16629W        W32438  10.784   6.115   3.598 -0.1611 -0.4484 -0.3028
16630W        W32439   8.682   1.813   2.124 -0.1889  0.2541 -0.1532
16631W        W32440  10.689   4.937  11.502  0.2261 -0.2116 -0.0036
16632W        W32441   2.404  16.241   5.072 -0.1762 -0.0169  0.1423
16633W        W32442   4.354   1.309   1.995  0.0873 -0.3008  0.0865
16634W        W32443   3.466  12.047   0.491  0.1708  0.0656  0.1334
16635W        W32444  12.461  14.582   3.600  0.0427 -0.0341 -0.3391
16636W        W32445  17.709   7.473   4.060 -0.2125 -0.1471 -0.1238
16637W        W32446   3.833   8.046   2.813 -0.2182  0.0894  0.3011
16638W        W32447  13.318   9.260   4.445  0.1123  0.1639  0.0382
16639W        W32448  17.110  10.193  14.751  0.0924  0.0047 -0.3456
16640W        W32449  12.018   8.675  11.474 -0.2601  0.0902  0.1966
16641W        W32450  11.423   5.640   4.051 -0.0080  0.0373 -0.2398
16642W        W32451   7.956   0.578  11.735 -0.1782 -0.2326 -0.2194
16643W        W32452   8.594  14.003   1.158  0.0923 -0.1794  0.1916
16644W        W32453  10.796   3.248   3.328 -0.1212  0.0819  0.0728
16645W        W32454   2.019  15.082  15.274  0.2357  0.2362 -0.0049
16646W        W32455   0.303  12.957   2.181  0.0842  0.4025 -0.1146
16647W        W32456  12.930  12.243   0.581  0.0728 -0.0236  0.1036
16648W        W32457   2.749  14.471   2.429  0.1395 -0.2733 -0.0166
16649W        W32458  17.311   7.697   2.856  0.1410  0.2543 -0.0357
16650W        W32459  12.381  11.697  10.610  0.2292 -0.0918 -0.2560
16651W        W32460   6.853   5.111  12.641  0.0582  0.0211  0.0315
16652W        W32461   5.851  12.611   2.320  0.0247  0.0918 -0.0599
16653W        W32462   2.155   6.371   3.690  0.2318 -0.2299 -0.0820
16654W        W32463   8.019   1.943  11.269  0.0558 -0.0088  0.1904
16655W        W32464   9.801   3.743   3.371  0.0267  0.2565 -0.1533
16656W        W32465  12.122   6.882  13.748  0.1581  0.2967 -0.0053
16657W        W32466   3.924  10.843   2.510  0.1073  0.0262  0.1111
16658W        W32467   2.070   8.593   2.915 -0.1744 -0.0967  0.4194
16659W        W32468   1.320   5.012   2.306 -0.0744  0.2269 -0.2759
16660W        W32469   8.558  14.421  14.843 -0.2477 -0.0266  0.1943
16661W        W32470  12.344  14.394  12.909  0.0297  0.1893  0.2342
16662W        W32471   1.344   7.004   1.088 -0.0159 -0.0769  0.0551
16663W        W32472   1.684  11.717  11.888  0.0796  0.0169 -0.1427
16664W        W32473  12.629   0.913   1.247 -0.2789  0.1143 -0.1435
16665W        W32474   3.659  13.988  14.116  0.2632 -0.3066  0.1750
16666W        W32475   5.927  18.548   3.446  0.0216  0.1080  0.0573
16667W        W32476   1.761   7.921   2.235  0.0495  0.3867  0.0425
16668W        W32477   5.009   8.295   1.112  0.1712 -0.0497  0.1077
16669W        W32478   5.440   5.522  11.551  0.2514 -0.1415 -0.2493
16670W        W32479  10.558   5.972  15.427  0.0777  0.0931 -0.1561
16671W        W32480  15.791   4.415   3.819  0.0708  0.1135 -0.3035
16672W        W32481   8.407   1.710   1.331 -0.1007  0.2769  0.2473
16673W        W32482   4.207   0.314   3.704 -0.2653  0.1470  0.0265
16674W        W32483  14.309   7.927  11.586 -0.1669  0.0868  0.1065
16675W        W32484   1.504  12.695  14.478 -0.0033 -0.0040  0.1370
16676W        W32485   0.564   5.779   4.029 -0.0951  0.4032 -0.0105
16677W        W32486   9.016   7.112   2.538  0.0658  0.1562 -0.2402
16678W        W32487  14.564  11.956  11.289  0.0480  0.3401 -0.2495
16679W        W32488  14.262   0.820  12.072 -0.5819 -0.1391 -0.1419
16680W        W32489  16.363   7.898  14.265  0.0965  0.2678 -0.0391
16681W        W32490  16.232  16.069  10.960 -0.0301 -0.2013  0.0814
16682W        W32491  14.989   3.767   4.098 -0.3004  0.0774 -0.0558
16683W        W32492   1.858  12.753   4.589 -0.1052  0.1759 -0.2161
16684W        W32493  15.548   1.751   2.560 -0.1733 -0.2608 -0.1112
16685W        W32494   2.135   6.839  14.288 -0.2728 -0.2588 -0.0044
16686W        W32495   7.129  17.145   2.035  0.3159  0.2211 -0.0124
16687W        W32496   5.184  13.843  13.291  0.1604  0.3591 -0.0330
16688W        W32497   2.318  11.393   5.245  0.0645 -0.2169 -0.1254
16689W        W32498   5.318   4.681  11.877 -0.0532  0.0925  0.0564
16690W        W32499  15.671   1.149   1.483 -0.0579  0.3910 -0.1614
16691W        W32500  10.112  14.185   1.760  0.0526  0.1280 -0.0504
16692W        W32501   3.202  18.201   3.092 -0.1131  0.1885  0.2763
16693W        W32502  14.371   8.441   5.498  0.2703 -0.1180 -0.0706
16694W        W32503   0.005   5.494   0.166  0.3222 -0.0322 -0.0166
16695W        W32504   3.279  13.011   9.484 -0.0701  0.0871  0.1721
16696W        W32505   0.068  14.742   0.088  0.1141  0.1657 -0.0563
16697W        W32506  12.370   2.801   3.736 -0.1473  0.0344 -0.0450
16698W        W32507  12.361   5.687   1.678 -0.5622  0.1708  0.1973
16699W        W32508   0.085  16.819   3.004  0.1480  0.2030 -0.0220
16700W        W32509   5.216   2.531  12.214  0.3516  0.0521  0.0205
16701W        W32510  14.667  11.467  11.914 -0.4286 -0.2775 -0.1850
16702W        W32511   5.489   8.104  10.823  0.1718 -0.0318  0.0014
16703W        W32512  15.253  11.509   0.399  0.1023  0.3951 -0.1541
16704W        W32513   7.369  16.219   3.409  0.0807  0.0496  0.0163
16705W        W32514   3.775   0.282  11.796  0.1317 -0.3029  0.1976
16706W        W32515  11.157  17.907  10.806 -0.5059 -0.0220 -0.1046
16707W        W32516   6.692   1.085  10.787  0.0582  0.0218  0.0749
16708W        W32517   3.513   6.155  13.941  0.3010 -0.1761 -0.1350
16709W        W32518   2.763   0.340   3.605  0.2478  0.3190 -0.1476
16710W        W32519   9.763  13.082  10.774  0.2206  0.1420 -0.1956
16711W        W32520   1.985   5.515  12.141 -0.1974  0.1314 -0.1047
16712W        W32521   7.780   9.997  11.997  0.4211 -0.1770 -0.0356
16713W        W32522   5.043  17.963  13.997  0.0710 -0.1545 -0.0643
16714W        W32523   1.234  12.577   1.249  0.0722 -0.2857 -0.0787
16715W        W32524   1.925   2.650  13.444 -0.0040 -0.1028 -0.0125
16716W        W32525   3.359  16.631   4.264  0.1452 -0.1979  0.0927
16717W        W32526  12.222   5.680  13.289  0.0770 -0.1133 -0.2969
16718W        W32527  11.594   3.600  11.748  0.0018 -0.2685 -0.1452
16719W        W32528   0.421  16.186  10.758  0.2088  0.0900 -0.0727
16720W        W32529   8.835   4.414   4.891 -0.3408 -0.2382  0.1846
16721W        W32530   0.495   6.153  10.435  0.0082 -0.0239 -0.1845
16722W        W32531   3.436   6.495   4.857  0.0332 -0.1922 -0.0127
16723W        W32532   7.448  15.495   0.728 -0.1390  0.1495 -0.0983
16724W        W32533  17.721  14.164   4.021  0.1416 -0.0586 -0.2237
16725W        W32534  11.429  16.076  11.155  0.0611  0.1108  0.1947
16726W        W32535   7.503   9.149   9.788 -0.2620 -0.1177  0.1109
16727W        W32536   4.148   8.760  14.065 -0.0434  0.0285  0.0898
16728W        W32537  10.634   1.049   3.763  0.2437  0.0665  0.2844
16729W        W32538  10.713   7.675   2.430 -0.0457  0.0618 -0.0366
16730W        W32539  14.032   2.233   0.126  0.0624  0.1448 -0.0093
16731W        W32540  14.913  14.172   4.923 -0.0230  0.0347 -0.0575
16732W        W32541  17.341  10.447   2.335  0.2418  0.0079 -0.1646
16733W        W32542  12.765   5.678   3.676  0.0477  0.1472  0.1730
16734W        W32543  13.759  12.851   1.558  0.0535  0.0693 -0.1404
16735W        W32544   2.685  16.241  13.239  0.0928 -0.2045 -0.0098
16736W        W32545   1.144   1.210   3.579 -0.1817 -0.1082  0.1502
16737W        W32546   5.219   2.915  14.092  0.4083 -0.1138 -0.0986
16738W        W32547   1.263   0.910   0.716 -0.0286 -0.0135  0.0448
16739W        W32548   3.328   5.745   4.535 -0.0022 -0.1586 -0.0016
16740W        W32549   6.419  11.554  11.943  0.2703  0.2950 -0.2441
16741W        W32550  15.565  10.307   3.210 -0.1813 -0.1061  0.1276
16742W        W32551  10.266   5.251   2.159 -0.3015  0.1196  0.0080
16743W        W32552  13.109   7.282  11.123  0.5706  0.1372  0.3735
16744W        W32553  10.048  15.103   4.537  0.0742 -0.2359 -0.0541
16745W        W32554  11.440  11.462  10.577  0.2121 -0.5320 -0.0527
16746W        W32555  10.268   6.019   3.406  0.0383  0.2664  0.2143
16747W        W32556   5.266  11.350  12.275 -0.2191  0.0266 -0.2672
16748W        W32557  14.022   2.463   3.784  0.2108  0.0105  0.0506
16749W        W32558   3.728  15.618   2.003  0.3677  0.3542 -0.2402
16750W        W32559  16.960   6.540  14.366 -0.0316  0.2288  0.2011
16751W        W32560  15.467   2.079  14.952 -0.0338 -0.0980 -0.0730
16752W        W32561  14.507   8.931  13.727 -0.2482 -0.1817 -0.2543
16753W        W32562   4.363   0.413  15.487  0.0412 -0.0568 -0.1213
16754W        W32563   7.970   8.876  11.154  0.0177  0.1547  0.0990
16755W        W32564  18.652  17.541   1.836  0.2935  0.2157 -0.0727
16756W        W32565  16.702   3.706   5.592  0.0528 -0.2219  0.2593
16757W        W32566   0.312   0.546   3.811  0.1054  0.0039 -0.0845
16758W        W32567  15.372  18.331  14.316  0.0206 -0.1205 -0.1225
16759W        W32568   5.168   8.090   3.704 -0.0563  0.1699  0.0103
16760W        W32569  18.226  16.525   4.179  0.1488 -0.2477  0.3111
16761W        W32570   0.759  13.215  11.927 -0.3308  0.2994  0.1491
16762W        W32571   3.147  18.432  13.708  0.2562  0.0095  0.0348
16763W        W32572   4.489  18.649   3.423 -0.1641 -0.2713  0.0887
16764W        W32573   9.102   7.591   4.643  0.2264  0.1944  0.1021
16765W        W32574   5.678   0.384  11.677 -0.1188 -0.1780  0.2384
16766W        W32575   5.991   7.689  15.515  0.1744 -0.1433  0.0537
16767W        W32576   4.759  18.600  12.699  0.2981 -0.1676 -0.2395
16768W        W32577  18.404  13.259  11.276  0.1288 -0.2157 -0.2234
16769W        W32578   4.821   7.700  11.835  0.3349  0.1283 -0.1013
16770W        W32579   5.013  11.646   0.460 -0.2558  0.2511 -0.2134
16771W        W32580   8.750  18.150  10.376  0.3450  0.1762 -0.0412
16772W        W32581  15.751   5.900   3.359 -0.2297 -0.0876 -0.2247
16773W        W32582   5.586   5.036   4.325  0.1796 -0.2906  0.2117
16774W        W32583   3.140   1.828  13.635 -0.0279  0.1679 -0.0475
16775W        W32584   9.659  18.105  11.021  0.2544 -0.0966  0.0077
16776W        W32585  10.501  18.727  11.276 -0.1128  0.0537  0.0995
16777W        W32586   4.231  18.562   1.083  0.1572 -0.1038 -0.0010
16778W        W32587  11.959  15.456  11.674 -0.0130  0.0607 -0.0548
16779W        W32588   9.405   7.714  14.196 -0.2722 -0.2461 -0.0500
16780W        W32589   4.963  12.091   3.318  0.0098 -0.0865  0.4741
16781W        W32590   1.973  10.664   4.220 -0.0135  0.0551 -0.2605
16782W        W32591  12.230  16.811   0.373 -0.2608 -0.1094  0.2522
16783W        W32592  10.010   9.031  11.976  0.0605  0.3907  0.2226
16784W        W32593  16.710   2.705  13.699 -0.1916 -0.0355 -0.3397
16785W        W32594  16.097  18.578  13.861  0.1923 -0.3844 -0.5916
16786W        W32595  12.049  12.800   1.534 -0.0583 -0.0397  0.1281
16787W        W32596  17.911   5.465  14.491 -0.1760 -0.3845  0.0339
16788W        W32597   6.782   1.727   3.723 -0.2564 -0.2604 -0.2765
16789W        W32598   1.799   3.786  13.444  0.0630  0.0617 -0.5716
16790W        W32599  13.894   3.315  15.087  0.3052 -0.4757  0.1554
16791W        W32600   2.233  17.587  14.512 -0.1139  0.2037  0.0200
16792W        W32601   3.159  17.413  14.410 -0.0595 -0.2584  0.1326
16793W        W32602  12.699   2.704  12.822  0.3151 -0.3913  0.1361
16794W        W32603   7.618  18.520  12.061 -0.0915  0.2068  0.0125
16795W        W32604   7.489  14.421  11.262  0.1291  0.0262 -0.1135
16796W        W32605   2.214  13.074  14.047  0.1438 -0.0626 -0.1418
16797W        W32606  16.855   1.399  12.232  0.1887 -0.0267 -0.2700
16798W        W32607  11.762   4.045   3.197 -0.1013 -0.1065  0.3617
16799W        W32608   1.174  13.869   0.323  0.0728 -0.1679  0.0285
16800W        W32609  15.457   0.258  12.952 -0.2712 -0.1423  0.3748
16801W        W32610   0.875  14.820  13.635  0.1927  0.0687  0.1187
16802W        W32611   8.223  15.963  11.990  0.0910  0.3759  0.1871
16803W        W32612  11.508   1.493   1.379 -0.3848 -0.0804 -0.3166
16804W        W32613  13.715  17.051   4.316  0.1690 -0.0164 -0.0918
16805W        W32614  10.660  12.962  12.239  0.1033  0.0580  0.1669
16806W        W32615   4.381   3.725  13.245  0.1431  0.0801  0.3428
16807W        W32616  12.475   1.720   5.508 -0.0440 -0.4010  0.1951
16808W        W32617  12.705  15.127   0.453  0.0949  0.2355  0.2441
16809W        W32618  13.635   8.628   5.057  0.1287  0.1457 -0.1563
16810W        W32619   5.117   3.385   0.517  0.0962 -0.2685  0.0885
16811W        W32620   5.962  13.801   4.585  0.1870 -0.1997  0.0000
16812W        W32621   5.283   9.414  14.293  0.2196 -0.0731  0.1038
16813W        W32622   0.665  12.841   3.368 -0.2286  0.0210 -0.1086
16814W        W32623   3.908   0.695   1.708  0.0065 -0.1639  0.2105
16815W        W32624   8.596  15.288   0.083  0.0371 -0.4798  0.1308
16816W        W32625  13.330  16.694  12.396  0.0776 -0.0932 -0.4181
16817W        W32626  13.656  14.855   9.894 -0.0077 -0.0282 -0.0319
16818W        W32627   8.041  11.695   0.486  0.2640  0.3701  0.1657
16819W        W32628   0.656  13.168   2.964 -0.0355  0.0547  0.2408
16820W        W32629  18.284   5.111  14.344 -0.1022  0.0527 -0.1149
16821W        W32630   9.152   0.418  11.985 -0.1060  0.0466  0.2176
16822W        W32631   0.450  14.540   1.734 -0.3774  0.6387  0.0040
16823W        W32632  13.468  14.276   2.860  0.2930  0.0506  0.2078
16824W        W32633   2.823  13.398  11.174 -0.1720 -0.2133  0.0023
16825W        W32634  14.590   7.153   0.788 -0.0801  0.0821  0.0449
16826W        W32635   5.149   8.713   3.782  0.1466  0.0207 -0.0591
16827W        W32636   0.963   2.673   3.340 -0.0616 -0.0602 -0.2642
16828W        W32637   1.500   0.183   1.374 -0.4118  0.2554 -0.2091
16829W        W32638   4.654   6.605   5.147  0.0814  0.1855  0.0840
16830W        W32639  16.093  12.405   1.754 -0.1754  0.0771 -0.1091
16831W        W32640  15.453  15.944  12.531 -0.2138 -0.4153  0.0219
16832W        W32641  11.453  13.992   1.036 -0.0023  0.0835 -0.0151
16833W        W32642   2.968  13.998  13.499  0.0699 -0.1134  0.0164
16834W        W32643   7.795  10.386  14.509 -0.2092 -0.0613 -0.0883
16835W        W32644  11.357  12.368  15.301  0.1117  0.1828  0.0798
16836W        W32645   4.118   7.434  12.576 -0.0718  0.1222  0.0625
16837W        W32646  12.722  12.721   1.468 -0.1273  0.1023 -0.3101
16838W        W32647  15.810  16.542   5.470 -0.0932  0.2305  0.1927
16839W        W32648  14.025  13.037   4.429 -0.0314 -0.0222  0.0927
16840W        W32649  14.683  12.055   3.538  0.1115 -0.2737  0.2287
16841W        W32650   4.575   5.909   2.276  0.1455 -0.2284 -0.1585
16842W        W32651   9.020  16.294   3.203  0.5100 -0.1270  0.0564
16843W        W32652   7.561  12.137  10.351 -0.3497 -0.1206  0.1289
16844W        W32653  16.393  13.057   3.116 -0.0025 -0.2123  0.2232
16845W        W32654  12.131   7.101  12.486  0.0498 -0.0923  0.0625
16846W        W32655  17.668   7.984  12.605 -0.0569 -0.0526 -0.3021
16847W        W32656   2.589   1.620  12.025 -0.0938  0.3728  0.0803
16848W        W32657  18.561  17.093  10.192  0.0735  0.4673  0.0955
16849W        W32658  16.691  17.617   1.935 -0.1429 -0.0402 -0.1131
16850W        W32659  11.819  15.134  13.123  0.1816 -0.3311 -0.0795
16851W        W32660  16.545  10.350   0.085 -0.2929  0.1120 -0.0298
16852W        W32661   5.625  13.431   3.003  0.1285 -0.1848 -0.0142
16853W        W32662   1.052  15.763  13.990 -0.2225  0.2173 -0.2971
16854W        W32663  17.292  11.850   3.648  0.0686 -0.3317 -0.0177
16855W        W32664  13.408   9.686  14.313 -0.1077  0.1437  0.0217
16856W        W32665  11.524  11.976   2.443  0.0530 -0.1108  0.0136
16857W        W32666   0.432   5.009  11.150  0.0371 -0.2886 -0.1014
16858W        W32667   9.947   9.046   1.898  0.0784  0.0755 -0.2144
16859W        W32668   3.211   8.378   0.519  0.0110 -0.0657 -0.0744
16860W        W32669  16.741   2.234   4.557 -0.1799 -0.2546 -0.0463
16861W        W32670  16.664   4.014   4.805 -0.0023  0.0280  0.2879
16862W        W32671   9.056   4.117   2.811  0.3148 -0.0785  0.1282
16863W        W32672   6.967  18.181   2.479 -0.0505  0.2505 -0.2061
16864W        W32673   8.726   9.451  12.699 -0.1013 -0.2167 -0.3375
16865W        W32674  13.339   0.569   2.383 -0.0420 -0.0214 -0.0547
16866W        W32675   1.833   6.690   4.047  0.3378 -0.1049  0.3091
16867W        W32676  16.500   6.055  11.613 -0.0356  0.0258  0.1263
16868W        W32677   0.833   1.289  14.932 -0.1482  0.0640  0.0958
16869W        W32678   2.967   6.242   3.825 -0.0786 -0.0267  0.1374
16870W        W32679  12.910   5.331   4.762  0.1404  0.0931 -0.0163
16871W        W32680   2.073  16.473   2.952  0.1299  0.0341  0.3706
16872W        W32681  15.269  15.150  12.116  0.0939  0.2599 -0.2214
16873W        W32682   6.713  11.744   3.206 -0.3877 -0.1785  0.4962
16874W        W32683  11.677  16.737   0.548 -0.0057 -0.0664 -0.2704
16875W        W32684  10.766   0.634  14.079  0.0364  0.1885  0.2728
16876W        W32685   3.949   8.676   3.257 -0.0171  0.2622 -0.1714
16877W        W32686   1.394  16.333   0.970 -0.0721  0.1381 -0.0272
16878W        W32687   1.128   2.648  10.860  0.1269  0.0354  0.0299
16879W        W32688  14.181  17.107  11.683 -0.0022 -0.2615  0.1332
16880W        W32689   8.037  17.055   2.168 -0.1215  0.0465  0.0075
16881W        W32690  11.432  10.027   2.555 -0.0649  0.0343  0.1343
16882W        W32691   9.731   4.078   2.920  0.0366  0.0388  0.1476
16883W        W32692   3.694   1.122  14.935  0.0179 -0.1064  0.0252
16884W        W32693  12.185   7.247  14.712  0.0252  0.0181 -0.1871
16885W        W32694  11.354   3.433  14.403  0.0148  0.0577 -0.1078
16886W        W32695   8.490  12.859  11.525 -0.3053  0.0244 -0.0670
16887W        W32696  13.438   3.785   1.293  0.1905  0.1611  0.0269
16888W        W32697  18.362   9.895  11.054 -0.0676  0.0514 -0.2166
16889W        W32698  10.366   6.905  13.760 -0.0008  0.0981  0.1292
16890W        W32699   8.393  13.454  10.904  0.0554  0.3015  0.1553
16891W        W32700   1.526   2.922  12.563 -0.0199  0.0165  0.0028
16892W        W32701  11.530  13.639   3.343  0.0650 -0.1539  0.0825
16893W        W32702  12.506   7.321   4.875 -0.0874 -0.0163  0.0386
16894W        W32703   9.817   9.594   6.102  0.1476  0.0442 -0.0043
16895W        W32704  11.633   7.164  14.794 -0.0212 -0.0449  0.2523
16896W        W32705   7.074   4.588  12.821  0.0119  0.2020 -0.0063
16897W        W32706  11.912   8.266  10.431 -0.0737  0.1367 -0.0460
16898W        W32707   6.460   3.061   3.945  0.0452 -0.0914 -0.0431
16899W        W32708   6.598  11.211  12.853  0.1100  0.0472  0.1642
16900W        W32709   5.118  16.292   1.922  0.0550  0.2336  0.2017
16901W        W32710  16.099   2.323  12.184  0.1273  0.1394 -0.0001
16902W        W32711   3.010  17.430   0.070 -0.0934  0.0687  0.0750
16903W        W32712  15.618  10.610  14.974 -0.2563  0.0557  0.2979
16904W        W32713  14.157   0.719   5.020  0.0147 -0.0774 -0.2207
16905W        W32714   4.968   7.658  13.673 -0.0097 -0.2779 -0.3632
16906W        W32715   6.650  18.382   3.539 -0.1912 -0.0826 -0.0077
16907W        W32716   6.294  10.867   4.866  0.0073 -0.2955  0.1494
16908W        W32717  15.859   5.742   2.902 -0.0649  0.2877  0.1871
16909W        W32718   1.927   0.887   5.798  0.0539 -0.3474  0.1076
16910W        W32719  18.685   1.525  13.224 -0.1786 -0.1101  0.0520
16911W        W32720   2.897   3.435  11.204  0.3944 -0.0280 -0.1205
16912W        W32721   7.837  16.333  12.676 -0.0615 -0.0600  0.0301
16913W        W32722   1.259  14.401  11.457 -0.0836 -0.2284 -0.2233
16914W        W32723   7.064   7.748   1.377  0.0271 -0.1397  0.0247
16915W        W32724   2.910  16.518   2.290 -0.0478  0.0223  0.1072
16916W        W32725   1.153  18.176  14.391 -0.2309 -0.2956  0.1328
16917W        W32726   0.070  18.587  12.789 -0.4319  0.2342  0.3920
16918W        W32727  14.438  12.755  14.552 -0.1994 -0.1283 -0.0848
16919W        W32728   3.185   2.518  13.273 -0.2349  0.2145 -0.0715
16920W        W32729   4.742   7.018   4.323  0.1713  0.0724  0.1678
16921W        W32730  13.124  18.145   3.061 -0.2745 -0.0034 -0.0193
16922W        W32731  15.302   5.017  14.838 -0.1890 -0.0148 -0.2983
16923W        W32732   7.805  15.828  12.896  0.0123 -0.0955 -0.0953
16924W        W32733   4.439  10.544   0.659  0.1888  0.2922  0.1175
16925W        W32734   8.283   9.601   3.315 -0.1413 -0.2904 -0.1233
16926W        W32735   9.078  15.229   0.276  0.2742 -0.1064 -0.0004
16927W        W32736   0.689   0.791   3.528  0.0399 -0.1344 -0.1767
16928W        W32737   7.108   1.380   2.920 -0.3856  0.1218  0.0943
16929W        W32738   4.504  12.067  15.112 -0.1478 -0.2514 -0.1265
16930W        W32739   1.726   3.070  10.862 -0.0261  0.0048 -0.3035
16931W        W32740   8.493  12.702  12.432  0.0681  0.0187  0.1378
16932W        W32741   7.962  14.620   2.604  0.3523  0.3156 -0.3738
16933W        W32742   2.325  12.007   1.366  0.0465  0.0975 -0.2644
16934W        W32743  12.334   6.645  12.267  0.1635  0.3810 -0.2950
16935W        W32744  16.723  17.530   2.962 -0.1028 -0.2663 -0.3071
16936W        W32745  13.617  14.225  15.155 -0.1013 -0.1254  0.0616
16937W        W32746  16.447   8.676  14.061 -0.3715 -0.2087 -0.0984
16938W        W32747   8.176   5.946   2.890  0.2095  0.3837  0.2103
16939W        W32748  18.708   7.394   1.457  0.4261  0.0333  0.0888
16940W        W32749  16.096  12.549  14.085  0.2988  0.2521 -0.0803
16941W        W32750  15.140  12.610   3.060  0.0963 -0.6068 -0.1373
16942W        W32751   5.418   9.212   2.254 -0.2978 -0.1435  0.2594
16943W        W32752  11.834  12.637  10.586  0.2508  0.0254  0.1319
16944W        W32753  16.941   9.757  14.718 -0.0125 -0.1676  0.2720
16945W        W32754   9.488  17.296  14.758  0.1833  0.2654 -0.1791
16946W        W32755  17.707   0.540  14.190 -0.1246  0.2736  0.2566
16947W        W32756  15.635  14.794   1.387 -0.0371  0.0296  0.1711
16948W        W32757  11.774   4.858   4.532  0.2024 -0.1066  0.0257
16949W        W32758  12.313  12.552   1.137 -0.0609 -0.1963  0.1063
16950W        W32759   3.004   7.037  12.278  0.2582 -0.0076  0.0978
16951W        W32760   4.568  12.210  13.155 -0.1508 -0.0887  0.3638
16952W        W32761   6.946  11.980   4.471 -0.0086  0.2019  0.2973
16953W        W32762  14.110   3.697   4.214 -0.1720  0.3180 -0.1696
16954W        W32763   8.250   7.521  13.332  0.0752  0.0623  0.1370
16955W        W32764  14.025  17.944   3.118 -0.3002  0.1396  0.2324
16956W        W32765  12.052  11.277  13.097  0.1041 -0.1605 -0.0703
16957W        W32766   0.301  10.047   1.679 -0.0388 -0.4547 -0.0842
16958W        W32767   7.046   5.148  14.657 -0.0153 -0.1832  0.0819
16959W        W32768  11.246   5.173  10.598  0.0524  0.1503  0.0134
16960W        W32769   1.696   9.170   4.001  0.0028  0.0661  0.3497
16961W        W32770  14.263  17.234   4.773 -0.2074 -0.3665 -0.0354
16962W        W32771   6.604   3.907  14.654 -0.1578  0.0984  0.0135
16963W        W32772   2.390  15.772  12.307 -0.0809  0.1629 -0.0440
16964W        W32773   3.130   4.473   5.065 -0.1514 -0.0603 -0.0879
16965W        W32774   1.269  13.670   2.511 -0.1486  0.1455  0.3288
16966W        W32775  10.181   9.327   4.813 -0.3092 -0.1183  0.5095
16967W        W32776   8.989  14.872   2.761  0.2722 -0.1767 -0.2409
16968W        W32777  12.163  16.691  14.505  0.0705 -0.1637  0.0726
16969W        W32778  13.379   4.345  14.436 -0.0096 -0.0440 -0.2163
16970W        W32779  14.945  12.465   0.561  0.3418 -0.2483  0.5788
16971W        W32780   1.643   6.774  14.298  0.0555  0.3899 -0.1657
16972W        W32781  15.575  14.044   6.068  0.0095 -0.0716  0.0700
16973W        W32782  16.619   1.981   3.631 -0.1170 -0.0618 -0.1259
16974W        W32783  16.337  14.957  11.774 -0.2919  0.1116 -0.1810
16975W        W32784   4.263   7.256   1.905 -0.1386  0.1006  0.0128
16976W        W32785  12.672   0.739  11.722  0.1829  0.0881 -0.2491
16977W        W32786  18.117  17.242  14.890  0.2353 -0.2605  0.0436
16978W        W32787   9.682   9.757   3.641  0.3099 -0.1437  0.1864
16979W        W32788   5.945  13.172  13.429  0.3642 -0.1831  0.3702
16980W        W32789  13.160   4.314   3.170 -0.0987 -0.0283  0.1634
16981W        W32790   5.431   5.103   0.346 -0.3043  0.0705  0.1577
16982W        W32791   6.380  12.650  14.487 -0.1782 -0.2056  0.1398
16983W        W32792   8.739  12.220  11.398 -0.2710 -0.0528  0.1284
16984W        W32793   4.932  11.701   4.222 -0.1965  0.0001  0.0198
16985W        W32794  16.562  16.693   2.589  0.0888  0.1602  0.0902
16986W        W32795  10.501  10.900  11.286 -0.1032 -0.3402  0.1805
16987W        W32796   9.987   6.121  12.793  0.0227 -0.1509  0.1438
16988W        W32797   5.387  12.864   4.180 -0.3680 -0.0206 -0.0605
16989W        W32798   0.082   0.442  13.405 -0.2512  0.3577 -0.1036
16990W        W32799  11.832   3.938  13.812 -0.1815  0.0910 -0.0561
16991W        W32800   3.786  15.972   0.818 -0.0721 -0.0903  0.0297
16992W        W32801   2.814   4.695  13.915 -0.4367 -0.0115 -0.3604
16993W        W32802   1.496   6.336  14.703 -0.0153  0.0307  0.2421
16994W        W32803   1.919   1.788   4.424 -0.1086 -0.1924  0.1113
16995W        W32804   0.348   6.948  14.697 -0.2105 -0.0582  0.2290
16996W        W32805   1.104  13.735  11.566 -0.1074 -0.1829  0.0196
16997W        W32806  17.094   0.722  15.027  0.2853 -0.0149 -0.0426
16998W        W32807   8.964  11.518  11.867  0.0721  0.1264 -0.3279
16999W        W32808   4.123   5.259  13.067  0.1975  0.0241 -0.3169
17000W        W32809   4.521  12.811   1.196 -0.2483 -0.0882  0.1298
17001W        W32810   7.407   6.229   2.317 -0.0229 -0.1927 -0.2175
17002W        W32811  17.046  10.164  10.639  0.0330  0.4676  0.1315
17003W        W32812   9.471   8.062  13.418 -0.1847  0.1346 -0.1028
17004W        W32813   5.804   5.476   3.518 -0.0516  0.1298 -0.3009
17005W        W32814   7.150  14.127  12.604  0.3495 -0.0131 -0.1834
17006W        W32815   8.188  13.997  15.458 -0.0849  0.0142  0.0261
17007W        W32816  14.234  16.394   5.868  0.3388  0.1256  0.1129
17008W        W32817   7.425   2.654  11.212  0.0295  0.0201  0.3604
17009W        W32818  14.190  18.736   4.675 -0.2017  0.0687  0.1317
17010W        W32819   7.266   5.768  11.217 -0.0051  0.2447  0.0632
17011W        W32820  18.439  18.342   2.896  0.0571  0.0244 -0.2048
17012W        W32821  14.322   0.487  15.239 -0.2363  0.1585  0.3253
17013W        W32822  17.116  12.267   3.372  0.3289 -0.3327  0.1603
17014W        W32823  12.800   0.289   4.371 -0.0912 -0.1935 -0.0007
17015W        W32824   0.104   4.841   0.944 -0.2407 -0.1106 -0.0885
17016W        W32825   2.195  12.416   3.776 -0.0867  0.0151 -0.0751
17017W        W32826  16.639   5.633   5.121 -0.3452  0.1127  0.1634
17018W        W32827  13.017  12.378  13.061 -0.1054  0.3305 -0.1600
17019W        W32828  15.603  17.255  12.225  0.1075 -0.1428 -0.0966
17020W        W32829   4.732  11.561   3.378  0.1297  0.2419 -0.1603
17021W        W32830  18.208   1.068  12.023  0.2992 -0.1221 -0.1623
17022W        W32831   7.262   8.416   3.883 -0.0164 -0.2512 -0.1083
17023W        W32832  10.002  16.999   0.569 -0.1623  0.1911 -0.3063
17024W        W32833   4.144  13.179  13.774  0.2276  0.0143 -0.0584
17025W        W32834  18.705  10.087   1.389  0.1045  0.0864 -0.0187
17026W        W32835   7.803   6.557   2.464 -0.0137  0.1310 -0.0867
17027W        W32836   0.056  18.663   1.739 -0.1728 -0.0567 -0.0231
17028W        W32837   3.042   4.424   2.047  0.2989 -0.1936 -0.1690
17029W        W32838   3.701   8.863  13.855 -0.0536  0.0999 -0.2195
17030W        W32839  14.127   5.234  11.561  0.2498 -0.0696 -0.1048
17031W        W32840   2.097  12.046  15.482 -0.1040  0.2299 -0.1681
17032W        W32841  10.741   5.645  14.947 -0.1645 -0.0342 -0.0573
17033W        W32842   1.456   3.943  14.645 -0.0027  0.1367 -0.0154
17034W        W32843  10.006   2.541  14.598 -0.1523  0.3011  0.3048
17035W        W32844  12.416  11.445   0.395  0.1230  0.0203  0.0009
17036W        W32845   6.025   7.361  10.739  0.0283 -0.2929  0.0928
17037W        W32846  10.927  15.401   2.146 -0.1201 -0.1893 -0.2255
17038W        W32847   2.087   3.400  10.883  0.0450 -0.0590 -0.3374
17039W        W32848  14.634  10.042  10.284  0.0530  0.1286 -0.2172
17040W        W32849   0.788  17.012  13.419  0.1891  0.1381 -0.1710
17041W        W32850  17.752  18.115  15.495 -0.1264 -0.0179  0.2762
17042W        W32851  12.637   4.426  14.316  0.2062  0.3898 -0.0124
17043W        W32852  18.023  14.126   2.107  0.2094 -0.2176  0.2305
17044W        W32853   3.673   4.131  12.306  0.0633  0.0281  0.1361
17045W        W32854   5.137  16.776  12.453  0.1958 -0.1560 -0.0482
17046W        W32855   9.451  14.507   5.265  0.0114 -0.2311 -0.1017
17047W        W32856   9.426   2.652   5.332 -0.1369  0.0290 -0.2603
17048W        W32857  15.709   7.253  11.515  0.1532 -0.1644 -0.0035
17049W        W32858  17.694  12.072  15.089  0.2002  0.0445 -0.0056
17050W        W32859   6.400  14.397   3.713  0.1616  0.0046 -0.0819
17051W        W32860   4.248  10.148   1.405  0.3207 -0.0062  0.0811
17052W        W32861  13.517  15.796  13.778  0.1089 -0.0255 -0.0433
17053W        W32862   5.157  16.701  10.705 -0.1147 -0.2379  0.2606
17054W        W32863  16.847   3.565  12.691 -0.0534  0.0790  0.3773
17055W        W32864  15.847  18.240   1.476  0.0547  0.2497  0.1321
17056W        W32865  14.839   3.261  14.631  0.2724 -0.2047  0.0211
17057W        W32866   1.280  17.808  11.128 -0.0847  0.2078  0.1044
17058W        W32867  13.497  12.474  12.956 -0.2629 -0.2393 -0.3183
17059W        W32868   3.009  14.413   1.754 -0.1128  0.1983 -0.0606
17060W        W32869  11.261   5.665  12.380 -0.2389 -0.0766 -0.0224
17061W        W32870   3.666   3.028   4.804  0.3080 -0.1135 -0.1095
17062W        W32871   1.233   4.344   9.349  0.0018  0.0579 -0.0821
17063W        W32872  11.415   8.657   1.529 -0.0344 -0.1343 -0.0219
17064W        W32873  10.803  15.834  12.858  0.0898 -0.0824  0.1643
17065W        W32874  13.455   0.765  12.187  0.2770 -0.2026 -0.0740
17066W        W32875  12.206   5.012   3.594  0.0853 -0.2214 -0.1041
17067W        W32876   6.002  14.796  11.826 -0.1115  0.1411 -0.0443
17068W        W32877  13.852  12.164  13.602 -0.2294  0.1328 -0.0627
17069W        W32878   2.628  10.447  14.819 -0.0877 -0.1048 -0.1785
17070W        W32879  10.926   2.331  11.547  0.1280  0.0987  0.1038
17071W        W32880  15.249  18.484  13.515 -0.1809 -0.2383  0.2220
17072W        W32881  15.826  11.405  13.379  0.0395 -0.2182 -0.1364
17073W        W32882   3.839  17.037   3.657 -0.0372  0.0302  0.0820
17074W        W32883   8.816  10.633   2.843  0.3097  0.0009  0.0650
17075W        W32884  16.544   8.875   3.830  0.0230 -0.1579  0.1035
17076W        W32885  10.048   3.091  14.513 -0.0372 -0.2292 -0.4143
17077W        W32886   7.241  14.663  13.551 -0.0390 -0.0594  0.1991
17078W        W32887  10.146   6.294   1.222  0.2187  0.1095  0.0570
17079W        W32888  14.082  16.025   5.113  0.2508  0.1086  0.1899
17080W        W32889  14.804  17.560  12.337  0.0356  0.0032  0.1510
17081W        W32890  18.355   6.945   0.108 -0.3227  0.1996  0.2481
17082W        W32891   7.906  13.448  13.508 -0.0993  0.0580  0.1143
17083W        W32892  12.658   0.689  12.604  0.1290  0.0030 -0.1874
17084W        W32893   8.221  17.038  13.203  0.0291 -0.2988  0.3132
17085W        W32894   8.345  10.068  12.251 -0.0948  0.0281  0.1292
17086W        W32895   0.549   6.419  12.240  0.1639 -0.1227  0.0904
17087W        W32896   8.557   1.117   0.160  0.0343  0.0104  0.2048
17088W        W32897   8.456   9.454  11.600 -0.0104  0.1348  0.0809
17089W        W32898   6.635   7.220   4.459 -0.0679 -0.4531 -0.0435
17090W        W32899  14.432   6.886   1.272 -0.2318  0.0587 -0.2710
17091W        W32900  14.435  13.697   2.820  0.1423 -0.1084 -0.0690
17092W        W32901   7.548   5.543  13.051  0.0796  0.0193  0.0787
17093W        W32902   2.846   8.367  12.653  0.0852  0.0268 -0.1996
17094W        W32903   3.176   4.392   4.575  0.1377  0.1529 -0.2794
17095W        W32904  14.617   9.084   0.152 -0.2298  0.0342  0.3826
17096W        W32905  15.818  14.143  11.018 -0.1980 -0.0357  0.0057
17097W        W32906  17.636   7.172   0.737  0.0622  0.4706 -0.0320
17098W        W32907   9.494  15.250   2.799 -0.0105  0.0531  0.1064
17099W        W32908   2.498   6.386   4.454  0.2507 -0.0552  0.0590
17100W        W32909   7.608  11.591  11.908 -0.1430 -0.0075 -0.0748
17101W        W32910  13.239  13.165   0.983  0.0314  0.0978 -0.2467
17102W        W32911  18.303   1.083   4.229  0.0086 -0.3168  0.0714
17103W        W32912  11.837  12.166  14.212  0.0113  0.2817  0.2517
17104W        W32913   9.271   4.945   0.565  0.2563 -0.2601 -0.2092
17105W        W32914   8.802  13.068   1.285  0.1455 -0.0785  0.0598
17106W        W32915  14.544   9.999   2.253 -0.1650  0.0019 -0.2060
17107W        W32916  18.310   5.558  11.575 -0.4054  0.0548  0.5775
17108W        W32917  13.317  14.881  12.395 -0.1721 -0.0757  0.2014
17109W        W32918   5.299   0.631  15.543  0.0851 -0.1041 -0.0674
17110W        W32919  16.693   7.743  12.379 -0.1791 -0.0326 -0.0674
17111W        W32920  17.205  17.753  12.893  0.0162 -0.3584  0.2352
17112W        W32921   4.013  10.376  14.978 -0.0427  0.1433 -0.0029
17113W        W32922   2.820  13.806   0.425 -0.2094 -0.2314 -0.0057
17114W        W32923   4.867  17.081   3.744 -0.0594 -0.1655 -0.2322
17115W        W32924  17.621  16.533  11.259 -0.0222  0.0259 -0.2182
17116W        W32925  13.050   5.276  12.319 -0.1530 -0.1122 -0.1193
17117W        W32926   1.779  16.169  14.237 -0.1534 -0.0720 -0.0136
17118W        W32927   8.656  17.652   3.002  0.0222 -0.3073  0.1280
17119W        W32928  10.589   5.597   3.421  0.0522 -0.1667 -0.1721
17120W        W32929   3.831   9.483   2.978  0.1619 -0.0965 -0.0390
17121W        W32930  12.579   9.041   0.855  0.0147  0.0643  0.0377
17122W        W32931  18.075  17.097  12.341 -0.0470  0.3029  0.2257
17123W        W32932   4.348  15.129   0.867 -0.0084  0.0208  0.2420
17124W        W32933   4.432  12.928   2.602  0.0819 -0.1636  0.1039
17125W        W32934  14.730  18.315   5.308 -0.1848  0.0669 -0.0885
17126W        W32935  14.679   1.909  13.713  0.0678  0.3941  0.0927
17127W        W32936   7.691  18.747  11.567  0.0274 -0.1567 -0.0974
17128W        W32937  18.133   4.589  14.286 -0.1756 -0.2119  0.0149
17129W        W32938  17.013   1.833   5.629  0.0073  0.1317 -0.2107
17130W        W32939  15.657   8.161   3.903 -0.1381  0.0853  0.2377
17131W        W32940   3.746  14.291   0.786  0.1843  0.0932 -0.0939
17132W        W32941   9.521  15.329  15.337 -0.1596  0.1678  0.0435
17133W        W32942  18.667  13.440   0.032  0.0842  0.1194  0.0907
17134W        W32943   0.333  17.435   2.205  0.0130 -0.0699 -0.1671
17135W        W32944  12.974  14.693  10.865 -0.1597  0.1588  0.1086
17136W        W32945  18.525  17.542  14.159 -0.2171  0.1407  0.0437
17137W        W32946  15.571  11.818   3.178 -0.0926  0.0791 -0.4150
17138W        W32947   7.815   8.249  11.095  0.2495  0.0564 -0.0972
17139W        W32948  16.825  15.542   0.144  0.1525 -0.1812 -0.1565
17140W        W32949   1.060   5.957  12.000  0.1912 -0.0228  0.0971
17141W        W32950   1.575  12.978  15.336  0.1785 -0.1238  0.1091
17142W        W32951   4.221   9.079  10.348 -0.0889  0.3834 -0.0035
17143W        W32952  10.885   7.625  10.737 -0.2344  0.1523 -0.0406
17144W        W32953   0.651   2.051   0.186 -0.0093 -0.1014  0.0324
17145W        W32954  14.082   3.243  15.507 -0.1124  0.4215  0.1035
17146W        W32955  10.368   8.835  15.172  0.0390  0.0289  0.0244
17147W        W32956  11.565  12.612  13.961 -0.0172 -0.0887  0.1842
17148W        W32957   8.582  13.091  12.081 -0.1976  0.4343 -0.1053
17149W        W32958   2.690   3.201  13.607 -0.0122 -0.1261  0.0053
17150W        W32959   9.638  17.131   1.042  0.0133  0.4106 -0.4903
17151W        W32960  13.295  15.127   0.107 -0.2703 -0.0639  0.0153
17152W        W32961   8.112  13.208   4.021  0.2728 -0.2515 -0.0888
17153W        W32962  13.294  15.991  11.501 -0.2471 -0.0461 -0.2138
17154W        W32963   8.207   6.490   3.568  0.1143  0.2083 -0.1470
17155W        W32964   6.971  16.390  11.364 -0.1508  0.0266 -0.1022
17156W        W32965   4.316   1.486  11.514 -0.2925 -0.2122  0.0657
17157W        W32966   6.969  18.380   1.476 -0.1464 -0.4275  0.2237
17158W        W32967  10.503  18.755   0.416  0.1397  0.2306  0.3901
17159W        W32968  18.100  16.386  11.887 -0.0424  0.0559 -0.1400
17160W        W32969   7.865  14.512   1.068  0.2007  0.4197  0.0627
17161W        W32970  14.385  12.706  11.957  0.0026 -0.0078 -0.0549
17162W        W32971   8.873   9.077   4.132 -0.0793  0.1696  0.3123
17163W        W32972  17.734   8.265  13.080  0.0915 -0.2838  0.1152
17164W        W32973   9.752  12.264   2.343 -0.0407 -0.1249 -0.3024
17165W        W32974   1.519  15.127  15.187 -0.0603  0.2077 -0.0547
17166W        W32975  18.054  12.515   3.619  0.1380 -0.5476 -0.0007
17167W        W32976   4.500  13.554   4.317  0.3495  0.1197 -0.0770
17168W        W32977   1.220   7.363  13.367 -0.1610 -0.4050  0.0595
17169W        W32978  17.601   3.330  12.101 -0.0676  0.3043 -0.1237
17170W        W32979   2.714   5.427  10.100  0.0563  0.0550  0.1861
17171W        W32980  10.180  13.299  13.467 -0.3292 -0.0724 -0.0010
17172W        W32981  10.097  17.578   4.440  0.4061  0.1503 -0.3554
17173W        W32982   9.489   3.414   2.496 -0.0254  0.0037 -0.2633
17174W        W32983   4.843  16.713   4.912  0.2276  0.1872  0.1648
17175W        W32984   2.403  17.135   2.736  0.0442  0.2495  0.0155
17176W        W32985  11.663  14.112   3.685 -0.4489 -0.1530 -0.1242
17177W        W32986   5.727   3.339   1.006  0.1441  0.0237 -0.2563
17178W        W32987  13.782   7.524   5.179 -0.1072 -0.2510  0.2305
17179W        W32988  15.714   3.436   4.089  0.1844 -0.1618  0.4229
17180W        W32989   1.954  10.839  12.317  0.1305  0.1626 -0.0688
17181W        W32990   3.212  13.909  14.655  0.0886  0.0146  0.1743
17182W        W32991  14.241  12.801  14.096  0.2355 -0.3926  0.0823
17183W        W32992  10.401  18.767   1.731 -0.3321  0.0377 -0.1520
17184W        W32993   1.508  17.536  11.963  0.0289 -0.3270 -0.1689
17185W        W32994  15.131   2.083   2.075  0.0205 -0.0338  0.0910
17186W        W32995  18.273  18.521  12.694 -0.2627 -0.1522  0.0952
17187W        W32996   6.483   0.513  14.203  0.0926 -0.0165  0.2814
17188W        W32997  14.739   8.745  11.239 -0.0846  0.1744 -0.0732
17189W        W32998  11.840   7.321   5.854  0.2527  0.0015  0.1668
17190W        W32999   5.724   7.052   4.623 -0.0250 -0.0993 -0.2791
17191W        W33000   1.407  13.993   3.902 -0.0268 -0.3347 -0.2945
17192W        W33001   1.281  17.553  12.435 -0.2643 -0.1431 -0.1928
17193W        W33002   6.328   2.734   0.710 -0.2970  0.1020  0.1649
17194W        W33003   0.124   7.774   3.640 -0.0749 -0.0694  0.0306
17195W        W33004  13.056   6.178  12.725 -0.1143  0.0267  0.1686
17196W        W33005   9.314  16.538  13.279  0.0073 -0.1023  0.1872
17197W        W33006   4.152   1.083  12.770 -0.0485 -0.0340 -0.0449
17198W        W33007  17.123  16.523  13.428 -0.2622 -0.3226 -0.1720
17199W        W33008   6.209  12.991  11.509 -0.1972  0.0985  0.0235
17200W        W33009  16.854  18.115  11.353  0.2661 -0.4103 -0.0899
17201W        W33010  10.637   1.678   4.423  0.0134 -0.1500  0.1916
17202W        W33011   2.400   6.852  10.621 -0.1080 -0.1240 -0.1697
17203W        W33012   2.812  12.110   0.873  0.2055 -0.0637 -0.2631
17204W        W33013  14.601   1.348   4.620 -0.2919  0.0811  0.1630
17205W        W33014   3.352  12.970  13.341 -0.1275  0.2032  0.1665
17206W        W33015  11.002   1.215   1.110  0.0552 -0.0709  0.0274
17207W        W33016   3.585   6.885  10.445 -0.0847 -0.1777 -0.0627
17208W        W33017   0.020   3.324   1.912  0.2596  0.1343  0.0135
17209W        W33018   3.438  12.409   0.067  0.0168 -0.2554 -0.1984
17210W        W33019   5.131   5.003   1.225  0.1669 -0.6769 -0.0331
17211W        W33020   6.079   1.640   2.323 -0.4017  0.0861  0.0556
17212W        W33021  11.789   0.842  13.879 -0.1943  0.0760 -0.0229
17213W        W33022   7.684   8.508   1.366 -0.3544  0.2513  0.3357
17214W        W33023   1.151   9.093  15.367  0.1668  0.3742 -0.0883
17215W        W33024  14.724   4.884   3.056 -0.1245  0.1079  0.0736
17216W        W33025  14.951  16.065   0.673 -0.0577  0.1609 -0.0015
17217W        W33026   8.834   2.859  15.298 -0.1418  0.2195  0.0098
17218W        W33027   2.165   2.930   3.815 -0.0292  0.2886 -0.0277
17219W        W33028   9.269   7.178  13.053 -0.0507 -0.5363 -0.3173
17220W        W33029   2.673  12.158   3.674  0.5340  0.3974  0.2808
17221W        W33030  10.756   8.596  10.641 -0.0926  0.3006  0.0520
17222W        W33031   3.397  11.310  11.935 -0.1611  0.1681  0.1315
17223W        W33032   3.146   3.078  13.812  0.0481 -0.0500  0.0336
17224W        W33033   2.519  14.037   2.298 -0.0102  0.0035 -0.0293
17225W        W33034   0.880   5.832   4.675  0.2491  0.1495  0.2093
17226W        W33035  10.314   3.097   9.870  0.1810  0.0834 -0.1198
17227W        W33036   2.245   2.202   4.498  0.0502  0.3279 -0.2005
17228W        W33037   4.563  11.780   4.555 -0.0263 -0.1183  0.0391
17229W        W33038   3.362  16.012   5.471  0.0901  0.0403 -0.3924
17230W        W33039   9.560   1.876   3.275  0.4064 -0.1193 -0.2633
17231W        W33040   5.947  16.324  11.893 -0.0009 -0.0600  0.0496
17232W        W33041  13.506   4.620   0.707  0.2787  0.2323  0.0297
17233W        W33042   1.225   5.907  15.345 -0.1125  0.2613  0.2031
17234W        W33043   1.023   7.508  14.748 -0.1187  0.1317 -0.0350
17235W        W33044   1.989   0.378   1.077  0.3369 -0.0992 -0.0223
17236W        W33045  11.974  11.605   9.688  0.2547 -0.1272  0.2947
17237W        W33046  15.096  15.895  14.363 -0.2608 -0.0431  0.1598
17238W        W33047   5.142  18.208   0.968  0.2231 -0.0202  0.0452
17239W        W33048   1.192  16.285  14.106  0.1128  0.1794 -0.0873
17240W        W33049  12.511   4.822   1.898 -0.4349 -0.0185 -0.2094
17241W        W33050  12.348   5.171   2.305 -0.1640  0.0575  0.0928
17242W        W33051   8.387  17.688   0.977  0.1781 -0.0121  0.1488
17243W        W33052   4.740  15.402  11.143  0.1496 -0.1695  0.1787
17244W        W33053   1.181   4.182   1.785  0.0399 -0.0579 -0.2859
17245W        W33054   9.752  16.344   3.978  0.1854  0.0315  0.0607
17246W        W33055  10.047  16.420  11.651  0.3815  0.1404  0.0048
17247W        W33056  12.422   2.584   3.276 -0.3163  0.0392 -0.0904
17248W        W33057   1.602  10.866   1.104 -0.0350  0.0583 -0.1347
17249W        W33058   7.828   1.945   5.046  0.2487 -0.1989  0.1611
17250W        W33059  15.853   8.978  13.995  0.0043  0.2395  0.3203
17251W        W33060   5.031   4.823   5.302  0.1506 -0.2179 -0.0839
17252W        W33061   6.367   2.741  11.032 -0.2338 -0.1027 -0.0554
17253W        W33062  16.962   0.944   0.622  0.0469  0.0777  0.1106
17254W        W33063   1.179  17.761  15.450  0.1784 -0.3793 -0.1493
17255W        W33064  13.281  12.357   4.454  0.1478  0.1940 -0.1047
17256W        W33065   6.196   1.579  12.606  0.0437  0.0505 -0.0472
17257W        W33066  13.050  10.194   0.017  0.0017 -0.0840 -0.4058
17258W        W33067  13.422  10.252  11.897  0.0626 -0.3010  0.1637
17259W        W33068  13.009  14.846  13.988  0.0554  0.3107 -0.5086
17260W        W33069   4.997  12.451  14.395  0.0210  0.1507  0.3232
17261W        W33070   5.259   4.936  13.672  0.0137 -0.1914  0.0515
17262W        W33071   9.250   4.847  12.794  0.1659  0.0707 -0.2398
17263W        W33072   8.032   7.704   2.319  0.2091  0.0102  0.0756
17264W        W33073   7.097   1.873  12.652  0.0402 -0.1357 -0.2062
17265W        W33074  14.477   6.774   0.194 -0.2404 -0.3665  0.0378
17266W        W33075  15.750   7.348  15.268 -0.1439  0.0908  0.0114
17267W        W33076  17.451   8.093   1.896 -0.0180 -0.0870 -0.1082
17268W        W33077   1.195   1.176   2.853 -0.0111 -0.2228 -0.2490
17269W        W33078   8.532  14.239   3.700  0.3892  0.2569 -0.2608
17270W        W33079   8.617  10.150   1.163 -0.1728  0.3989 -0.1376
17271W        W33080   1.844   9.753  12.387  0.2858 -0.1404 -0.0428
17272W        W33081  14.426  15.612   1.081  0.0365 -0.2171  0.1606
17273W        W33082  12.349  13.670  14.104  0.0297  0.0552  0.0999
17274W        W33083  14.761  14.239   0.716 -0.0988  0.1500 -0.1425
17275W        W33084   8.136   1.494  11.173  0.0036  0.0058  0.2965
17276W        W33085  14.944   1.637  13.362  0.0167 -0.1875 -0.1905
17277W        W33086   4.308  15.795  14.017  0.2142 -0.2064 -0.0950
17278W        W33087   2.092   8.915  10.942 -0.1323  0.3815  0.0184
17279W        W33088   4.514   5.070  15.552 -0.0347  0.2364 -0.1287
17280W        W33089  15.311  11.256   1.213 -0.0642  0.2317  0.1595
17281W        W33090   5.520   3.337   3.630  0.0499  0.1337 -0.1103
17282W        W33091   7.260   1.062   1.321  0.0167 -0.0468 -0.2752
17283W        W33092  14.073   1.744  14.381  0.0235 -0.0572  0.3396
17284W        W33093   3.668   5.059  11.143 -0.0808  0.1900 -0.0765
17285W        W33094  15.544  14.455   5.207 -0.0158 -0.1699  0.0860
17286W        W33095  13.964  13.953   1.280  0.1592  0.1788 -0.0059
17287W        W33096  14.977   4.129  11.639  0.0493  0.1823  0.1440
17288W        W33097   4.982   7.706   5.602 -0.1494 -0.3449  0.2415
17289W        W33098   2.480  17.705   1.491 -0.2946 -0.0145  0.0850
17290W        W33099   3.372  16.674  13.515 -0.0508 -0.2126 -0.0083
17291W        W33100   7.185   5.977  14.908  0.1213 -0.0446 -0.1421
17292W        W33101   1.354   2.602   1.182 -0.0592 -0.1380  0.1732
17293W        W33102  13.980  18.423   3.269  0.1266 -0.0196  0.1427
17294W        W33103  17.801   9.720   3.389 -0.0436 -0.0325  0.1528
17295W        W33104  15.936  16.071   2.308  0.4023  0.3451 -0.3930
17296W        W33105  11.027  14.893  12.758 -0.0760  0.2043  0.1127
17297W        W33106   6.165   9.817   0.667  0.0662  0.0919 -0.1013
17298W        W33107   3.954   6.240  13.837 -0.1069  0.1227 -0.1058
17299W        W33108   0.253  12.639  14.189  0.2182 -0.1493  0.0934
17300W        W33109   4.237   0.355   0.901  0.2061  0.1642  0.0600
17301W        W33110  16.113  10.595  12.826  0.0637 -0.1244 -0.2997
17302W        W33111   9.081  10.887  13.376 -0.0101 -0.0132 -0.1562
17303W        W33112  10.127  11.917   2.661 -0.0402  0.0878  0.0343
17304W        W33113   4.951   6.434   0.518  0.1754  0.0379  0.2316
17305W        W33114   3.567   2.331  14.443  0.0090  0.0715  0.4379
17306W        W33115   6.541  16.580   5.152 -0.1344 -0.3681 -0.0060
17307W        W33116   4.827   6.681  12.855  0.1089  0.3199  0.2642
17308W        W33117  11.582   1.635  15.003 -0.1988 -0.3214  0.1842
17309W        W33118  18.738  11.345   1.885 -0.1364  0.0668 -0.0663
17310W        W33119   9.456   0.747   5.064 -0.0277 -0.2452 -0.2093
17311W        W33120  10.981   9.943   1.606  0.0928  0.2478 -0.4311
17312W        W33121  12.248  14.959  15.276 -0.1479 -0.2528 -0.1501
17313W        W33122   6.389   3.365   5.642 -0.1095  0.1651 -0.1476
17314W        W33123  14.865   9.576   4.205 -0.2170  0.2732  0.0688
17315W        W33124   9.941  11.415   3.466 -0.3057 -0.0013  0.0757
17316W        W33125   6.220   0.082   4.626 -0.1078 -0.3367  0.3301
17317W        W33126  10.445  11.365   4.457 -0.0664  0.0660  0.1810
17318W        W33127  15.961  13.452  14.652  0.3714 -0.2922  0.2873
17319W        W33128  16.780   3.635   1.995 -0.2378 -0.1161  0.0953
17320W        W33129   0.914   9.229  11.576 -0.1869 -0.1051  0.2740
17321W        W33130   1.715  16.958   4.713 -0.1296  0.2998 -0.1951
17322W        W33131  14.779  16.222   4.387 -0.0917  0.3170 -0.0486
17323W        W33132   9.736   3.779  10.291 -0.1816  0.2133  0.0706
17324W        W33133  11.876   1.718  12.122 -0.1055 -0.0608  0.0318
17325W        W33134   9.692  13.399  11.489  0.0685 -0.0917 -0.0104
17326W        W33135   6.769  18.375  14.593 -0.0217  0.1448 -0.2189
17327W        W33136  11.725   0.297   2.478  0.2764  0.0471  0.0184
17328W        W33137   4.794   0.413   0.307  0.1602  0.0668  0.0663
17329W        W33138  10.260   7.756  13.176 -0.0557 -0.1524 -0.0477
17330W        W33139  17.029  10.061  11.242  0.2732 -0.2237  0.1594
17331W        W33140  10.845  12.453  14.405  0.0104  0.0354 -0.2740
17332W        W33141   3.604   4.438   3.568 -0.1777  0.2721  0.0757
17333W        W33142  16.650   2.309   9.962  0.2448 -0.2459 -0.0736
17334W        W33143   6.309  17.804  10.265 -0.2420 -0.0438  0.2063
17335W        W33144   2.820  11.933   2.606  0.2406 -0.0771  0.0447
17336W        W33145  11.895  13.985   1.954 -0.0594 -0.0310 -0.0627
17337W        W33146   1.449  10.221  13.856  0.1200  0.1357 -0.0393
17338W        W33147  14.648   1.482  12.345  0.0030 -0.2279  0.0129
17339W        W33148   1.324  18.552  14.133 -0.0032 -0.2579  0.0527
17340W        W33149   1.593  10.762   3.863 -0.1123  0.3346  0.0805
17341W        W33150   0.982  14.512  14.538 -0.2380  0.2945  0.0779
17342W        W33151  10.762   6.758   3.189  0.0089 -0.1054  0.1471
17343W        W33152   1.223  16.311  11.951 -0.2435  0.2695 -0.3264
17344W        W33153  13.392  18.036  14.626 -0.2426  0.1027  0.0179
17345W        W33154  16.304  18.679   4.611 -0.1364  0.0638 -0.0620
17346W        W33155   7.455  12.350  12.617 -0.3889  0.0411 -0.1017
17347W        W33156   2.128  13.373  11.706  0.0491  0.0287  0.1634
17348W        W33157   8.816   3.378   4.904  0.4151  0.0261  0.1287
17349W        W33158  12.381  11.761   2.831 -0.1917  0.1245 -0.1019
17350W        W33159   1.330   0.173   5.023  0.0372  0.0716 -0.0698
17351W        W33160   7.092   1.423  12.430  0.0699 -0.3710 -0.0541
17352W        W33161  14.930   3.935   0.092  0.0836  0.3714  0.0967
17353W        W33162  14.462  11.056   0.900 -0.3153 -0.0503  0.0182
17354W        W33163   9.087  14.074   9.603  0.0290 -0.0037  0.1707
17355W        W33164  12.978   5.071   3.259  0.1689 -0.1762 -0.0725
17356W        W33165   6.415   7.434   0.156  0.0060  0.0407 -0.1884
17357W        W33166  11.375  10.868   0.583  0.1556 -0.0870  0.0761
17358W        W33167   5.819   5.569   5.899  0.0272  0.3761  0.1228
17359W        W33168   2.449   8.400   4.311  0.0553 -0.0022  0.2023
17360W        W33169   9.885  10.562  14.844 -0.3570  0.0338 -0.1470
17361W        W33170  12.773  10.602  13.692 -0.1667 -0.0974  0.0556
17362W        W33171  10.756   8.183   1.472 -0.1123 -0.1538 -0.0247
17363W        W33172  10.053   3.548  10.698  0.5144 -0.0594  0.0865
17364W        W33173  13.371   0.862   4.208 -0.0454 -0.1465  0.0137
17365W        W33174  12.143   6.518   4.371 -0.0867 -0.0059  0.2435
17366W        W33175  10.578  18.749   9.811  0.1420 -0.2154 -0.1838
17367W        W33176  16.525  14.529  11.502 -0.2296  0.2018  0.0254
17368W        W33177  11.612   5.600  13.441 -0.2358 -0.1916 -0.0940
17369W        W33178  10.465   1.350  10.713 -0.1381 -0.3566  0.0917
17370W        W33179   9.127  10.828  11.569  0.0667 -0.2406 -0.2095
17371W        W33180  11.564   4.795   0.612 -0.2334 -0.0110  0.2445
17372W        W33181   3.778   6.078   0.223  0.0205  0.2707 -0.2641
17373W        W33182   0.869  10.513   5.717 -0.0139  0.0223  0.2421
17374W        W33183   9.679   3.141   0.030  0.0105 -0.1600  0.0338
17375W        W33184   1.883  18.744  13.319  0.0432 -0.0652  0.1208
17376W        W33185  16.344   2.577  14.170  0.3415  0.1003 -0.2514
17377W        W33186  14.078  15.394  13.745 -0.2982 -0.0720 -0.0503
17378W        W33187  16.149   3.420   0.461  0.3968  0.1147  0.0987
17379W        W33188  11.736  15.320   3.766  0.1397 -0.2043 -0.0482
17380W        W33189  11.233  12.439   3.615 -0.0908  0.0277  0.1925
17381W        W33190   7.471   2.069  10.580 -0.2157  0.3946 -0.2961
17382W        W33191   4.103   9.238  10.800  0.0792  0.0748 -0.3284
17383W        W33192  10.411   8.618  12.334  0.1098 -0.2102 -0.3178
17384W        W33193  15.567   3.388   0.057 -0.0212  0.0475  0.3710
17385W        W33194   8.240   7.475   0.390 -0.0365 -0.0208 -0.0586
17386W        W33195  16.981  11.243   2.180 -0.1497  0.0147  0.1977
17387W        W33196   0.228  15.364  11.021  0.2018 -0.0067 -0.0673
17388W        W33197  13.480  10.991   1.883 -0.3478  0.0690  0.2093
17389W        W33198  10.740  12.561  13.297 -0.1506  0.1437  0.0380
17390W        W33199   8.597  14.919  12.589  0.1363 -0.0453  0.0099
17391W        W33200  10.529   1.676   3.909 -0.0516 -0.0354 -0.0972
17392W        W33201  10.005  18.559   2.088  0.0010  0.2119  0.1846
17393W        W33202   9.640   0.788  14.571  0.0264  0.3094  0.2872
17394W        W33203   0.194  17.882  15.369 -0.0325  0.1264 -0.0594
17395W        W33204   9.099  16.884  12.369 -0.4788  0.2163  0.1258
17396W        W33205  13.599  16.817  14.258 -0.1991  0.0298  0.1367
17397W        W33206  14.477   0.186   2.307  0.2242  0.2892  0.0513
17398W        W33207   4.028   7.869   2.068 -0.1574 -0.3820  0.0956
17399W        W33208   2.865   6.420   4.813  0.0514  0.1596  0.0984
17400W        W33209   8.280   7.302  11.037  0.0826  0.1035 -0.3744
17401W        W33210   8.196   4.291  12.090  0.2553 -0.1706  0.1096
17402W        W33211  18.123   5.390   4.075 -0.0978  0.0245 -0.1787
17403W        W33212   3.893   4.290  11.824  0.0027  0.2346  0.1997
17404W        W33213   1.888  16.389  12.843 -0.0155 -0.0887  0.2475
17405W        W33214  17.738   8.465   1.353  0.2041  0.1390  0.0764
17406W        W33215  13.108  14.778   4.652 -0.1585  0.2350 -0.0285
17407W        W33216   5.295  18.158  14.604  0.0724 -0.0827  0.1513
17408W        W33217   3.218   2.616  15.559  0.0948 -0.0403  0.1635
17409W        W33218   9.816   5.944   3.720  0.1653 -0.0766  0.1673
17410W        W33219   6.296   6.750  12.628 -0.1172  0.3287  0.4622
17411W        W33220  12.578   0.501  13.835 -0.3995  0.1007  0.0336
17412W        W33221   2.273   9.255  13.226 -0.0114  0.0278  0.2573
17413W        W33222   8.574   1.212   3.243  0.3045 -0.1005  0.0936
17414W        W33223  12.241   8.995  13.061 -0.1248 -0.2117  0.2596
17415W        W33224   0.965   2.527  14.482  0.2815  0.1470 -0.0578
17416W        W33225   1.207  16.233   4.528  0.0909  0.1952 -0.0173
17417W        W33226   2.665   5.882   3.137  0.1291 -0.2534  0.2622
17418W        W33227   2.604  12.783   5.052 -0.1370  0.0444 -0.0926
17419W        W33228  10.925  12.205   3.277  0.1581 -0.1175 -0.0026
17420W        W33229  13.216   2.237  13.586 -0.0261 -0.0911  0.0370
17421W        W33230  17.303   3.163  12.709 -0.1595 -0.0044  0.0833
17422W        W33231  15.833   2.300   5.364 -0.2658 -0.0256 -0.0239
17423W        W33232   6.965   9.447   1.956  0.0326  0.0012 -0.0819
17424W        W33233   6.275   7.606  11.890  0.0396 -0.1509 -0.1481
17425W        W33234  12.432  15.398   5.359 -0.2853 -0.0647 -0.5149
17426W        W33235  11.215   2.242  13.360 -0.2793 -0.0056 -0.1854
17427W        W33236   7.847   2.627   4.279 -0.1657 -0.0454  0.0106
17428W        W33237   6.987  14.253   1.549  0.1380  0.1259  0.0632
17429W        W33238  15.184  13.145   4.889 -0.0312 -0.2194 -0.1969
17430W        W33239   0.135   7.228  10.855 -0.1470  0.0540  0.0356
17431W        W33240   7.661  14.966   1.943  0.0250 -0.2792 -0.0321
17432W        W33241  13.074   4.491  13.129  0.0281 -0.1124 -0.0558
17433W        W33242  15.701   5.775   5.120 -0.3484 -0.3141  0.0328
17434W        W33243   5.617   6.813   3.047 -0.0632 -0.3147  0.0839
17435W        W33244   4.533   9.611  10.594 -0.0097 -0.1630 -0.2153
17436W        W33245  18.141  13.586  12.477  0.1131  0.0666 -0.0758
17437W        W33246  10.068  12.361   0.565  0.1336  0.1288 -0.1185
17438W        W33247  11.787   7.817   4.297 -0.0408 -0.2696 -0.2347
17439W        W33248   4.622  16.663   1.285 -0.0314  0.0090  0.0326
17440W        W33249  12.691  10.174   4.492 -0.2986 -0.1851 -0.2740
17441W        W33250   1.074   7.117   3.671  0.1701  0.0046  0.1265
17442W        W33251   7.583  13.824  14.034  0.1262  0.1018 -0.0438
17443W        W33252   3.895  10.861  12.584 -0.0612  0.0340  0.0034
17444W        W33253   8.469   6.655  12.664 -0.1007  0.0530 -0.0324
17445W        W33254  11.936   1.700   1.715 -0.0169 -0.2162  0.2706
17446W        W33255   8.514  12.626   4.048 -0.1000  0.1192 -0.0154
17447W        W33256   1.628   2.298   2.890 -0.1309  0.1066 -0.0848
17448W        W33257   8.385  14.076   3.254  0.3174 -0.4954 -0.0972
17449W        W33258   4.244   0.587   0.385 -0.2108  0.3321  0.1092
17450W        W33259  12.914   7.596  14.166 -0.1737 -0.2828 -0.0128
17451W        W33260   0.256  14.850   4.606  0.0458 -0.3781  0.0064
17452W        W33261   0.370   5.196  11.666 -0.0866  0.2056  0.1109
17453W        W33262   2.851   1.553   1.890  0.2679  0.2079 -0.1466
17454W        W33263  12.545  12.454  12.650  0.0888 -0.4912 -0.2432
17455W        W33264  11.283  10.994  14.530 -0.2339 -0.2364 -0.0205
17456W        W33265  17.006  18.308  14.885  0.2282 -0.2806 -0.1471
17457W        W33266   9.272  11.977   1.820  0.0054  0.0361 -0.2470
17458W        W33267  14.313   9.924   1.339  0.1727  0.2865 -0.1272
17459W        W33268  12.205  14.245   4.902 -0.0253  0.1225 -0.1065
17460W        W33269   1.635  13.752   0.322 -0.0515 -0.3107  0.1614
17461W        W33270  10.143  17.085   1.960 -0.1587  0.0444 -0.1568
17462W        W33271   7.636  16.425   1.803 -0.1299  0.0872  0.2009
17463W        W33272  13.125   4.919   2.494  0.0194 -0.0268 -0.0753
17464W        W33273   2.688  10.882  14.500 -0.1436  0.2700  0.1566
17465W        W33274   3.996  11.912   3.946 -0.2539  0.0121  0.1609
17466W        W33275  16.966   9.111  15.377 -0.0674 -0.0487  0.0568
17467W        W33276   2.029  13.750  15.470 -0.0758  0.1762 -0.1995
17468W        W33277   6.701  15.371  11.532 -0.0161 -0.3360  0.2116
17469W        W33278   0.962   5.069  14.659 -0.1458 -0.1250  0.2284
17470W        W33279   0.708  14.076   0.136 -0.0379  0.0819 -0.1246
17471W        W33280  17.682  13.803   3.209 -0.4112 -0.1239  0.0982
17472W        W33281   2.233   2.885  10.889  0.2657 -0.2797 -0.0232
17473W        W33282  14.046   6.232   0.871 -0.1532 -0.2300 -0.0026
17474W        W33283  17.702   2.012   3.021  0.0964 -0.1418  0.2600
17475W        W33284   3.932  14.769  10.984 -0.1990  0.2717 -0.0222
17476W        W33285   5.914  14.245   1.618  0.2550 -0.1582 -0.1567
17477W        W33286  10.464   2.570   3.773 -0.1286 -0.2819 -0.2092
17478W        W33287   0.644  13.286   0.806  0.0798 -0.0018  0.0246
17479W        W33288  13.284   6.679   5.489  0.2080 -0.1053  0.1837
17480W        W33289   3.151  12.918   0.731 -0.3038 -0.0448  0.1229
17481W        W33290  18.465   2.568  10.424  0.2713  0.2516  0.1129
17482W        W33291  13.878  13.385  12.041 -0.1211  0.3633 -0.0380
17483W        W33292  15.485   3.236   5.461 -0.1648  0.1371  0.0811
17484W        W33293   6.488   8.065  12.211 -0.0146  0.0049  0.1655
17485W        W33294   4.968  17.085  13.812 -0.2138 -0.0548  0.2632
17486W        W33295   7.382   9.088   2.059  0.1243 -0.2976  0.2486
17487W        W33296  17.151  12.630   3.788  0.0546 -0.1659  0.1317
17488W        W33297   3.175  16.332  14.138 -0.0044 -0.0232 -0.1516
17489W        W33298  11.587   7.728  14.744  0.1683 -0.4489 -0.0587
17490W        W33299   3.070  11.228  10.976  0.0630 -0.0030  0.2953
17491W        W33300   9.996  13.557  14.211  0.1416 -0.0632  0.0798
17492W        W33301  17.637  12.317   3.404 -0.2012  0.1283 -0.0273
17493W        W33302  17.959   9.897  14.742  0.1749 -0.0774 -0.1486
17494W        W33303   0.586  15.938  13.941 -0.4291 -0.1845 -0.4515
17495W        W33304   6.082  11.302  14.637 -0.0539 -0.0068  0.2265
17496W        W33305   1.851  13.751   1.668 -0.2332 -0.0140 -0.3643
17497W        W33306   8.912   1.625  14.816  0.0319  0.0267 -0.1428
17498W        W33307  15.209  18.632  12.622  0.2058 -0.1139  0.0011
17499W        W33308   3.863  10.654   4.241 -0.2807  0.0140 -0.1846
17500W        W33309   9.138   4.534  12.385 -0.2265 -0.0271  0.0578
17501W        W33310   7.880   5.302  10.388  0.1130 -0.3149 -0.2269
17502W        W33311  13.325   5.998   4.691  0.2432 -0.0039  0.1850
17503W        W33312   6.324  10.405   4.495  0.0737 -0.1060 -0.2542
17504W        W33313  13.911  16.817   3.405 -0.2318  0.1771 -0.1437
17505W        W33314  11.031   4.367  12.114  0.0150 -0.2987  0.1852
17506W        W33315  12.111  12.209  12.611 -0.3743 -0.1530  0.1239
17507W        W33316  15.106  10.061   3.370  0.0910  0.2631 -0.1008
17508W        W33317   5.336  15.659  13.679 -0.0135 -0.2660  0.2233
17509W        W33318  14.366  10.138  10.744 -0.2800  0.1773  0.4050
17510W        W33319   2.392   1.903   4.948  0.1194 -0.3133  0.1259
17511W        W33320  15.055   1.620   5.637 -0.1716 -0.0770 -0.0144
17512W        W33321  15.613   1.859  11.434  0.2538  0.1112 -0.0667
17513W        W33322   7.828   9.655  13.486  0.0015 -0.0209  0.1212
17514W        W33323   6.769   2.786   1.182 -0.2494 -0.2288 -0.0720
17515W        W33324  16.383  12.876  12.185  0.0346  0.2130 -0.2732
17516W        W33325   8.035   2.272  14.250 -0.2432 -0.1734  0.1189
17517W        W33326   3.070   0.518   2.086 -0.1186 -0.0275  0.1292
17518W        W33327  16.740  11.693  11.643  0.1144 -0.0826  0.1973
17519W        W33328  12.884  15.162   1.121 -0.0297  0.2568 -0.0519
17520W        W33329   1.896  17.001   2.799 -0.1356 -0.0298 -0.0065
17521W        W33330  11.996  12.170  15.220  0.0362 -0.0660 -0.0560
17522W        W33331  10.818  18.004   4.547  0.0418 -0.0436  0.2536
17523W        W33332  11.193   1.698   2.335  0.0047  0.0634 -0.2268
17524W        W33333   3.278  13.621   4.157  0.1677  0.1829  0.0105
17525W        W33334   2.254   9.083   3.019  0.2747  0.0842  0.0103
17526W        W33335  10.867  18.132   3.414 -0.0114 -0.0125 -0.0530
17527W        W33336  14.708   1.517   2.447  0.2303  0.1246 -0.3922
17528W        W33337  15.156  16.853   1.901 -0.2220  0.0154 -0.3752
17529W        W33338  18.378   5.336  14.797  0.0582  0.1144  0.0334
17530W        W33339  13.860  18.385   6.205 -0.1848 -0.4106  0.0942
17531W        W33340  16.383  11.821  12.890 -0.2112  0.1606  0.0956
17532W        W33341  14.931   4.767   0.976  0.0796  0.0190 -0.0640
17533W        W33342   7.041   3.611   2.689 -0.1911  0.1836 -0.1174
17534W        W33343   7.534   7.896   5.131  0.2693  0.0809  0.1827
17535W        W33344  15.274   4.284  11.128  0.0407  0.0209  0.0363
17536W        W33345  15.567  12.832   2.963  0.2066 -0.0764 -0.1601
17537W        W33346   8.482   1.413   3.779  0.0838  0.1153  0.0013
17538W        W33347  16.993   7.988   3.053 -0.0198  0.0484 -0.1183
17539W        W33348  10.914  13.795   2.268  0.2756  0.0931 -0.0075
17540W        W33349   0.059  17.550  13.754 -0.1215  0.0486  0.0411
17541W        W33350   4.638  13.137  12.213 -0.2279 -0.1768 -0.0445
17542W        W33351  15.246   4.458   0.664 -0.0529 -0.0222  0.0885
17543W        W33352  13.717   0.471   1.920 -0.1003  0.1490  0.1071
17544W        W33353   9.471  13.009  12.656 -0.2884 -0.0954  0.0693
17545W        W33354   5.360   1.140   4.965  0.5265 -0.1901  0.0311
17546W        W33355   1.154  14.677   2.736 -0.0141  0.3481  0.4784
17547W        W33356   3.339   9.879  15.395  0.4201 -0.2048 -0.0650
17548W        W33357   8.382   0.075  13.954  0.3442  0.1561  0.1067
17549W        W33358   7.221  16.336   2.032  0.1763 -0.0195  0.1608
17550W        W33359  13.084   9.957   0.888  0.1464 -0.3197 -0.0814
17551W        W33360  11.580  17.175   2.187  0.0088 -0.3077  0.2040
17552W        W33361  17.078   7.058   1.449 -0.1185 -0.2578 -0.0505
17553W        W33362  17.371  16.971   5.412 -0.1030 -0.2010  0.1710
17554W        W33363   5.440  18.457  14.233  0.3617 -0.0840 -0.2708
17555W        W33364  16.929   8.409  14.809 -0.0190  0.1591  0.3211
17556W        W33365  13.606  10.195  14.250 -0.2275 -0.3076 -0.2178
17557W        W33366   0.769   9.955   2.883 -0.0445 -0.0898 -0.0753
17558W        W33367   4.904  15.632  12.163 -0.1438  0.0528 -0.0095
17559W        W33368  14.225   5.848   2.973 -0.0407  0.0820  0.1213
17560W        W33369  13.677   3.349   2.480 -0.0648  0.2420 -0.1493
17561W        W33370   8.075  10.161   1.281 -0.0841 -0.1266  0.2200
17562W        W33371   7.374   1.863   0.199  0.0791 -0.2175 -0.0277
17563W        W33372  10.419   8.166   3.295 -0.1009 -0.0103  0.3979
17564W        W33373   4.621   0.570  11.580 -0.1984 -0.0130  0.1543
17565W        W33374  12.834   3.613   1.351  0.0681  0.4529 -0.0128
17566W        W33375  12.656   1.986  14.561 -0.1108  0.3068  0.0457
17567W        W33376   4.016   6.945   5.704 -0.3327 -0.3118  0.3049
17568W        W33377  13.900  18.344  12.712  0.3723 -0.0063 -0.0155
17569W        W33378   5.845  18.629   2.141  0.3785 -0.0027  0.0388
17570W        W33379  10.469   5.119   5.125 -0.0052  0.1695  0.0865
17571W        W33380  10.252   9.776  12.173 -0.0961 -0.0424 -0.1052
17572W        W33381  10.516   2.038   0.795  0.4582  0.1948  0.0909
17573W        W33382   5.357   2.435  14.273 -0.1203  0.0489 -0.2991
17574W        W33383  11.808   8.126  12.138 -0.2892 -0.0432 -0.2491
17575W        W33384   5.068   4.927  14.174  0.2377 -0.0689 -0.0336
17576W        W33385  14.704   1.672   1.996  0.1316  0.1301  0.1175
17577W        W33386   2.215  17.536   0.541 -0.4052  0.2031 -0.1196
17578W        W33387  17.226   8.061  11.472  0.2709 -0.2656 -0.0528
17579W        W33388   0.794  12.369   3.083 -0.1919 -0.0754  0.2073
17580W        W33389  17.752  10.615   4.809  0.1138 -0.0878  0.1642
17581W        W33390   7.727  15.909  10.729  0.1829  0.1286  0.1540
17582W        W33391   1.600   7.486   1.156 -0.3238  0.1695  0.1494
17583W        W33392  18.344  17.954   1.501  0.1421 -0.1055 -0.1699
17584W        W33393  11.311   6.797   3.119 -0.0324 -0.1627 -0.0724
17585W        W33394   3.420  18.374  15.086 -0.1536  0.1574 -0.0993
17586W        W33395   3.331  17.934   1.296  0.0566  0.2157  0.1200
17587W        W33396  15.974  10.209  14.391  0.0043 -0.0214 -0.0716
17588W        W33397   5.728  14.991   3.094  0.2517 -0.1323  0.0137
17589W        W33398  13.038   4.950   4.409 -0.0147  0.0803 -0.1058
17590W        W33399   1.261  14.474  13.426  0.0416 -0.1296  0.2217
17591W        W33400   3.577  15.050   9.040 -0.1938 -0.0320 -0.2245
17592W        W33401  10.695   4.791  15.220 -0.1414  0.0581 -0.0215
17593W        W33402   9.300   3.221   4.747 -0.1671  0.1243  0.0102
17594W        W33403   6.048  15.194   0.823 -0.2415  0.2876  0.1518
17595W        W33404  12.498   8.744   4.472 -0.1249  0.2807  0.3678
17596W        W33405   3.150  10.537  14.403  0.0597  0.1314 -0.2620
17597W        W33406   3.413   1.623  11.135 -0.0699  0.1336 -0.2575
17598W        W33407  13.663   2.025   4.693  0.2096 -0.0376 -0.2426
17599W        W33408  18.340  18.236   5.915  0.0920 -0.2242  0.1667
17600W        W33409  15.270   3.971   5.993 -0.1551 -0.2086 -0.1183
17601W        W33410   3.263   0.849  12.763 -0.0972  0.0646  0.0077
17602W        W33411  15.102  12.914   1.023 -0.2272 -0.1124 -0.1207
17603W        W33412  15.455  10.816  11.390 -0.1509 -0.0649 -0.1542
17604W        W33413   2.299   0.983  10.935 -0.1884  0.3236 -0.0876
17605W        W33414  12.176   4.572   2.333 -0.1339  0.0644  0.3079
17606W        W33415  14.458  14.200   2.710  0.0617 -0.0983 -0.1240
17607W        W33416   2.471   7.507  13.027  0.0484 -0.2614 -0.0030
17608W        W33417   4.357  11.445   1.905 -0.2352  0.2232  0.0442
17609W        W33418   9.223  10.036  13.769 -0.2109 -0.0492  0.0267
17610W        W33419   7.821  18.315  11.375 -0.1259  0.0400 -0.1745
17611W        W33420   7.610  18.484  13.677 -0.1042 -0.2429 -0.0308
17612W        W33421  17.168   9.193  12.469 -0.1030  0.3922 -0.2306
17613W        W33422   1.115  18.222   4.646  0.0406 -0.0279  0.0853
17614W        W33423   7.250  15.296   3.255 -0.0522 -0.0671  0.3279
17615W        W33424   3.645  16.580   2.823 -0.3342  0.1106 -0.0896
17616W        W33425   9.445  18.016  11.530  0.0465  0.1694 -0.1187
17617W        W33426  14.048   6.064  12.638  0.1063 -0.2049 -0.2871
17618W        W33427   7.620  10.436   3.605 -0.0322  0.3479 -0.1548
17619W        W33428   1.717   9.159   0.837 -0.1304  0.0106 -0.1035
17620W        W33429   2.996   6.972  15.363  0.1289  0.0607  0.1921
17621W        W33430   4.194  13.184  10.094  0.1601 -0.1033 -0.1287
17622W        W33431   2.019  13.815   0.697 -0.3967  0.0789  0.1588
17623W        W33432  16.160  14.927   3.166 -0.1102  0.1389  0.2876
17624W        W33433  11.782  12.279   5.336 -0.1246 -0.0472 -0.1266
17625W        W33434  11.255   4.571   3.696 -0.2150 -0.4537 -0.0355
17626W        W33435   3.678  17.846   5.156  0.0187 -0.0588  0.1362
17627W        W33436  17.597  10.654  15.454  0.0579 -0.1516  0.4015
17628W        W33437  15.089  10.583  14.100 -0.1203 -0.2234 -0.2853
17629W        W33438  11.581   6.281  13.379 -0.0647  0.0113  0.1974
17630W        W33439   2.405   2.837  12.270 -0.1330 -0.2943  0.0028
17631W        W33440   9.249  16.248   5.127 -0.2838 -0.0596 -0.0346
17632W        W33441  12.891  13.376  11.550 -0.1134  0.3043  0.0080
17633W        W33442   8.066  14.921   3.013 -0.1292  0.2552 -0.0630
17634W        W33443   9.099  15.251   1.882 -0.5108  0.0832  0.1463
17635W        W33444   7.085  18.338  14.963  0.0102 -0.0499  0.1436
17636W        W33445   9.363  11.138  14.297 -0.3168 -0.1244 -0.1672
17637W        W33446  10.187   9.309  12.651 -0.0899 -0.1546  0.0533
17638W        W33447  14.509  16.167   1.024  0.0100 -0.3188 -0.2305
17639W        W33448  18.099   1.754   3.026 -0.1445  0.1550 -0.0772
17640W        W33449  15.112   1.724   2.801 -0.4234  0.2002 -0.1699
17641W        W33450  15.038   8.131  12.984  0.4041 -0.3463 -0.3016
17642W        W33451  11.887   6.110  14.201 -0.0656 -0.0634  0.0472
17643W        W33452  17.413   2.358   3.171  0.0952 -0.1094 -0.2673
17644W        W33453  17.861  14.930   1.034  0.1027  0.1475  0.2130
17645W        W33454  14.342   4.468  14.090  0.2206  0.0512  0.3381
17646W        W33455   9.967   6.398  13.250  0.2074 -0.0647 -0.0869
17647W        W33456   9.824  11.836   3.155  0.1629 -0.0564 -0.3063
17648W        W33457   3.791   2.470  13.360  0.1036 -0.2432 -0.2493
17649W        W33458   2.964   5.580  12.016 -0.0081 -0.0599 -0.0958
17650W        W33459  17.709  15.531  12.404  0.1454  0.3370  0.1705
17651W        W33460  12.872  17.988  13.010 -0.0467 -0.0741  0.0841
17652W        W33461   3.212  16.917  11.122  0.0481  0.1775 -0.1443
17653W        W33462  11.637  16.238  11.556 -0.2015  0.0171 -0.0747
17654W        W33463  10.647   2.476   1.004  0.0416  0.1020 -0.0893
17655W        W33464   9.574  17.597   4.570  0.0892 -0.1703 -0.1752
17656W        W33465  14.342  13.945  15.507 -0.2232  0.0756 -0.0179
17657W        W33466   8.384  10.787   4.922  0.1867 -0.1365 -0.2240
17658W        W33467   6.920  13.189   0.129 -0.4325 -0.2078 -0.2791
17659W        W33468   4.346  17.137   3.631  0.0807  0.4475  0.0107
17660W        W33469  17.372   2.725   3.950 -0.0711 -0.2266  0.1763
17661W        W33470   3.954   6.475  12.267  0.0129 -0.3077  0.1787
17662W        W33471   6.135   1.435   5.807  0.3625  0.2719 -0.0236
17663W        W33472  15.700   4.762   4.555 -0.2942  0.0490 -0.0797
17664W        W33473  14.939   2.455  12.541 -0.1513  0.0937 -0.1509
17665W        W33474   2.054  17.675   1.183 -0.0860 -0.1270  0.0021
17666W        W33475   2.355   8.249   3.156 -0.0709 -0.1634  0.0069
17667W        W33476  12.095   5.508   2.066 -0.2985 -0.2304  0.0598
17668W        W33477  16.618  13.923  10.857  0.0311 -0.0322  0.4386
17669W        W33478   1.065   8.119   3.607 -0.3835 -0.2077  0.0733
17670W        W33479   5.919  18.579  10.304 -0.0103 -0.1302 -0.0701
17671W        W33480  10.101   3.539  13.127  0.0641 -0.0479  0.2486
17672W        W33481   5.217   8.081   0.574  0.3804  0.2107  0.2709
17673W        W33482  12.607   9.756  10.321 -0.1274 -0.1005 -0.0974
17674W        W33483  12.914  17.037  14.703  0.0854  0.0210  0.3190
17675W        W33484  10.341   0.585  15.541  0.2736  0.0110 -0.0534
17676W        W33485   5.441   2.404  14.906 -0.0747  0.0639  0.1972
17677W        W33486   7.987   8.178  12.040 -0.0564  0.2462 -0.0421
17678W        W33487   2.047   3.378   3.963 -0.2099 -0.0835  0.1745
17679W        W33488   7.412   5.086   3.032  0.0743  0.1786 -0.1859
17680W        W33489   6.633   3.620  11.791 -0.1212 -0.0810  0.3466
17681W        W33490   5.535   8.198  15.421 -0.1110 -0.0407  0.1431
17682W        W33491   8.073  10.606  13.768  0.1374  0.2639  0.4484
17683W        W33492  11.968  16.075   0.306 -0.1208 -0.2636  0.2143
17684W        W33493  15.465  14.360  15.060 -0.0574 -0.3031  0.1535
17685W        W33494  14.641   3.028   2.771 -0.0430  0.0999 -0.0636
17686W        W33495   1.191  18.415   2.325  0.0698 -0.1679 -0.3572
17687W        W33496   6.189  15.470  13.269  0.0737  0.1023  0.5345
17688W        W33497   8.401  17.429   2.455 -0.1613  0.1452 -0.2270
17689W        W33498  12.987   5.560   1.033  0.2074  0.1846  0.2297
17690W        W33499  15.051   0.215  14.738 -0.1798  0.0067 -0.2249
17691W        W33500   6.625   1.814   4.181 -0.0915 -0.0348 -0.2752
17692W        W33501  17.385   3.856   3.390  0.0531 -0.3690 -0.0018
17693W        W33502   1.979  13.548  10.658 -0.1442 -0.2701  0.0376
17694W        W33503  14.778   3.936   3.056  0.2007 -0.0681  0.1016
17695W        W33504   2.640  10.782  12.996 -0.1976  0.0635 -0.0772
17696W        W33505   9.163   0.308  12.999 -0.0288  0.2662  0.0474
17697W        W33506  14.836   5.732  14.793  0.1928  0.0004 -0.1072
17698W        W33507   0.803  18.595  14.242  0.2203 -0.1142 -0.0789
17699W        W33508   4.746   0.820  12.247  0.3862 -0.1223  0.0110
17700W        W33509   8.559  18.161   2.978  0.2957  0.2811  0.0931
17701W        W33510   4.647   7.663  10.295 -0.1730  0.0140  0.0751
17702W        W33511  12.408  14.100   5.347 -0.3613  0.0404  0.2805
17703W        W33512  18.703   5.404  11.828  0.1364  0.1926 -0.1477
17704W        W33513   8.609   2.428  15.022 -0.0465  0.0520  0.1561
17705W        W33514   8.758   6.372   4.460 -0.2658  0.0117 -0.0021
17706W        W33515  12.201   9.194  15.557  0.0387  0.0146  0.2765
17707W        W33516  17.816   5.687  13.954  0.0830 -0.2808  0.2567
17708W        W33517  13.782  11.709   2.716 -0.0110  0.2933  0.0103
17709W        W33518  13.128  16.900   3.950  0.1269 -0.2782  0.1307
17710W        W33519  13.458   7.042   9.924 -0.1209 -0.1993 -0.0858
17711W        W33520   3.311   1.407   1.974 -0.0194  0.1696  0.0845
17712W        W33521   9.889  14.636  14.792 -0.0459 -0.0373  0.1872
17713W        W33522  16.044   9.254   5.669 -0.2085  0.1602 -0.1651
17714W        W33523   7.345  12.958   2.120 -0.0954 -0.1622  0.0034
17715W        W33524  10.217  13.210  12.450  0.0004 -0.1329  0.2397
17716W        W33525   1.858   5.864  14.014 -0.2045 -0.1269 -0.1773
17717W        W33526  17.417   8.084   1.353  0.2752 -0.2612 -0.1445
17718W        W33527   5.508  17.458  11.757 -0.1755 -0.1229  0.3039
17719W        W33528  13.094   7.261  14.805 -0.2108 -0.1992 -0.0336
17720W        W33529  15.800   1.785  10.236  0.2473 -0.0524  0.2549
17721W        W33530   9.305  12.791   0.943  0.1450  0.0199 -0.3254
17722W        W33531   9.448   6.329   1.972  0.0497  0.3311  0.0189
17723W        W33532  16.540   0.310   0.800 -0.3314 -0.0255 -0.0364
17724W        W33533   5.731  18.418   1.693  0.0497 -0.3385 -0.0188
17725W        W33534  11.536  12.222  12.795  0.0818  0.0634  0.0962
17726W        W33535   1.577   9.834   4.721 -0.4441 -0.4452  0.1667
17727W        W33536  13.047  16.503   3.251  0.6045  0.1945 -0.1511
17728W        W33537  11.684   7.785  13.033 -0.0131 -0.0369 -0.1355
17729W        W33538  16.802  10.844  11.597 -0.0905 -0.2008 -0.2029
17730W        W33539   4.916   3.360  11.034 -0.0143 -0.0507  0.0837
17731W        W33540   8.072   6.159  15.145  0.0936 -0.1413  0.2083
17732W        W33541  18.722  17.696   1.368  0.3115 -0.3317  0.1782
17733W        W33542   9.743   4.527   5.595  0.0945 -0.2838  0.0692
17734W        W33543  11.079  13.761   2.877 -0.1230  0.2477  0.0018
17735W        W33544   9.576   3.903  12.826 -0.1238 -0.1887 -0.1372
17736W        W33545  12.993   4.052  14.113 -0.2225 -0.1190  0.0057
17737W        W33546   4.187   4.373  13.751  0.0094  0.1492 -0.0898
17738W        W33547  11.187   1.934  11.787 -0.2650 -0.0670 -0.2536
17739W        W33548  11.996  15.439   5.689 -0.1255 -0.0118 -0.0797
17740W        W33549  12.203   7.574   4.530  0.1253  0.0204 -0.1026
17741W        W33550   6.198  14.597   1.855 -0.1760  0.1356 -0.2540
17742W        W33551   8.046   2.027   1.110  0.1736  0.2277  0.1481
17743W        W33552  13.151   7.974  10.910  0.3443  0.0269  0.5060
17744W        W33553  12.658   5.197  11.848 -0.1825  0.0244 -0.3001
17745W        W33554  14.471   5.212   4.800  0.0401 -0.3198  0.2972
17746W        W33555  18.754   4.509   9.644  0.2960 -0.0643 -0.1047
17747W        W33556  16.249   2.738  11.338 -0.3322  0.0740  0.0795
17748W        W33557   0.541   9.044  11.930 -0.2089  0.0654  0.0382
17749W        W33558  15.142  11.783  14.125  0.1472  0.1255  0.0004
17750W        W33559  16.983   4.917   2.572  0.0208 -0.2260 -0.3405
17751W        W33560   9.218   2.533   4.136  0.3356 -0.0085  0.1937
17752W        W33561   3.375   8.081  14.976  0.1630  0.1545 -0.2527
17753W        W33562  15.377  14.933  15.100 -0.0428 -0.0278  0.0568
17754W        W33563  16.573  18.227   1.294 -0.0030  0.0533 -0.1348
17755W        W33564  12.378   9.136   5.350  0.2427 -0.1090 -0.0963
17756W        W33565  10.227  18.263   3.926 -0.0730  0.0656  0.2616
17757W        W33566  11.673   8.242   0.650  0.1726  0.0731 -0.3491
17758W        W33567   5.588  12.697  12.531  0.0105 -0.0422  0.1714
17759W        W33568  13.561  14.642  12.834 -0.1875  0.0365  0.3669
17760W        W33569   1.981  12.703   4.086 -0.0011 -0.0149  0.0251
17761W        W33570   5.464  12.938  14.579 -0.1012 -0.1396 -0.0796
17762W        W33571   3.569   9.842   2.231  0.0244  0.1634 -0.0980
17763W        W33572  13.636   7.735   2.554 -0.0922 -0.2061  0.0605
17764W        W33573   0.618  10.018   3.691  0.1066 -0.1375 -0.0911
17765W        W33574  14.252  17.447  14.195  0.0783 -0.0490  0.0586
17766W        W33575  15.541   5.286   3.072 -0.1070  0.0844 -0.1433
17767W        W33576  10.935   7.843  14.548  0.1499 -0.0950 -0.1062
17768W        W33577   8.449  18.111  13.679 -0.2353  0.0518  0.1289
17769W        W33578   5.448  14.569   3.943  0.2566  0.1670 -0.2191
17770W        W33579   4.564  15.199  12.270  0.0478  0.0099  0.1149
17771W        W33580   3.452  13.353   1.654 -0.0627  0.3355 -0.1038
17772W        W33581   9.623  13.110  13.847  0.1744  0.0679 -0.1107
17773W        W33582   2.047   1.648  13.626 -0.0450  0.0078  0.0958
17774W        W33583  13.768   3.049   0.247 -0.1034 -0.2288 -0.1063
17775W        W33584  11.870   7.761  11.808 -0.1654 -0.2088 -0.2640
17776W        W33585  12.999  10.818  14.149  0.0599 -0.2292 -0.1199
17777W        W33586   7.459   3.043  13.840  0.0858 -0.0010 -0.3920
17778W        W33587  15.812  16.290   3.084  0.0566  0.2068  0.0353
17779W        W33588   9.569  15.323   0.294 -0.2341 -0.0357  0.3813
17780W        W33589   6.488   9.208  11.577  0.0483 -0.0587  0.0430
17781W        W33590  15.952   3.071   3.071 -0.0187  0.1263  0.0477
17782W        W33591   1.072   6.299  11.191  0.1162  0.0036  0.0824
17783W        W33592   4.243   7.507   4.965  0.3081 -0.0736 -0.0573
17784W        W33593  12.928  18.649   1.841  0.2357  0.3051  0.0933
17785W        W33594  13.623  16.410   4.156  0.4146 -0.0593  0.2929
17786W        W33595   6.889   2.190  13.719 -0.0414  0.1709  0.0711
17787W        W33596   2.119   0.463   2.110 -0.0188  0.1080 -0.0821
17788W        W33597  16.508   3.222   2.106  0.2115 -0.1103  0.4962
17789W        W33598   9.964   1.869  11.026 -0.0351 -0.0423 -0.1911
17790W        W33599   3.412   4.724   2.092  0.2394  0.1235 -0.0972
17791W        W33600   4.303  10.123   4.316 -0.1596 -0.1634  0.0468
17792W        W33601  13.737   8.961  11.495 -0.0682 -0.0889  0.0517
17793W        W33602   5.097   5.042   3.407 -0.3262  0.1460  0.0613
17794W        W33603  17.790   4.754   4.794  0.0682  0.1235  0.1083
17795W        W33604  11.408   7.826   2.558  0.2274 -0.2023 -0.4373
17796W        W33605   3.390   4.120  13.143 -0.1273  0.0688  0.0120
17797W        W33606  13.310   4.481   5.178  0.1412 -0.0523  0.0055
17798W        W33607  14.572  13.561  11.737 -0.0320  0.3094 -0.1509
17799W        W33608   3.949  16.236  10.571 -0.0789 -0.0733  0.0274
17800W        W33609  11.796  18.397  12.556  0.1207  0.1394 -0.1216
17801W        W33610   4.652   8.396  13.339 -0.1471 -0.2386 -0.1586
17802W        W33611  13.863   7.207   9.646  0.3386 -0.0705 -0.1312
17803W        W33612   0.172   9.711  13.365  0.1456  0.2002 -0.0520
17804W        W33613  16.687   9.852  10.398  0.1115  0.0060  0.2016
17805W        W33614   8.089  17.090   1.642 -0.3093  0.1315 -0.0185
17806W        W33615   2.558   3.569  10.827 -0.3366  0.0233  0.2736
17807W        W33616  10.643  12.063  14.080 -0.0250 -0.1470 -0.4339
17808W        W33617  11.445  15.096   2.642 -0.0685  0.3616  0.2162
17809W        W33618   6.193   9.528  11.906  0.1091  0.2824  0.1287
17810W        W33619   1.250   4.678   0.162 -0.1575  0.0637 -0.0631
17811W        W33620   9.927   1.838   0.207  0.1132  0.1635 -0.2373
17812W        W33621   6.437  11.352  11.399 -0.1575 -0.3590  0.1360
17813W        W33622  12.283   6.649  10.860 -0.2430 -0.0292  0.0833
17814W        W33623   4.552  14.604   4.238 -0.1826 -0.0110 -0.0681
17815W        W33624   9.382  15.255  11.562 -0.2414  0.1477 -0.1697
17816W        W33625   4.700  13.891  14.086  0.0982 -0.2917  0.2144
17817W        W33626  10.626  16.267  14.528  0.3313 -0.0154  0.1608
17818W        W33627  13.584   9.369  11.341 -0.1160  0.1468 -0.0958
17819W        W33628   4.030   4.376   3.136  0.1203 -0.0119 -0.0813
17820W        W33629   2.095  16.717  14.690 -0.0747  0.1436 -0.0608
17821W        W33630  12.519   9.607  13.810  0.1023  0.1162  0.2080
17822W        W33631   3.070  10.213  14.869 -0.3971  0.0448 -0.1987
17823W        W33632  11.308  13.537   2.476 -0.1163  0.0480  0.0656
17824W        W33633  15.130  10.291  12.723  0.1532  0.1265  0.1361
17825W        W33634   4.001   8.037  14.530  0.2895  0.0042 -0.1169
17826W        W33635  18.544   4.693   3.295 -0.2445 -0.1400 -0.2736
17827W        W33636  15.991  18.531  13.344  0.3174 -0.2241  0.1952
17828W        W33637  18.310  16.225  12.366 -0.1195 -0.0006  0.1397
17829W        W33638   1.178   4.317   4.448  0.1966 -0.0319 -0.0206
17830W        W33639  12.874   5.824   4.143  0.0898  0.1309 -0.0236
17831W        W33640  12.757  18.445   2.822 -0.1370 -0.0447 -0.0756
17832W        W33641   3.183   1.087  11.320 -0.2304  0.0127 -0.2175
17833W        W33642   1.068   6.296  14.348  0.0763 -0.1590  0.2261
17834W        W33643  15.064   5.213   2.795 -0.0559  0.1066  0.3438
17835W        W33644   4.764  13.823   1.403  0.0607 -0.2284 -0.1691
17836W        W33645  16.253  10.611  10.808 -0.3477 -0.0435  0.0094
17837W        W33646   1.985   5.083  10.998 -0.0009  0.0379  0.0038
17838W        W33647   3.492   2.924   0.329  0.2248  0.0046 -0.0994
17839W        W33648   1.612   9.512   2.628  0.0282 -0.0124 -0.1446
17840W        W33649  14.583  11.755  12.285 -0.0100 -0.0947  0.0510
17841W        W33650  11.980  13.353   4.752  0.0714  0.1363 -0.0538
17842W        W33651   3.792  17.060   1.731  0.0179  0.1208  0.0208
17843W        W33652   4.029   0.422  10.733  0.0514  0.3533  0.0033
17844W        W33653  16.115  13.655   3.745  0.1775  0.3367 -0.2735
17845W        W33654   8.467   4.732  15.000  0.1515  0.1770 -0.2748
17846W        W33655  16.058  13.941   0.528 -0.0993 -0.0484  0.1598
17847W        W33656   2.985  10.468   1.061 -0.2912 -0.1842 -0.1352
17848W        W33657   1.412   4.152  13.461 -0.1483 -0.2063  0.1829
17849W        W33658  13.479   6.441   5.110  0.1220  0.4984  0.1482
17850W        W33659  13.604  15.767  12.171  0.0431 -0.0545  0.2216
17851W        W33660   4.197  14.857  15.180 -0.3067 -0.2422  0.2369
17852W        W33661   6.889  11.716  14.300  0.0343 -0.2275  0.1481
17853W        W33662   6.512  15.121   0.965 -0.2534 -0.1258  0.0263
17854W        W33663   7.090   9.095   0.395 -0.0361  0.1177 -0.1344
17855W        W33664  13.618  13.293   4.386  0.1989 -0.0682  0.0126
17856W        W33665  18.653  13.964   0.177  0.2289 -0.1138 -0.1746
17857W        W33666   8.365   4.420  12.970  0.1264  0.1423  0.2151
17858W        W33667   1.353  13.207  14.302 -0.0462 -0.0721  0.0799
17859W        W33668   5.062  17.639   1.526  0.1808 -0.0341 -0.2722
17860W        W33669   0.859   2.869  11.521 -0.0412  0.0723  0.1118
17861W        W33670  12.879   5.326  12.850 -0.0883 -0.4251  0.1724
17862W        W33671  10.833  10.122  13.900  0.3825 -0.2947  0.1600
17863W        W33672   6.218  18.076  13.773  0.3567  0.1470  0.2837
17864W        W33673  17.314   2.643  12.543 -0.2821 -0.1106 -0.1645
17865W        W33674  16.855   5.253   2.154 -0.4067  0.1504 -0.0374
17866W        W33675   2.254  17.311  13.104 -0.0870 -0.1625  0.0630
17867W        W33676   3.609  14.031  12.711  0.0974  0.0597  0.1505
17868W        W33677   0.137  16.039   2.101  0.0630 -0.0455 -0.0395
17869W        W33678  18.420  12.772   4.416  0.0547  0.1091  0.1368
17870W        W33679   4.189  12.047  10.787 -0.0693 -0.1324  0.0347
17871W        W33680   9.268  11.410   2.541 -0.2866  0.2859 -0.3812
17872W        W33681   5.637  17.266  15.553  0.1372  0.2011  0.2985
17873W        W33682   3.209   6.038   0.066  0.0051  0.4532 -0.2558
17874W        W33683   3.395   7.997  12.054  0.0755 -0.0241  0.0863
17875W        W33684  18.758  15.621   4.785 -0.2169  0.0033 -0.0506
17876W        W33685  15.520   8.124  11.171 -0.0645 -0.1136 -0.0239
17877W        W33686   8.607  15.238   2.014  0.0169  0.2242  0.2370
17878W        W33687  17.368   1.359  12.059  0.1283  0.0400 -0.0398
17879W        W33688   7.173   9.797  13.492  0.1363 -0.1060 -0.0500
17880W        W33689   5.888  16.503  10.977 -0.0551  0.1293 -0.1216
17881W        W33690  10.159  16.493  13.140 -0.1230  0.0569 -0.0160
17882W        W33691  10.326   7.684   4.158  0.0967 -0.2070  0.2354
17883W        W33692   1.854  16.719   1.475  0.0297  0.1343  0.0280
17884W        W33693  17.100  13.714   1.791  0.1663  0.0294  0.0086
17885W        W33694  11.206  16.429  12.314 -0.0234 -0.1904 -0.4581
17886W        W33695   5.009  16.633   2.301 -0.1947 -0.1046 -0.2176
17887W        W33696  13.725   9.100   2.924 -0.0930 -0.0249 -0.2635
17888W        W33697   6.188   7.007   0.447  0.0904  0.3464 -0.0441
17889W        W33698  14.755   4.807  13.153  0.1786  0.1942 -0.0491
17890W        W33699   4.038   1.688   4.023 -0.2037  0.2423  0.0888
17891W        W33700   9.113   5.821   2.011 -0.1214 -0.2979 -0.4506
17892W        W33701  18.660  17.125   3.541 -0.1805  0.2399  0.0449
17893W        W33702   4.481   6.941   4.764  0.1185 -0.0509  0.0605
17894W        W33703   0.623   2.598  13.633  0.1592 -0.3441 -0.1495
17895W        W33704  16.919  17.070   1.438  0.1770 -0.0692  0.1864
17896W        W33705   7.713   1.939  13.668  0.0171  0.0905 -0.3988
17897W        W33706   2.651   7.704   1.637  0.0629  0.1450  0.1794
17898W        W33707   1.839   0.160  14.691 -0.0655  0.0096 -0.4698
17899W        W33708   7.733   4.800   1.857  0.1415 -0.1734 -0.2424
17900W        W33709  10.451  14.717  11.877  0.0645  0.0570 -0.1784
17901W        W33710   6.660  16.347  13.902  0.1224  0.4387  0.0645
17902W        W33711   4.155   5.024  14.419 -0.2368 -0.1455  0.1894
17903W        W33712   5.105   1.235  14.896 -0.0065  0.1034 -0.1654
17904W        W33713   9.191  16.806   3.321 -0.2813 -0.0079 -0.0731
17905W        W33714   3.952   1.944  10.003  0.0373  0.0822 -0.0941
17906W        W33715  16.472   5.683  14.266  0.0970 -0.1458  0.1042
17907W        W33716  13.783   7.366  10.191  0.0308  0.1020  0.0668
17908W        W33717   5.261  13.343  11.376  0.2838 -0.2503 -0.1068
17909W        W33718   4.198   2.691   0.784 -0.1109  0.0641 -0.0413
17910W        W33719  15.172  12.769  11.855  0.1555  0.0262  0.1655
17911W        W33720  12.451  12.668   2.388  0.0338 -0.1942 -0.0873
17912W        W33721  18.551   1.958   3.315 -0.1538 -0.0355  0.2687
17913W        W33722  12.161  17.348  10.606 -0.0709  0.3769 -0.0872
17914W        W33723   5.491   9.418   4.187  0.0246 -0.3492  0.2976
17915W        W33724   6.692   0.033   2.010 -0.0554 -0.0348  0.0577
17916W        W33725  12.569   5.409  15.371 -0.0456  0.0431  0.4539
17917W        W33726  16.020   2.412   4.003  0.0700  0.0610  0.0789
17918W        W33727  18.329  12.409   3.079  0.1292 -0.0907 -0.2592
17919W        W33728   0.763   3.673  11.660  0.0616  0.2637  0.0472
17920W        W33729  12.460  18.318   2.423  0.1596 -0.0986 -0.0208
17921W        W33730  11.917   8.594   3.662  0.1286 -0.0371 -0.0212
17922W        W33731  16.550   7.163  11.306 -0.1389 -0.0316  0.0679
17923W        W33732   8.951  13.581  14.903 -0.1153 -0.0918 -0.1936
17924W        W33733  17.921   9.742   1.210  0.1131 -0.0189  0.1426
17925W        W33734   4.493  14.709  11.932 -0.3906 -0.1998 -0.0908
17926W        W33735   1.351   7.579   2.929  0.0218 -0.1726 -0.4537
17927W        W33736   4.934  11.837   3.768  0.0623  0.0192 -0.0831
17928W        W33737  17.131  14.850  13.252  0.1783  0.1739 -0.1237
17929W        W33738   2.274   6.562  13.296 -0.1285 -0.1010  0.0424
17930W        W33739  18.506  16.334   2.418 -0.0522 -0.0930 -0.2311
17931W        W33740   6.039   7.114   4.243 -0.0306  0.2490 -0.2364
17932W        W33741   0.465  14.730  14.406  0.3327  0.3240  0.2021
17933W        W33742  15.337   5.608   2.647 -0.2628  0.3573  0.4222
17934W        W33743   0.459  12.640  11.137 -0.0111 -0.3226 -0.4237
17935W        W33744  11.502   2.134   5.563  0.0810  0.2046 -0.0725
17936W        W33745   4.589  13.016   9.714 -0.4764  0.1118 -0.0666
17937W        W33746  18.174  13.737  14.435 -0.0832 -0.1163 -0.0200
17938W        W33747   1.734   4.635   0.348  0.0426 -0.1582 -0.1359
17939W        W33748   6.888  12.158  14.616  0.2915 -0.1702 -0.1000
17940W        W33749  11.271   4.429   0.316  0.1366 -0.1321 -0.0231
17941W        W33750  12.759   0.956   6.016  0.1853 -0.0289  0.0115
17942W        W33751  14.260   6.098   3.426 -0.0108 -0.1346  0.1919
17943W        W33752  12.395   6.411   1.950  0.3119  0.0221  0.0015
17944W        W33753  12.986   1.160   1.538  0.1190  0.1680  0.1650
17945W        W33754   8.311   2.491  15.514 -0.1213  0.3525 -0.1918
17946W        W33755  18.700   1.454   1.037  0.1973 -0.1812  0.2158
17947W        W33756  10.608   1.641   2.547 -0.2547  0.0171  0.1746
17948W        W33757   4.894  17.668   4.364 -0.3703 -0.0461 -0.1972
17949W        W33758  12.495  12.149  10.806 -0.0913  0.0249  0.0136
17950W        W33759  17.155   8.108   3.585  0.2023  0.1414  0.1067
17951W        W33760  11.931  18.087   1.443 -0.2977  0.1438  0.0729
17952W        W33761  11.066   0.002   3.694 -0.1822  0.0070 -0.2376
17953W        W33762   1.150   7.698  13.751  0.1255  0.0730 -0.1445
17954W        W33763  11.369  11.452   9.632 -0.0987 -0.2667 -0.0710
17955W        W33764  11.371  13.859   2.086  0.1576 -0.1982  0.2702
17956W        W33765  13.632  13.807   2.025  0.2712 -0.0767  0.2077
17957W        W33766   1.032  10.159   2.504 -0.0304  0.1148 -0.2143
17958W        W33767  17.325   5.066   2.163 -0.3155 -0.0116  0.1781
17959W        W33768  16.596  10.988   3.138 -0.2101 -0.1081 -0.2077
17960W        W33769   4.510  16.694   2.287 -0.2492 -0.1896 -0.2537
17961W        W33770   0.981   4.660   0.622 -0.0876 -0.3216  0.2508
17962W        W33771   1.497   6.727  15.072 -0.2827 -0.3761 -0.0030
17963W        W33772  13.796   6.669  14.436 -0.1690  0.2375 -0.0764
17964W        W33773  11.662   5.626   1.612  0.2493  0.0670  0.1549
17965W        W33774   2.377   2.919   9.720 -0.0910  0.1393  0.0145
17966W        W33775  10.442   6.469  11.055 -0.1143  0.0271  0.2650
17967W        W33776   3.683   3.164  14.011 -0.0099 -0.0147  0.1283
17968W        W33777  11.020  12.288   2.052 -0.2897 -0.0425 -0.1673
17969W        W33778  17.764   1.038   3.710  0.2667  0.0679  0.0545
17970W        W33779  13.283  15.633  11.131 -0.0658 -0.0946 -0.4266
17971W        W33780   7.923   1.271   3.986 -0.0151 -0.0609 -0.1149
17972W        W33781   7.438  10.136  10.984  0.1380  0.2243 -0.0339
17973W        W33782   7.083   4.622  11.337  0.3021 -0.0409 -0.2083
17974W        W33783   2.144  17.131   5.380  0.0291 -0.0622  0.1042
17975W        W33784   5.261   7.801   3.261  0.1231  0.2553 -0.0175
17976W        W33785   5.886   4.435   2.596  0.3791  0.1239  0.1492
17977W        W33786   1.913   5.271   1.641  0.1618  0.4228 -0.0279
17978W        W33787   5.292   3.499  12.549  0.1219 -0.0544 -0.1256
17979W        W33788  11.983   7.440   1.820  0.1599 -0.1370  0.1517
17980W        W33789   9.745  16.892   2.199 -0.1322 -0.0985 -0.0406
17981W        W33790  18.060   6.150  13.488 -0.1970 -0.2318 -0.1663
17982W        W33791   9.257  12.838   0.472  0.0218  0.0777  0.2228
17983W        W33792  16.538  13.072   5.086  0.1120 -0.1113 -0.2045
17984W        W33793  15.727   7.377   4.570  0.1892  0.1306 -0.1430
17985W        W33794  15.129   0.622   0.950  0.0471 -0.3077 -0.1189
17986W        W33795   6.724  12.607   0.876 -0.1014  0.1583 -0.2555
17987W        W33796   8.890  14.180   1.955  0.0537  0.0863  0.3015
17988W        W33797   6.327  16.627  14.852 -0.2155 -0.0485  0.1561
17989W        W33798   4.898  14.646   0.030  0.2368  0.1441  0.2351
17990W        W33799  10.646  12.863  12.746 -0.0142  0.1426 -0.0895
17991W        W33800  15.406   1.121   2.084 -0.1633  0.1961 -0.0508
17992W        W33801   0.654  17.012  12.921 -0.2456 -0.4746  0.1749
17993W        W33802  11.286  18.114  11.263  0.0967  0.1878  0.0136
17994W        W33803  11.037   5.683  11.336  0.1188  0.0274 -0.1171
17995W        W33804   2.621  16.781  15.018  0.0757  0.0562  0.0938
17996W        W33805   2.694   8.294  12.131  0.0030  0.3230 -0.1980
17997W        W33806   2.833  13.234   0.484  0.1540  0.0922  0.0039
17998W        W33807   4.552   6.473  11.159  0.0712 -0.3223  0.1397
17999W        W33808   1.962   3.539  15.270  0.0624  0.0127  0.2761
18000W        W33809  16.273   5.230   5.176 -0.2366  0.0419 -0.0330
18001W        W33810  10.704   6.195   4.202 -0.0436 -0.2820  0.1479
18002W        W33811  17.784  18.504  11.534 -0.2025  0.3470 -0.2111
18003W        W33812  10.901   8.427  14.681 -0.1014  0.0313  0.0853
18004W        W33813   6.312  12.532  11.117  0.0621  0.0977 -0.3247
18005W        W33814   7.046   0.328  11.265  0.1399  0.0361  0.4131
18006W        W33815   5.485   2.955  15.099  0.1143  0.1890  0.0142
18007W        W33816   2.581   7.679   4.782 -0.0455 -0.2587  0.1037
18008W        W33817   9.129  11.897   3.911  0.0124 -0.0324 -0.1335
18009W        W33818   6.522   6.295  12.805 -0.0251  0.1370  0.0426
18010W        W33819   7.134  15.093  12.486  0.0059  0.2982  0.2236
18011W        W33820   2.300   0.438   0.570  0.1159 -0.2079 -0.1444
18012W        W33821  10.336   2.965  12.609  0.1162  0.0532  0.2264
18013W        W33822   5.471  10.251   0.505  0.0242  0.3456  0.0732
18014W        W33823   4.677  12.740   5.176  0.1152  0.2855  0.1821
18015W        W33824   0.517  13.661   3.197 -0.1172  0.1576  0.0762
18016W        W33825   3.291  11.961  13.277 -0.2886 -0.0310 -0.2057
18017W        W33826   2.916   0.063   2.418  0.1648  0.2037  0.2361
18018W        W33827   6.631   6.389   2.942 -0.0696  0.0596 -0.0361
18019W        W33828  15.562   7.711  14.751 -0.0560 -0.1915 -0.3067
18020W        W33829  10.770  18.612  12.610 -0.4576 -0.4331  0.0204
18021W        W33830  18.252   2.277  12.319  0.1750  0.2017 -0.2068
18022W        W33831   5.668  11.654  10.778 -0.4732  0.0865 -0.2723
18023W        W33832   0.429   8.674   3.457  0.1908 -0.1899 -0.1147
18024W        W33833   0.500   7.594   3.906  0.0257 -0.1248  0.0045
18025W        W33834  15.477   6.504  12.585 -0.3800 -0.0071  0.1633
18026W        W33835  15.569   3.349   1.514 -0.1117 -0.2276  0.0687
18027W        W33836  17.947   6.949   1.097 -0.0965  0.2707 -0.1813
18028W        W33837   0.787  18.034  12.122 -0.0394 -0.1684 -0.1622
18029W        W33838  14.518  14.041   1.615 -0.0068 -0.2044  0.3149
18030W        W33839   2.298  13.905  11.851 -0.3065  0.1988 -0.1383
18031W        W33840  10.878  14.580   3.428 -0.4806  0.1658 -0.1294
18032W        W33841  11.259   8.527  15.116 -0.0941  0.0816 -0.1140
18033W        W33842  10.373   5.225  14.861 -0.1342 -0.3650  0.0390
18034W        W33843   3.382  15.173   2.435  0.1505 -0.0422  0.0448
18035W        W33844   2.928  16.281  13.754  0.1317  0.2141  0.0016
18036W        W33845   9.888   8.892  14.383  0.1326 -0.4226  0.4386
18037W        W33846   9.944   8.403   4.561  0.3523 -0.4294  0.0236
18038W        W33847   5.480   7.763  14.582  0.3932  0.1729 -0.1722
18039W        W33848  10.504   7.509   0.750 -0.3811 -0.2097 -0.3719
18040W        W33849  13.104  10.384  12.279 -0.2461  0.1779  0.1588
18041W        W33850  17.740  17.755  13.689  0.1582 -0.0073  0.4471
18042W        W33851  16.788  13.600  11.249 -0.1259 -0.1814 -0.0592
18043W        W33852   0.619  16.045  12.868 -0.0417 -0.1153  0.1076
18044W        W33853  11.012  10.614  14.820  0.1234 -0.1536  0.3615
18045W        W33854   3.032  11.590   0.940  0.1550  0.2309 -0.0752
18046W        W33855  13.353   5.418  13.692 -0.3827 -0.0504  0.3510
18047W        W33856  16.432   7.442  14.088  0.0483  0.0183  0.0692
18048W        W33857  12.897  17.452  13.416 -0.3308 -0.1278 -0.3440
18049W        W33858   9.767  16.499   5.042  0.0560  0.4663 -0.0029
18050W        W33859  14.349   6.579  12.656 -0.1468  0.1571 -0.0242
18051W        W33860  10.219   4.578   0.387  0.1209 -0.0484  0.1918
18052W        W33861   8.628   8.062  10.603 -0.0727  0.0480  0.1402
18053W        W33862   1.069  17.821  13.558  0.0489 -0.0614 -0.1307
18054W        W33863  18.179  15.910   0.650 -0.5017 -0.0893  0.2118
18055W        W33864  16.700  14.675  12.934 -0.0024  0.1619 -0.0150
18056W        W33865  17.691   2.575  11.236 -0.0140  0.0903 -0.1766
18057W        W33866  11.257   6.412   2.672  0.0363  0.1072 -0.1467
18058W        W33867  13.610  11.238  13.489  0.3207  0.2648 -0.0916
18059W        W33868  18.311  16.878   0.162  0.3513  0.0050  0.0929
18060W        W33869   6.401   6.192   1.972  0.0172 -0.1154  0.0179
18061W        W33870   0.751  15.047   3.379 -0.3877  0.1180  0.0381
18062W        W33871   3.444  12.829  13.875  0.1767  0.1081 -0.0335
18063W        W33872   2.071   9.125  15.484  0.1868 -0.1268 -0.0990
18064W        W33873   3.006   7.980  12.337 -0.0339 -0.0371 -0.1207
18065W        W33874   8.729   3.748  10.456 -0.0918 -0.0622  0.1098
18066W        W33875   0.263   1.097   2.256  0.0448  0.4608  0.5742
18067W        W33876   6.688   0.053  15.477  0.1564  0.0125  0.2165
18068W        W33877   7.245   6.591  14.542  0.1392 -0.1284 -0.0208
18069W        W33878   1.136   1.573   3.215  0.0963  0.2027 -0.0259
18070W        W33879   5.381  16.020  15.519 -0.3416 -0.1192 -0.4296
18071W        W33880   8.203   6.926   5.612  0.1725  0.0719 -0.0750
18072W        W33881  18.759   4.208  14.503  0.1795 -0.2551 -0.0384
18073W        W33882   2.124   2.244   3.680  0.0427  0.2454 -0.2014
18074W        W33883  12.091   1.991  12.503 -0.0399 -0.0284  0.0176
18075W        W33884   4.262  11.349   3.357 -0.2606  0.0871  0.0666
18076W        W33885   4.418   1.209   1.060  0.3192 -0.0088 -0.0745
18077W        W33886   0.091  12.233  15.221 -0.3278 -0.1923  0.1604
18078W        W33887   7.877   9.078   2.850 -0.0372  0.1083 -0.0464
18079W        W33888  16.663  13.330  15.241 -0.0149 -0.0402  0.1504
18080W        W33889   7.549  16.812   2.062 -0.0024 -0.0003  0.1473
18081W        W33890  18.496  13.198   5.016 -0.0006 -0.3168  0.3275
18082W        W33891  18.600  17.147  14.954  0.1939 -0.0628  0.1807
18083W        W33892  12.282   4.779  14.330 -0.1252  0.1795 -0.1337
18084W        W33893  14.328  15.905   5.532  0.1477  0.0253  0.0160
18085W        W33894   9.983   0.582   3.054  0.2712  0.0208 -0.1278
18086W        W33895   6.893  14.950   9.485 -0.3046 -0.0935 -0.1455
18087W        W33896   4.024  15.395  14.030  0.1935  0.1801  0.2633
18088W        W33897   0.423   0.897  11.167  0.0103 -0.2051 -0.2013
18089W        W33898   1.345   3.710   0.876 -0.0472  0.2002  0.1269
18090W        W33899  16.276   6.572  15.252  0.2385  0.1797 -0.1477
18091W        W33900   9.645  12.699   4.762  0.0716 -0.3270  0.0714
18092W        W33901  11.502  17.989   5.879 -0.1492 -0.3251  0.0924
18093W        W33902  10.981   8.738  14.303  0.2033  0.1270  0.3068
18094W        W33903   6.195   9.652  14.096 -0.0349  0.0504 -0.0436
18095W        W33904  10.489  16.648  12.688 -0.1307  0.2467 -0.2681
18096W        W33905  13.665   3.869  14.442 -0.1521  0.2758  0.0799
18097W        W33906  17.815   9.307  11.582  0.1084  0.0469 -0.3708
18098W        W33907   9.468  12.599   3.048  0.3004 -0.1470 -0.1882
18099W        W33908   4.226  16.017  14.484 -0.0113  0.2425 -0.1938
18100W        W33909   4.637  11.504   0.933  0.0858  0.2206  0.0672
18101W        W33910  14.391  14.780  13.130  0.2194  0.0914 -0.2865
18102W        W33911   2.007   6.581   4.599 -0.1559  0.0075 -0.0414
18103W        W33912   0.961   5.690   1.631  0.0427  0.0504 -0.0372
18104W        W33913  16.389  18.760  13.041 -0.3556  0.0207 -0.0119
18105W        W33914   3.456  11.559   1.319  0.0987 -0.0162  0.0661
18106W        W33915  12.520   0.715  14.298 -0.0689 -0.3821  0.0050
18107W        W33916   6.019  12.658   0.783  0.0324  0.4102 -0.2210
18108W        W33917   7.308   7.251  10.420 -0.0921  0.0764  0.2856
18109W        W33918  16.213   0.586   0.027  0.1790  0.3606  0.1349
18110W        W33919   3.562   9.499  13.746 -0.0528 -0.1098  0.3464
18111W        W33920  11.573  17.393  13.449 -0.3888  0.1270  0.1375
18112W        W33921  16.024  18.455  15.286 -0.2320 -0.0272  0.0205
18113W        W33922  13.544   6.236   4.016 -0.1821 -0.1066  0.1299
18114W        W33923   6.006   4.976  15.122  0.0956  0.1236 -0.0050
18115W        W33924   2.266  13.049   3.802  0.0551 -0.4071  0.1021
18116W        W33925  18.359   8.417   4.705  0.1158 -0.3419 -0.3456
18117W        W33926   8.981   7.547  11.603  0.1183  0.1250  0.1242
18118W        W33927  16.102   8.361   2.571  0.0128 -0.1425 -0.1352
18119W        W33928   8.138  13.943   4.614 -0.1849 -0.1251  0.3796
18120W        W33929  16.280   6.683  12.568  0.1669  0.0386  0.0483
18121W        W33930  12.030   3.410  11.882  0.1963  0.4216  0.3037
18122W        W33931   2.458   1.914  10.940  0.2328 -0.1801  0.1442
18123W        W33932  10.767  17.060  15.545  0.0752 -0.1360 -0.0150
18124W        W33933   8.861   3.264   3.420  0.1063  0.1830  0.0469
18125W        W33934   3.403   0.034   1.331  0.2492 -0.2738  0.1193
18126W        W33935   5.466   1.407   3.647  0.0099 -0.1342  0.1939
18127W        W33936   0.509   9.306   4.797  0.1696  0.2025 -0.0997
18128W        W33937   1.373  18.074  14.886  0.1294  0.2877  0.3802
18129W        W33938  15.268   0.031  11.609 -0.0265 -0.2306  0.2365
18130W        W33939  18.236  10.859   2.341  0.2267 -0.0540 -0.1444
18131W        W33940   9.277  16.827   4.519 -0.3895 -0.2499  0.2373
18132W        W33941  15.615  17.463  12.922 -0.1424  0.0792 -0.1223
18133W        W33942   9.261   2.276   3.389 -0.0195 -0.1678 -0.0389
18134W        W33943  11.229  18.750   2.442  0.2486  0.2239  0.1722
18135W        W33944   1.647   0.169  12.380 -0.2414  0.0752 -0.0723
18136W        W33945   8.516  11.250   1.723 -0.0370 -0.2562 -0.0577
18137W        W33946   5.231   2.636  15.306 -0.1449  0.0541  0.2087
18138W        W33947   0.039   6.395  12.209 -0.0961 -0.3378 -0.0567
18139W        W33948   7.691   0.204   3.912 -0.1355 -0.1227 -0.3199
18140W        W33949  10.980  17.611   6.030 -0.0966 -0.1355 -0.1923
18141W        W33950  17.478   6.882  14.917  0.2735 -0.2070 -0.2008
18142W        W33951   9.028   3.493   3.912 -0.2485 -0.0386  0.0034
18143W        W33952   9.669  14.344   0.378 -0.0417  0.4142  0.1061
18144W        W33953  14.234  16.503   0.819 -0.0288  0.0212  0.1341
18145W        W33954   7.993  17.926   0.590  0.2569 -0.2545 -0.0436
18146W        W33955   1.696   8.582  14.709 -0.2397 -0.3412 -0.0329
18147W        W33956  18.171  13.258  14.184 -0.0605 -0.2564  0.3530
18148W        W33957   0.496  17.038   0.912  0.2243 -0.1368  0.0092
18149W        W33958  11.820   9.336   5.262  0.2753 -0.4177 -0.0674
18150W        W33959   4.049  14.930   4.100  0.0413  0.1218  0.2604
18151W        W33960   3.265  10.415   0.529 -0.2226  0.4120  0.1401
18152W        W33961   8.236  11.372  11.585 -0.1448  0.2109  0.3606
18153W        W33962  11.274   0.817   3.967  0.0183 -0.0921  0.1892
18154W        W33963  12.875   6.569   5.250 -0.2177 -0.2481 -0.0351
18155W        W33964   4.152   7.899   0.474  0.1128 -0.0604  0.0548
18156W        W33965  18.026   2.811  10.376 -0.4621 -0.0156 -0.0571
18157W        W33966  11.787  16.237  13.036 -0.0306  0.1153  0.1062
18158W        W33967  17.761   6.427  14.753 -0.0150  0.2145  0.0970
18159W        W33968  13.438   0.026  14.045 -0.0361 -0.0672  0.1034
18160W        W33969   7.342   6.023   1.797  0.2070 -0.0176 -0.1277
18161W        W33970   5.829  10.778   0.525  0.0544 -0.2245  0.0634
18162W        W33971  15.218  12.327  14.342 -0.0092  0.0836 -0.3675
18163W        W33972  10.828   4.339   3.378 -0.0296 -0.0807  0.0129
18164W        W33973  13.823   8.745   3.257  0.1714 -0.2442 -0.1721
18165W        W33974  15.307  16.466   1.510 -0.2964 -0.1103  0.3072
18166W        W33975   1.874  11.685   4.052 -0.0746  0.1797 -0.1303
18167W        W33976  16.447  10.249   2.117 -0.1967 -0.0689 -0.1718
18168W        W33977   5.264   6.221   0.974  0.0866  0.2716 -0.3293
18169W        W33978   8.884   7.950   4.969  0.0582 -0.2363 -0.0689
18170W        W33979  18.232  17.632  14.567 -0.2571  0.0504 -0.1767
18171W        W33980  15.978  13.516  11.799  0.1036  0.1948  0.1445
18172W        W33981   8.922  14.260  13.016  0.1314 -0.1580 -0.0684
18173W        W33982  16.234   9.245   2.571  0.0708  0.0414  0.2977
18174W        W33983   2.177   1.825  14.498  0.3713 -0.4863  0.0462
18175W        W33984  16.025   4.128   3.401 -0.1250 -0.0519  0.0916
18176W        W33985   1.799  10.178   0.124 -0.1840 -0.1352  0.2607
18177W        W33986   6.587   5.397   5.283  0.0166 -0.0159  0.0098
18178W        W33987   1.928  15.970  13.714  0.0958  0.1847 -0.2376
18179W        W33988  12.230  12.457   4.468 -0.4925  0.0554 -0.2260
18180W        W33989   0.859   1.711  10.007  0.0521  0.0657 -0.1977
18181W        W33990  12.443   6.867  14.484 -0.1053 -0.0596 -0.0530
18182W        W33991   8.971  15.946  10.697 -0.0344  0.0999 -0.1313
18183W        W33992  14.365  11.197   9.788 -0.1642  0.1418  0.0223
18184W        W33993  10.109  16.840   1.085  0.0118 -0.0128 -0.2797
18185W        W33994  12.329   7.335  15.333 -0.2016 -0.0108 -0.1672
18186W        W33995   5.140  11.669   1.788  0.0551 -0.0606 -0.1187
18187W        W33996   4.120   3.410  13.894 -0.1953  0.1742  0.0531
18188W        W33997   2.936  12.328   0.006 -0.0184  0.3427 -0.1106
18189W        W33998   0.211   6.670   5.110  0.1933 -0.1786 -0.0561
18190W        W33999   9.515   4.369   5.187  0.1384 -0.0545 -0.0804
18191W        W34000   8.933   5.629   3.845 -0.0348 -0.0355  0.1189
18192W        W34001  15.424  13.226   1.879  0.0010  0.2048  0.1527
18193W        W34002   3.373  14.389  12.388  0.2084 -0.0215  0.0606
18194W        W34003  12.999   5.037   1.723  0.1766  0.1014  0.1582
18195W        W34004   1.248  17.887   2.203 -0.1796  0.0372 -0.0845
18196W        W34005  11.569   8.949   3.410 -0.2453  0.1609  0.4807
18197W        W34006  11.108  17.599   4.649  0.4032  0.2665  0.2076
18198W        W34007   2.784   8.058   2.929  0.0658  0.0543  0.2303
18199W        W34008   0.725   0.287  13.967 -0.2617 -0.0948  0.1206
18200W        W34009  14.975  13.366  11.923 -0.1311  0.3793 -0.1184
18201W        W34010  14.336  10.377   0.141  0.0693  0.1151 -0.3563
18202W        W34011   6.824  17.949   3.441  0.1718  0.0435  0.1475
18203W        W34012   7.483  17.522   2.821  0.3815  0.1486 -0.1187
18204W        W34013   1.234   0.777   4.947 -0.1970  0.0449 -0.0161
18205W        W34014   3.071  18.345   0.284 -0.1475  0.0695  0.2090
18206W        W34015  13.616   6.646  13.408 -0.0843 -0.2815 -0.3621
18207W        W34016  16.595  16.194   2.859 -0.0904  0.0266 -0.3096
18208W        W34017   0.957  11.522   3.625 -0.0904  0.0037 -0.0426
18209W        W34018  10.667  13.159  11.673 -0.1729  0.0566 -0.1179
18210W        W34019  13.400  10.529  10.943  0.1039  0.4190  0.4481
18211W        W34020   0.405   1.027   0.682 -0.2127 -0.0014 -0.0253
18212W        W34021  15.222   0.445   3.952 -0.1826 -0.1370  0.1251
18213W        W34022  11.273   7.648   3.389  0.0639  0.2298  0.3595
18214W        W34023   4.741  18.272   0.188 -0.4705  0.0136  0.3221
18215W        W34024   1.955   1.909   2.930  0.3265 -0.1879  0.2795
18216W        W34025   1.076   0.293  13.549  0.1061  0.0426 -0.0804
18217W        W34026   8.730  13.017  10.669  0.0734  0.2960  0.1455
18218W        W34027   8.995   8.471  15.140  0.0657 -0.1897  0.1746
18219W        W34028  17.849  11.395   1.788  0.1358  0.1841 -0.2664
18220W        W34029   2.266  18.580  14.766 -0.0596 -0.4594 -0.2725
18221W        W34030   1.399   1.183  10.950 -0.2905 -0.1135  0.3139
18222W        W34031  14.157  18.415   1.249  0.0384 -0.0760  0.0724
18223W        W34032   5.276  13.485  14.248 -0.0304  0.2098 -0.1618
18224W        W34033  16.300  12.049  14.634 -0.0228  0.0668  0.0691
18225W        W34034  15.907   6.879   3.680 -0.0664  0.0056  0.0314
18226W        W34035  16.659   2.562  12.228  0.1665 -0.1571  0.2251
18227W        W34036   3.625   6.702   1.331  0.1345  0.1182  0.1545
18228W        W34037  13.043  12.468   4.932 -0.2748  0.1407 -0.1296
18229W        W34038   3.214   4.058   2.850 -0.2286  0.3660 -0.0861
18230W        W34039   0.953  17.882  10.687 -0.1253 -0.1329 -0.1302
18231W        W34040   4.960  12.961  14.348 -0.1078 -0.1475 -0.0993
18232W        W34041   5.641  13.419   4.656  0.1888 -0.0329  0.0510
18233W        W34042   1.587  11.095  10.888  0.0171 -0.2418  0.3772
18234W        W34043  12.429  10.973   1.947 -0.0258  0.0763 -0.2544
18235W        W34044   8.128  13.276  12.914 -0.3637 -0.0039 -0.2995
18236W        W34045  12.865  11.838  10.633 -0.1222 -0.2348 -0.3351
18237W        W34046  15.807   1.234  14.108  0.1376  0.3822  0.0170
18238W        W34047  13.419   3.255   4.034 -0.1527 -0.0631  0.0180
18239W        W34048  14.981   8.158   0.384  0.1067 -0.3256  0.0135
18240W        W34049   7.651   0.179   1.518 -0.0694 -0.2776 -0.2797
18241W        W34050  12.224   9.876   0.506  0.1651  0.0757  0.0079
18242W        W34051   8.929  14.491  14.539 -0.2689 -0.2012 -0.2505
18243W        W34052   4.629  11.310  13.035 -0.2754 -0.0356  0.0152
18244W        W34053  18.736   6.948  10.455  0.1231  0.0959 -0.3214
18245W        W34054  14.592  10.176  11.614 -0.0072  0.1186 -0.2207
18246W        W34055  13.163  15.671   3.379  0.4469  0.1909 -0.2222
18247W        W34056  18.251   3.890  13.682 -0.2972 -0.0741  0.1887
18248W        W34057  13.283   7.225   1.276 -0.1786 -0.1882  0.0908
18249W        W34058  18.101  14.091  10.787 -0.2222 -0.2838 -0.1467
18250W        W34059  18.709  11.281   4.387  0.0366 -0.0709 -0.0297
18251W        W34060   3.498  16.691  11.428  0.2851 -0.0583  0.2623
18252W        W34061  15.176  10.087   2.599 -0.0363  0.0551 -0.2346
18253W        W34062   0.471   2.938   4.511  0.2761 -0.1295  0.1329
18254W        W34063   9.442   4.904   5.802  0.1902  0.2528  0.1946
18255W        W34064  17.464  12.509  14.140 -0.2926  0.3194  0.1522
18256W        W34065   5.859   6.375   2.950  0.0442 -0.2519 -0.1164
18257W        W34066   7.219  15.138  13.620 -0.1076  0.0147 -0.1321
18258W        W34067   9.128  11.000  10.175 -0.0049 -0.1099  0.0832
18259W        W34068   7.757  10.747   2.922  0.0748 -0.0642 -0.1292
18260W        W34069   2.620   8.528   3.852 -0.0476 -0.0242  0.0195
18261W        W34070   4.754  12.966   5.674 -0.1393 -0.1662  0.0981
18262W        W34071   0.328  11.181   4.701 -0.1513 -0.0721 -0.3116
18263W        W34072   3.237  13.627  11.055  0.0555  0.0437  0.0866
18264W        W34073   7.396  12.477  10.702  0.1055  0.0677 -0.0056
18265W        W34074  10.260   7.459   2.419 -0.0918  0.2609  0.2770
18266W        W34075   3.575   8.459  11.958  0.0145 -0.0210  0.1156
18267W        W34076  11.855   5.081  10.806  0.0419 -0.2163  0.2802
18268W        W34077   6.624  18.687  11.806 -0.2762 -0.0099  0.0879
18269W        W34078   1.693   5.609   4.202 -0.1635 -0.1918 -0.0678
18270W        W34079  12.134  17.666  12.739 -0.0008  0.0688 -0.1608
18271W        W34080   2.290   6.573  11.912  0.0260 -0.2839 -0.3494
18272W        W34081  16.405   3.242  12.641 -0.1761 -0.1420  0.2385
18273W        W34082  10.311   1.726   5.332  0.0854  0.0552 -0.1220
18274W        W34083  13.105   2.556  11.216  0.1167  0.2432  0.0966
18275W        W34084   7.231  16.709  15.128 -0.0717  0.0756 -0.0095
18276W        W34085  14.606   3.275   5.371  0.4537  0.0877 -0.0175
18277W        W34086  14.935   0.132   1.130  0.1109  0.0580  0.2396
18278W        W34087   5.321   8.168   2.941 -0.0624  0.2388  0.0445
18279W        W34088   3.441  12.628   3.632 -0.1941 -0.1835  0.0181
18280W        W34089  14.183   3.647  12.011  0.1571  0.0451  0.0043
18281W        W34090  13.260   3.450  13.955  0.0672 -0.0116  0.3250
18282W        W34091   6.897  13.729  10.644  0.1225 -0.0833 -0.1576
18283W        W34092   0.170  14.238  10.351 -0.2578  0.2984 -0.0257
18284W        W34093   8.437  11.850   3.511  0.1014  0.1083  0.0824
18285W        W34094   6.562   3.002   2.051  0.1006 -0.2325  0.4115
18286W        W34095  14.122  12.145   3.421  0.0593 -0.1539 -0.0576
18287W        W34096   5.205   9.088   4.778  0.1101 -0.0904 -0.0665
18288W        W34097  12.414  13.507   0.093  0.1471 -0.0939  0.0170
18289W        W34098   5.053   5.734   0.039  0.0184 -0.0716 -0.1486
18290W        W34099   1.544  12.653  10.672 -0.3896  0.0411 -0.3376
18291W        W34100  11.990   7.098   2.696  0.1143 -0.2003  0.0314
18292W        W34101   8.773   6.383  13.291  0.3446  0.1993  0.3364
18293W        W34102   1.094   8.200  12.014  0.1836 -0.1667  0.1973
18294W        W34103  15.939  18.262   0.628 -0.1908  0.0302 -0.1554
18295W        W34104   6.832  17.003   1.124 -0.1559 -0.3196  0.0435
18296W        W34105   7.162   9.852  11.810  0.0418  0.0033 -0.3687
18297W        W34106  13.758   4.948  13.396  0.4104  0.1100  0.1392
18298W        W34107  18.426   5.002   2.724  0.1397  0.0053  0.1708
18299W        W34108  11.859   8.681   4.227 -0.2345  0.0815  0.1987
18300W        W34109  17.167  16.286   3.421  0.3006 -0.2214 -0.2116
18301W        W34110   6.490  15.321   2.599 -0.1950 -0.1170 -0.0539
18302W        W34111   6.324  11.072  12.090 -0.0581  0.1217  0.0678
18303W        W34112   7.385   1.244  12.006 -0.3744 -0.0736 -0.0791
18304W        W34113   8.409   6.906   2.022 -0.2849 -0.2738 -0.1137
18305W        W34114  17.740   6.213   3.034 -0.2727 -0.1420  0.1390
18306W        W34115   9.870   5.681   4.143  0.4836  0.3555  0.0139
18307W        W34116   4.045   9.210  12.365 -0.2534  0.0242 -0.1144
18308W        W34117   9.188   0.100   1.641  0.0449 -0.1837 -0.1127
18309W        W34118   0.455   4.801   4.648  0.2419  0.0759  0.2367
18310W        W34119  15.722   3.490   1.952 -0.2890 -0.1975  0.2077
18311W        W34120  15.301   0.535   4.939 -0.0232 -0.2225 -0.1034
18312W        W34121   3.189  17.067  15.288  0.0031 -0.0663  0.0400
18313W        W34122   3.115   3.337  10.772  0.0128 -0.1295  0.0915
18314W        W34123   8.937   7.475  12.769 -0.1534 -0.3595 -0.2116
18315W        W34124  17.388  15.250   4.455 -0.0913 -0.0340 -0.1165
18316W        W34125  14.528   9.504   0.389 -0.0636 -0.3204  0.3335
18317W        W34126   3.767  13.304  13.391 -0.0318 -0.2078  0.0701
18318W        W34127   9.704  15.942  11.368  0.4235  0.2220  0.1989
18319W        W34128   2.820   1.436  13.526 -0.0053  0.1151 -0.0986
18320W        W34129  12.249   8.523  11.054 -0.1282 -0.0119  0.2673
18321W        W34130  16.793   0.629   3.989 -0.2841  0.3976 -0.0722
18322W        W34131  15.009  17.569   5.549 -0.2267  0.4032 -0.0185
18323W        W34132  11.327   7.714   0.329 -0.0265 -0.0741 -0.0771
18324W        W34133   7.201   2.295  11.506 -0.0762  0.0093 -0.0591
18325W        W34134   8.282   3.961  12.451 -0.0508 -0.0572 -0.0504
18326W        W34135  17.586  16.361  13.254 -0.2609  0.1865 -0.1282
18327W        W34136  18.618  14.572   3.670 -0.2520  0.2198  0.2964
18328W        W34137  17.142   8.677  10.588  0.2657 -0.2608  0.0925
18329W        W34138  12.590   2.234   1.079  0.3325 -0.2946  0.0099
18330W        W34139   6.297  15.455   2.175 -0.2304  0.0059  0.0459
18331W        W34140   2.629   2.170   3.794 -0.1883 -0.0064 -0.1524
18332W        W34141  15.622  15.751   4.700 -0.0963 -0.0203  0.0427
18333W        W34142  15.513  11.923  12.401  0.3099  0.1168  0.1279
18334W        W34143  15.358  12.761   0.503 -0.0956  0.1564 -0.0292
18335W        W34144  17.189  18.246   5.085 -0.1150  0.2485  0.1277
18336W        W34145  14.511  16.095  13.111 -0.3837 -0.3534 -0.1299
18337W        W34146  11.734  17.319   5.693  0.0824  0.3929 -0.1689
18338W        W34147  14.861  14.937   2.346  0.0551  0.0499 -0.0556
18339W        W34148   0.426   1.580  12.022 -0.0563 -0.2004  0.0754
18340W        W34149   3.363  11.769   4.456 -0.4043 -0.1928  0.1206
18341W        W34150   8.643  13.555   2.649  0.2499 -0.0117  0.1402
18342W        W34151  15.413   4.746   1.152  0.0489 -0.1944  0.4604
18343W        W34152   5.722  16.987  11.290 -0.0069  0.1907  0.1997
18344W        W34153  17.334   0.738   3.262  0.1429  0.3828 -0.1814
18345W        W34154   2.978   0.030   1.678  0.1763  0.1157  0.0599
18346W        W34155   8.796   2.366  15.562 -0.1679 -0.0361 -0.0621
18347W        W34156  12.253   7.252   2.254  0.2433  0.0610  0.3001
18348W        W34157   1.897  11.162   4.083 -0.1182  0.2973  0.1578
18349W        W34158   9.080  16.695   2.856 -0.1735  0.0545  0.0532
18350W        W34159   4.655  17.755  12.287 -0.0909  0.0000 -0.1609
18351W        W34160   0.382   6.907   0.766  0.1589 -0.1234 -0.0535
18352W        W34161   6.129   7.400   1.373  0.1146  0.1467  0.2916
18353W        W34162  17.105   0.337   2.075  0.0533  0.4020  0.0365
18354W        W34163  18.629   7.342   1.970 -0.2781 -0.2032 -0.1389
18355W        W34164   0.689   9.616  10.380 -0.1543 -0.2254  0.1400
18356W        W34165   0.275   8.742   1.287 -0.0650 -0.0134 -0.1698
18357W        W34166   1.832  10.550   3.421 -0.0778 -0.0738  0.1860
18358W        W34167   6.099  11.404  14.104 -0.1190  0.2148 -0.0268
18359W        W34168  11.041   9.308  11.261  0.0715  0.2299 -0.0612
18360W        W34169   2.008  10.117   1.514 -0.0270  0.0697  0.1371
18361W        W34170   4.633   3.596   3.792  0.0243  0.1432 -0.0227
18362W        W34171  18.437  12.407  10.118 -0.1810 -0.1836  0.0624
18363W        W34172   7.421   2.370  14.007 -0.0004 -0.0541  0.3688
18364W        W34173  14.995  18.119  15.111  0.4031 -0.1289 -0.2504
18365W        W34174  17.619   0.569  15.505  0.1322  0.2126  0.1842
18366W        W34175   5.111   0.505   3.915  0.4945  0.0088  0.1418
18367W        W34176  13.482  17.906  11.018  0.1503  0.0391 -0.2565
18368W        W34177  18.771  11.703  13.870 -0.1628 -0.3323  0.1624
18369W        W34178  10.260  12.562   3.508 -0.0276 -0.0972 -0.1007
18370W        W34179  12.243   4.785   4.322  0.2548 -0.1080 -0.0354
18371W        W34180  16.058  16.787  11.637 -0.0216  0.2581  0.0629
18372W        W34181   3.351   0.058  14.500 -0.3473  0.1040  0.0274
18373W        W34182   7.530  18.339  15.255  0.1832 -0.0924  0.1681
18374W        W34183   2.056  12.482  13.741  0.2789  0.2590 -0.1188
18375W        W34184   1.857  10.613   4.810  0.3414 -0.2285  0.1511
18376W        W34185   8.903  12.688  15.264  0.1026  0.2208 -0.0860
18377W        W34186  18.470  11.060  11.443 -0.0164 -0.0852  0.2577
18378W        W34187  16.837  12.454  13.383 -0.0320 -0.2390 -0.0317
18379W        W34188  15.607  17.182   4.647  0.0714 -0.1121  0.2360
18380W        W34189   6.059  11.263  13.001  0.2533 -0.1576  0.2365
18381W        W34190   8.325   4.372  10.858  0.0943  0.4174  0.1216
18382W        W34191  12.308   3.056  13.267 -0.1046  0.0673  0.3156
18383W        W34192  16.474  16.423  14.557 -0.0403  0.1905  0.2338
18384W        W34193  16.192  12.660   0.225  0.0519  0.0716 -0.0255
18385W        W34194  17.660   4.638  12.677 -0.1619  0.0897 -0.1321
18386W        W34195   2.837   6.099  12.326  0.2323  0.2735 -0.3586
18387W        W34196   1.824   7.046  12.047 -0.1660  0.0469 -0.4814
18388W        W34197   1.566   8.199   3.810  0.1686 -0.1752  0.0606
18389W        W34198  12.998   3.566  13.029  0.1313 -0.0104 -0.1012
18390W        W34199  17.511   3.907  10.946 -0.0147  0.2739  0.0197
18391W        W34200  14.673  11.864   2.043  0.0403  0.0676  0.2187
18392W        W34201  12.724   8.160  11.144 -0.0246 -0.0243  0.0821
18393W        W34202  14.113  11.480  14.188  0.1008  0.1395 -0.3244
18394W        W34203   2.685   2.597   1.927  0.0370  0.0923 -0.3496
18395W        W34204   0.297  16.074   4.627  0.1502  0.0517  0.0603
18396W        W34205  14.594   5.832   3.752  0.2784 -0.1253 -0.0830
18397W        W34206   1.848  15.930   1.848  0.0387  0.0217  0.1878
18398W        W34207  15.449  13.813   3.052 -0.0094 -0.0644  0.2971
18399W        W34208  15.550   3.393  12.909 -0.3797  0.0400  0.0160
18400W        W34209   2.118  17.834   5.076 -0.0730 -0.1542  0.1254
18401W        W34210   7.020   0.373   2.195  0.1344 -0.0122  0.3656
18402W        W34211  16.863  10.799   0.804  0.0739  0.2921  0.1080
18403W        W34212   9.120   4.002   0.779 -0.0961 -0.1945 -0.1362
18404W        W34213  13.889   3.010   1.700 -0.1922  0.1432  0.3502
18405W        W34214   6.950   2.027  13.141  0.0208  0.2105 -0.1892
18406W        W34215  14.988   7.669  15.069 -0.0094  0.0669 -0.1490
18407W        W34216  13.500   4.568   3.597  0.2946  0.0804 -0.1170
18408W        W34217  18.585   2.688   1.564 -0.0538  0.0543 -0.0184
18409W        W34218  16.491  15.665  13.339 -0.1448 -0.1890 -0.1184
18410W        W34219  13.367  13.565   4.833  0.1650 -0.1521 -0.0415
18411W        W34220   1.418  14.604   1.388 -0.1683 -0.2523 -0.1253
18412W        W34221   7.457   8.682  15.164  0.3049 -0.5189  0.0305
18413W        W34222  10.932   1.271   2.245 -0.3176 -0.0494 -0.0742
18414W        W34223  17.270   7.581  12.477  0.2658  0.0326  0.3058
18415W        W34224   9.384  16.246   2.620 -0.2963 -0.1089  0.1128
18416W        W34225  18.708  13.849   0.641  0.0815  0.1051  0.0823
18417W        W34226  18.225  13.916   2.799 -0.0598  0.0602  0.2005
18418W        W34227   6.731   3.009   3.457  0.2167 -0.0707  0.2998
18419W        W34228   3.041  11.559  10.182 -0.1597  0.1715  0.2138
18420W        W34229   0.799  18.563   3.926 -0.3154 -0.0411  0.2249
18421W        W34230  10.130  15.663   9.980  0.0227 -0.0989  0.2392
18422W        W34231   6.655  12.876   0.465  0.1730  0.2025  0.2119
18423W        W34232  15.827   2.873   3.768 -0.1028  0.2337 -0.0489
18424W        W34233  11.546   4.518  14.959 -0.1371  0.0586  0.1710
18425W        W34234  13.216  12.883  10.682  0.0582 -0.4340 -0.0275
18426W        W34235   8.043   8.579   3.264  0.1725 -0.2113  0.0250
18427W        W34236  15.404   5.067   1.987 -0.0986  0.1981  0.1573
18428W        W34237   3.692   9.928   4.708  0.0397  0.0899  0.2601
18429W        W34238   1.091   8.689   3.518 -0.0437  0.0991  0.1531
18430W        W34239   8.905   9.884  12.415 -0.1835  0.0906 -0.2419
18431W        W34240  14.172   4.214  12.692  0.0772 -0.1060  0.1508
18432W        W34241   6.272  16.021   0.418  0.0737  0.0227 -0.3363
18433W        W34242  10.741  18.665   4.080 -0.2347  0.0881 -0.1758
18434W        W34243  17.174   6.824  15.411  0.0040 -0.1772 -0.1201
18435W        W34244   9.543  16.514   1.902 -0.0474 -0.2394 -0.0728
18436W        W34245  12.228  14.946   2.576  0.0852  0.0738 -0.1911
18437W        W34246  14.009  14.491   2.812 -0.0077 -0.1624 -0.1167
18438W        W34247  14.395  13.114  10.767 -0.1698 -0.2204  0.0203
18439W        W34248  16.397  11.067  13.526 -0.1669 -0.1411  0.2955
18440W        W34249  13.271   4.014  13.156  0.1042 -0.1936 -0.1582
18441W        W34250  10.661   9.337  15.282  0.2007  0.0924 -0.0671
18442W        W34251   9.849  14.711  10.316  0.2744  0.1048  0.1790
18443W        W34252  10.087  13.886  11.250 -0.1097 -0.0217 -0.2301
18444W        W34253   1.566  12.259   1.446  0.1464 -0.2077  0.1744
18445W        W34254  15.885   5.455   3.790 -0.3065  0.0717  0.1015
18446W        W34255  16.668   0.602   2.466 -0.1602 -0.0280  0.0210
18447W        W34256   7.439   3.549   3.994  0.1569  0.0174  0.1573
18448W        W34257  12.633  13.955   0.944  0.0640 -0.2020  0.0705
18449W        W34258   4.130  18.054   2.304  0.0210 -0.5477 -0.0609
18450W        W34259  15.102  10.524   3.191 -0.0068  0.0039  0.3763
18451W        W34260  10.648   3.154  10.227  0.1173 -0.0403  0.2009
18452W        W34261   9.570   5.108   1.700 -0.3396  0.0051  0.0845
18453W        W34262  16.775  14.953  11.466  0.1612  0.2225  0.0942
18454W        W34263   2.327   3.092   4.280  0.2852  0.1738 -0.0701
18455W        W34264   6.542   3.320   0.558  0.0754  0.0295  0.0072
18456W        W34265   0.689  12.639   0.706 -0.1595 -0.1547 -0.0844
18457W        W34266  13.203   6.318   1.245  0.0638 -0.1080  0.0802
18458W        W34267  13.477   4.104  12.314  0.1614 -0.0783  0.2875
18459W        W34268  12.202   6.423   4.858 -0.0677  0.2170  0.1875
18460W        W34269   7.911   8.512  14.563  0.0123  0.3108  0.0083
18461W        W34270  15.614   9.754   3.403 -0.2307  0.1971  0.2752
18462W        W34271   3.057  11.195  12.271  0.0292 -0.4472  0.0381
18463W        W34272   4.114  11.448  13.263  0.0580  0.0823 -0.3066
18464W        W34273  10.376  16.887  11.169  0.1902 -0.1844 -0.1388
18465W        W34274  14.828   6.575  15.121 -0.2614 -0.0055  0.3642
18466W        W34275   3.494  17.670  12.472 -0.0616  0.0851 -0.0201
18467W        W34276  10.411  14.375  14.651  0.3464 -0.1556  0.0360
18468W        W34277   1.404  13.743  15.446  0.2203 -0.0307  0.0384
18469W        W34278  13.993   4.106   1.914  0.4721 -0.0611  0.0075
18470W        W34279   2.970   1.240  12.904  0.0183 -0.0935  0.0364
18471W        W34280  10.065   3.817  13.527  0.0873 -0.0764  0.2107
18472W        W34281   8.029  10.213   0.720  0.0359  0.3519  0.3436
18473W        W34282   6.150  16.461   4.465 -0.2256  0.2221 -0.0577
18474W        W34283   8.075  14.312  14.396  0.1496 -0.0064 -0.0734
18475W        W34284   8.720  18.563  13.637  0.0092 -0.0331  0.1726
18476W        W34285  13.733  11.554  14.587 -0.2450  0.0362  0.0476
18477W        W34286  16.855  15.734  12.935 -0.2121 -0.4562 -0.0355
18478W        W34287   4.856  13.028  12.684 -0.0218 -0.3992  0.1830
18479W        W34288   9.647   0.125  15.327  0.0240 -0.1920 -0.3711
18480W        W34289   1.741  13.940  13.040  0.1985 -0.4026 -0.1104
18481W        W34290   8.042   5.688   0.391 -0.0031 -0.0015 -0.1008
18482W        W34291  17.414   6.113  14.468 -0.2318 -0.0760 -0.0316
18483W        W34292  10.297   2.128  13.399 -0.3508 -0.0788  0.0152
18484W        W34293   9.088   7.154  13.832  0.1645  0.4065  0.2536
18485W        W34294   6.253  13.102  14.913  0.0131  0.1976 -0.0655
18486W        W34295   7.547   5.607  10.797 -0.2794 -0.1288  0.0271
18487W        W34296  11.836  16.062   6.364  0.0120  0.0732 -0.0615
18488W        W34297   3.172  10.166   2.290  0.0103  0.1099  0.2012
18489W        W34298  16.370  15.898  12.327 -0.0389 -0.2149  0.0367
18490W        W34299   3.921   7.841  12.881  0.3470  0.0447  0.1815
18491W        W34300  10.827  10.365  10.787 -0.2392 -0.2823 -0.2738
18492W        W34301   7.581  11.966   5.560  0.2099 -0.3275 -0.2500
18493W        W34302   3.676   7.573   4.736  0.0341 -0.0684 -0.1894
18494W        W34303  17.643   3.744   3.803  0.1132  0.1974 -0.3198
18495W        W34304   9.560  16.390  11.973  0.2398  0.1389 -0.1216
18496W        W34305   5.629   0.917  10.873 -0.0047  0.1392  0.3320
18497W        W34306   5.176  12.616   1.904  0.1716 -0.0661 -0.3520
18498W        W34307  15.085  15.522  12.446 -0.1887  0.0742  0.3257
18499W        W34308   7.202  11.965  12.850  0.1700  0.0248 -0.0448
18500W        W34309   3.053   6.207   0.538 -0.3230  0.0981  0.1467
18501W        W34310   2.271   4.324   5.063 -0.1202 -0.0442 -0.0658
18502W        W34311   0.195   4.097  13.495  0.1623  0.1000 -0.0191
18503W        W34312   8.084  12.314   2.359 -0.0030 -0.2830 -0.0350
18504W        W34313  11.982   3.502   1.874  0.1735 -0.1896  0.0824
18505W        W34314   4.053  17.061  15.563 -0.2413  0.1024  0.0223
18506W        W34315   2.282  15.394  11.978 -0.2129 -0.1811 -0.1024
18507W        W34316  12.017   1.572   1.223 -0.2275 -0.1416  0.2718
18508W        W34317  14.936  17.684   2.552 -0.1059  0.1935 -0.0244
18509W        W34318   0.456  17.628  12.216  0.1049  0.0824 -0.1125
18510W        W34319  12.714   6.947  13.289 -0.0455  0.1325  0.1873
18511W        W34320  11.112  14.251   3.844 -0.2892  0.0105  0.1940
18512W        W34321  11.270  11.400   2.474 -0.0048  0.1980 -0.2130
18513W        W34322   3.414  17.115  12.215 -0.2242  0.3152  0.1902
18514W        W34323  15.254  18.516   2.087 -0.2618 -0.1122  0.1011
18515W        W34324  15.693  10.323  15.376  0.1115 -0.0232  0.0533
18516W        W34325  12.989   8.641   2.509 -0.3258 -0.0322 -0.3559
18517W        W34326   9.701  13.142   3.166  0.0365 -0.1331  0.0824
18518W        W34327  18.583   3.531   0.642 -0.2287 -0.0703  0.3635
18519W        W34328  16.125   8.858  12.385 -0.1330  0.0591  0.1600
18520W        W34329  11.410  13.001   5.593 -0.0468  0.0818  0.0463
18521W        W34330   8.169  18.052   0.173  0.2900  0.0048 -0.2214
18522W        W34331   6.328  10.804  14.610 -0.1150 -0.5943 -0.1020
18523W        W34332   8.887   8.042   9.836 -0.0602  0.0768 -0.2418
18524W        W34333  15.916   5.184   4.414 -0.2863 -0.1931 -0.2119
18525W        W34334   4.711  10.592  12.503 -0.0161 -0.1335  0.3212
18526W        W34335  18.545  10.411  14.593  0.3079  0.0066 -0.1842
18527W        W34336  12.150  12.590  11.575 -0.4949  0.1059 -0.1450
18528W        W34337  11.350  12.297  14.356 -0.0982  0.2103 -0.1378
18529W        W34338   1.654  13.367   0.041 -0.2841  0.0032  0.1061
18530W        W34339   3.808   2.166  14.042  0.3382 -0.1068 -0.2567
18531W        W34340  14.157   9.784  10.426  0.1237 -0.2313  0.0176
18532W        W34341  14.474  16.854  13.791 -0.0881  0.1429  0.1614
18533W        W34342  14.928  18.017  11.213  0.0519 -0.1174 -0.2418
18534W        W34343   8.300   9.484  13.029 -0.1841  0.0166 -0.2317
18535W        W34344   9.460   5.496  13.109 -0.3134  0.0075  0.0502
18536W        W34345   6.154   5.045   4.401 -0.0920 -0.0878  0.2952
18537W        W34346  18.637   8.744  10.390  0.0892  0.0370  0.3512
18538W        W34347   0.518  17.393   4.431 -0.2480 -0.2124  0.2397
18539W        W34348  15.032  17.016   0.295 -0.1302 -0.3214 -0.1072
18540W        W34349   9.172   5.760  14.668 -0.1664 -0.0120  0.2494
18541W        W34350   1.750  13.970  10.846 -0.0862 -0.1510 -0.2305
18542W        W34351   4.520  18.523  13.665  0.2434  0.0424 -0.1217
18543W        W34352   5.512  12.407   5.476  0.1702  0.1178 -0.2607
18544W        W34353  14.468   5.239  14.421  0.1239  0.0190 -0.1420
18545W        W34354   7.557  10.948   2.181 -0.2665  0.0964  0.0801
18546W        W34355  14.374   6.275  11.723 -0.0062  0.0628 -0.1307
18547W        W34356  17.326   9.268  13.045  0.0535  0.1979 -0.1676
18548W        W34357   7.056   4.506   5.719 -0.0387 -0.0318  0.4136
18549W        W34358  10.740  13.617   1.514  0.0819 -0.1451  0.0449
18550W        W34359   1.045   0.183   1.627  0.0164  0.3406  0.2202
18551W        W34360   4.479   4.751  10.747  0.5839  0.2148 -0.2598
18552W        W34361   8.919  10.343   1.512 -0.2093  0.2432 -0.1252
18553W        W34362   4.236  12.182   4.261 -0.1932 -0.0441 -0.0097
18554W        W34363   3.311  11.944   3.190 -0.1369  0.1717  0.0715
18555W        W34364   2.510   1.176  13.813 -0.0125  0.2346  0.0840
18556W        W34365   9.604  16.686   0.795  0.0579 -0.0225  0.0219
18557W        W34366   5.019  16.361   2.821 -0.3143 -0.2643  0.4244
18558W        W34367  14.928  14.389  13.135 -0.4209  0.0602 -0.0814
18559W        W34368   9.742   4.041   1.699  0.2194 -0.0497  0.0370
18560W        W34369   4.836  13.515  12.666  0.0331 -0.1694 -0.0183
18561W        W34370  15.403   3.819   0.232  0.5187  0.3941 -0.0135
18562W        W34371  10.575  17.267  11.892  0.0669  0.2455  0.1270
18563W        W34372   3.243   5.777  15.241  0.2798 -0.0966  0.1252
18564W        W34373  13.194  18.473   5.391  0.2121 -0.0451 -0.3006
18565W        W34374  13.760   1.402   3.055 -0.2041 -0.0348  0.0683
18566W        W34375  15.151  12.761   1.946  0.0119  0.2449  0.2413
18567W        W34376   3.892   0.921   2.425 -0.0088 -0.0834 -0.0886
18568W        W34377   1.885  13.557   4.436 -0.1556 -0.2412 -0.3119
18569W        W34378   0.139   0.034  13.969  0.1316 -0.1591 -0.0918
18570W        W34379  16.864   0.375  13.152  0.2639  0.0265 -0.3767
18571W        W34380   4.835  13.365   0.545 -0.2814  0.1254 -0.1391
18572W        W34381   2.091   0.973  12.761  0.1372 -0.1294  0.1175
18573W        W34382  10.070   4.089  13.135 -0.1238 -0.1220  0.0930
18574W        W34383   7.224   1.399   3.734  0.2941 -0.2131 -0.1310
18575W        W34384   6.917   0.991  11.379 -0.2846 -0.1237  0.0511
18576W        W34385  17.084  18.518  10.909  0.2457 -0.1209 -0.1297
18577W        W34386   4.689  10.030   5.035 -0.3013 -0.1440  0.1181
18578W        W34387  18.497   2.474   4.103 -0.1107  0.0993 -0.3761
18579W        W34388  17.995   6.366  11.583  0.1454  0.1487  0.1942
18580W        W34389  16.957   4.414  13.129  0.2708 -0.0392  0.3310
18581W        W34390   0.297  10.975   1.815  0.0356 -0.0378  0.2610
18582W        W34391  13.995   8.939   0.244  0.2667  0.2420  0.1438
18583W        W34392  16.994   4.443   4.974  0.2705 -0.1479  0.0908
18584W        W34393  15.067   5.505  10.727 -0.3001 -0.0015  0.1580
18585W        W34394  12.220   8.991  10.943 -0.1102 -0.0571 -0.1086
18586W        W34395   3.768  11.813  10.588 -0.2077  0.0959 -0.0129
18587W        W34396   5.120  17.444   3.416  0.2101  0.0354 -0.1966
18588W        W34397   4.863   1.675  14.967 -0.1789  0.1058  0.2073
18589W        W34398  12.329  16.775   4.508 -0.2191 -0.2782 -0.0791
18590W        W34399  10.741   5.467  11.761  0.0008  0.0982  0.1561
18591W        W34400   6.809   4.366  11.732  0.4416  0.6003 -0.2509
18592W        W34401   3.169   1.977   1.533 -0.1670  0.1894  0.0318
18593W        W34402   9.989   1.780  13.602 -0.1269  0.0767 -0.3851
18594W        W34403  11.571   4.469  11.213 -0.1267  0.2422  0.2410
18595W        W34404   3.723  17.336   4.523  0.1772 -0.1792 -0.0143
18596W        W34405   4.604  17.403   4.039  0.3521 -0.2896 -0.1330
18597W        W34406   4.064   0.930   0.027  0.1385  0.4970  0.2179
18598W        W34407  14.690  13.045  10.388  0.0811 -0.0040 -0.0563
18599W        W34408  12.865   7.864  13.759  0.4812 -0.2902 -0.2854
18600W        W34409   7.241  11.720   4.163  0.0093  0.2937 -0.1667
18601W        W34410   7.518   6.321  11.973 -0.1701  0.0725  0.1360
18602W        W34411   0.032   0.605   2.845 -0.2471 -0.0160 -0.0754
18603W        W34412  12.481   0.142  14.211 -0.0821 -0.2056 -0.2094
18604W        W34413   2.890  12.382  11.140 -0.1465 -0.0433  0.2719
18605W        W34414  13.132   8.764  13.705  0.0055  0.1404  0.1724
18606W        W34415  11.370  14.492  15.161  0.1153  0.1888  0.0517
18607W        W34416   9.055   5.175   4.673 -0.0546  0.2399  0.1564
18608W        W34417  18.668   4.097   5.041 -0.1700 -0.3081  0.1989
18609W        W34418  17.825  11.884  13.515  0.1339  0.0577  0.0658
18610W        W34419  14.352  14.528   4.165  0.1646 -0.1421  0.3309
18611W        W34420   3.516  14.828   3.348 -0.1629  0.1840  0.0549
18612W        W34421   1.547  16.738  11.203  0.2622 -0.2408 -0.2876
18613W        W34422  14.160  13.058   3.051  0.3073 -0.1226  0.0157
18614W        W34423   5.619   6.997  12.563 -0.0071 -0.0260 -0.3259
18615W        W34424  11.799  13.868  10.954  0.4334  0.4686 -0.0228
18616W        W34425  12.856   6.070   2.824 -0.4285  0.1548 -0.2539
18617W        W34426   1.892  10.147   4.984 -0.1482 -0.0404  0.5115
18618W        W34427  16.035   5.736  13.972 -0.1660  0.0433  0.1615
18619W        W34428   1.046  15.742  11.975 -0.1627 -0.0859 -0.1321
18620W        W34429   5.951  12.828   4.272  0.0886 -0.0968 -0.1186
18621W        W34430   6.329  12.888  13.158  0.2191 -0.2439 -0.2216
18622W        W34431  10.203  16.490   4.808  0.1750  0.1773 -0.1025
18623W        W34432  14.557   6.718  14.648 -0.3003 -0.3908 -0.1850
18624W        W34433   4.761  16.269   3.861  0.2273  0.3341  0.0877
18625W        W34434  13.736   6.262  14.132 -0.2680  0.2305 -0.0445
18626W        W34435   2.453   3.072  14.407  0.1217 -0.0437  0.0383
18627W        W34436   1.221  15.462  11.102 -0.1622  0.0105 -0.0262
18628W        W34437  11.939   6.384   1.395  0.2046 -0.1401  0.0747
18629W        W34438   9.464   6.232   3.962 -0.5334 -0.0448 -0.2018
18630W        W34439  10.478  16.393   3.267  0.1273  0.1638 -0.0845
18631W        W34440   2.642  17.249  14.348  0.1381 -0.2006 -0.0512
18632W        W34441  18.670  15.038  10.143  0.0407 -0.1423  0.0023
18633W        W34442  12.001   1.884   4.211  0.2455  0.2345 -0.1760
18634W        W34443   8.071  13.478  14.865  0.1024 -0.0704  0.2407
18635W        W34444  16.464   3.274   5.484 -0.0360 -0.3110  0.1734
18636W        W34445  15.759   0.469  10.936 -0.3047 -0.0562  0.0254
18637W        W34446  17.102  16.740  12.756 -0.0442 -0.2383  0.1308
18638W        W34447   7.307   4.187  12.026 -0.0032  0.0414 -0.0845
18639W        W34448   8.913  15.490   3.834 -0.1252  0.0952  0.1523
18640W        W34449  17.059   8.420   5.677  0.0729 -0.1901 -0.0392
18641W        W34450   7.298   0.823   4.879 -0.2067  0.0125  0.0838
18642W        W34451  14.275   9.306  15.203 -0.0532 -0.2368  0.0085
18643W        W34452   3.223  15.527  12.684  0.0738  0.1044  0.0722
18644W        W34453   6.529   8.883  12.039  0.1893 -0.0443  0.2510
18645W        W34454   8.111   0.327  12.670  0.2289  0.2810  0.0619
18646W        W34455  17.381  11.216   4.469  0.0325 -0.1097 -0.0673
18647W        W34456  14.391   5.296  12.501  0.1470  0.0735  0.4630
18648W        W34457   2.172   5.590  11.664  0.0013 -0.3314  0.2075
18649W        W34458  12.597   1.270   0.904  0.1257  0.1630  0.1640
18650W        W34459  15.926  15.733  14.059  0.2978 -0.0044  0.1718
18651W        W34460   4.350  15.187  11.787 -0.1464 -0.0911 -0.1896
18652W        W34461   2.621  10.187  12.097 -0.1538 -0.2729 -0.1011
18653W        W34462   9.243  18.403   1.739  0.1192 -0.2538 -0.0839
18654W        W34463   3.262   4.439  14.792  0.0197 -0.0877  0.0168
18655W        W34464   2.125   9.687   4.671  0.1033 -0.4505 -0.0307
18656W        W34465   4.208  11.595   5.375 -0.2163 -0.2288  0.0183
18657W        W34466  12.625  15.205  15.042 -0.2574  0.0312 -0.0254
18658W        W34467  10.910   7.821  11.972 -0.1734  0.0121  0.2134
18659W        W34468   6.342  18.452  14.046  0.2741  0.2197 -0.0057
18660W        W34469  11.271   1.868  15.435 -0.1713  0.4574  0.2620
18661W        W34470   3.723   8.151   3.324 -0.1942 -0.0221  0.2802
18662W        W34471   3.054   8.494   1.036 -0.2163  0.2246  0.5021
18663W        W34472  11.159  17.775   0.985  0.0133 -0.1016 -0.1897
18664W        W34473   8.762   7.216   4.732 -0.0507 -0.0956 -0.0633
18665W        W34474   4.713  13.009   3.442  0.4846 -0.1033  0.2264
18666W        W34475   3.314  10.420  10.657 -0.2050 -0.0159  0.0722
18667W        W34476   6.620  17.454   1.978  0.2661  0.1170  0.3778
18668W        W34477   6.554  11.232  10.622  0.1298  0.1889 -0.1128
18669W        W34478   5.770  17.855  12.013 -0.2021  0.1242 -0.0514
18670W        W34479   9.985  14.137   0.057 -0.1688  0.0444  0.2286
18671W        W34480   6.544  10.117   0.536  0.2166 -0.0433  0.0448
18672W        W34481   5.297   4.252  12.930 -0.0177  0.1008 -0.0186
18673W        W34482  13.643  14.880   4.722 -0.0359 -0.2426  0.1056
18674W        W34483  15.657   9.757  10.923 -0.1185  0.1736 -0.2222
18675W        W34484  16.008  16.531   4.653 -0.2910  0.0912 -0.0436
18676W        W34485  12.921  14.039   1.326  0.1009 -0.0565  0.0061
18677W        W34486  11.687  18.576   0.342 -0.0774  0.0401  0.3358
18678W        W34487   0.016  11.208   3.791 -0.3294  0.0462  0.0633
18679W        W34488  13.952   5.901   3.796 -0.1206  0.0814  0.3528
18680W        W34489   7.043   3.377  11.575  0.3822 -0.0227 -0.0878
18681W        W34490  17.193   4.892   4.768  0.0569 -0.2057 -0.2136
18682W        W34491   6.019   9.382  12.815  0.0645  0.3894  0.0281
18683W        W34492   5.589  11.887   4.817  0.2231 -0.0300  0.2576
18684W        W34493   1.645   0.810  11.162  0.1684  0.2114  0.0408
18685W        W34494   3.014  17.219  10.733 -0.3440 -0.5226  0.0539
18686W        W34495   9.917   8.900   4.584  0.0961 -0.0317 -0.0476
18687W        W34496   5.488   0.861  11.877 -0.1107 -0.0402 -0.0104
18688W        W34497   5.808  18.458  15.558 -0.0601 -0.3880 -0.0173
18689W        W34498   3.460  14.900  10.939 -0.2347  0.1096 -0.1270
18690W        W34499   6.990  15.315   0.414 -0.0442 -0.1873  0.1255
18691W        W34500   2.170   8.752   3.967 -0.0563  0.0303  0.0868
18692W        W34501  14.262   3.450   4.685 -0.0557  0.1106  0.2921
18693W        W34502   0.403   6.362   0.140  0.0263 -0.0899  0.3491
18694W        W34503  11.056   9.795   3.924  0.1320 -0.4077  0.1497
18695W        W34504   7.379   5.395   0.523  0.1372  0.0733 -0.0561
18696W        W34505   5.652   5.575   5.098  0.0500  0.1120  0.2684
18697W        W34506   6.122  13.683   3.074 -0.1044  0.0534  0.1024
18698W        W34507   4.645  11.608  11.556  0.0095  0.0632  0.1305
18699W        W34508   5.218  18.470   0.209 -0.0703 -0.0816 -0.0510
18700W        W34509   1.269   2.062  13.648  0.1915 -0.1469 -0.1625
18701W        W34510   4.324  15.562   1.123  0.0836  0.1415 -0.0541
18702W        W34511   0.716  17.808   4.657  0.3356 -0.1577 -0.2374
18703W        W34512   1.070  15.062   4.221 -0.0164 -0.0388 -0.1505
18704W        W34513  17.907   8.765   3.784 -0.0876 -0.2323 -0.0777
18705W        W34514   4.613  11.803   5.088 -0.3050 -0.1235  0.0254
18706W        W34515  15.372  16.425  12.700  0.2455  0.1725  0.1433
18707W        W34516   3.542  14.502  14.095  0.2288  0.1095  0.0601
18708W        W34517   2.996   1.253   4.332 -0.0506  0.1883 -0.1824
18709W        W34518  15.424   3.892   4.774 -0.2192  0.0346 -0.2415
18710W        W34519  17.369   9.025  14.300  0.0678 -0.3038 -0.0928
18711W        W34520  13.248  18.135  11.937  0.1157  0.0665  0.0306
18712W        W34521   2.580   6.247  13.578  0.2058  0.0344  0.1881
18713W        W34522  16.128   2.430  13.542  0.1657 -0.4723  0.1555
18714W        W34523  11.369   6.497   3.830 -0.0389 -0.4489  0.3542
18715W        W34524   8.432  15.387  10.103  0.0652 -0.1292  0.1492
18716W        W34525  11.270  14.857   3.100 -0.0055  0.0886 -0.0773
18717W        W34526  11.033  10.793  11.279 -0.4544  0.2967 -0.2463
18718W        W34527  13.118  17.817   2.205  0.3129  0.0830  0.0979
18719W        W34528   8.444  16.343  15.129 -0.2012  0.2103  0.3569
18720W        W34529   9.847  15.843  13.217 -0.0921  0.3595 -0.2518
18721W        W34530  13.498   9.295  13.063 -0.0426  0.0282 -0.2517
18722W        W34531  12.444   3.216   1.176 -0.1329 -0.0667 -0.0282
18723W        W34532  15.999  15.479  11.832  0.1994 -0.0481 -0.0357
18724W        W34533   4.736   4.406  10.473 -0.1284  0.0998 -0.1383
18725W        W34534  11.798  14.198  15.264 -0.0648 -0.2002  0.0007
18726W        W34535  16.067  14.051   3.485  0.0060  0.2021 -0.2598
18727W        W34536  13.716   6.214   2.985 -0.0294  0.0458  0.1933
18728W        W34537   3.239  13.118  14.291 -0.0494  0.4615  0.0078
18729W        W34538   0.126   7.353   4.622  0.0119  0.2639  0.2261
18730W        W34539  12.067   8.235  13.407 -0.1118  0.0431 -0.5715
18731W        W34540   7.855  16.068  11.681 -0.0093  0.0563  0.3464
18732W        W34541   3.710   2.263   4.475  0.0897  0.0007  0.3248
18733W        W34542  11.112   4.262  13.365 -0.2248  0.2378 -0.2935
18734W        W34543  15.748  13.194  15.213  0.2342  0.2281  0.1744
18735W        W34544   6.105   3.289   4.691  0.1314  0.1353  0.1404
18736W        W34545   2.755   2.450   1.451 -0.0433 -0.1644  0.3371
18737W        W34546  18.239   9.217   2.433  0.0769  0.1977  0.2431
18738W        W34547  13.955   1.275  14.582  0.3092  0.1094 -0.1144
18739W        W34548  10.436  14.850   0.100  0.1071  0.2170  0.2902
18740W        W34549   7.498   2.762  12.392 -0.0530 -0.1805  0.1294
18741W        W34550  14.512   3.812   3.786 -0.0531 -0.0424  0.4369
18742W        W34551   8.946  16.654  11.956 -0.1962  0.3741 -0.1733
18743W        W34552  11.972   2.807  14.404 -0.2477 -0.2396  0.0542
18744W        W34553  14.483  14.789   0.741  0.1854 -0.0569 -0.4359
18745W        W34554   8.211  13.561   1.962 -0.2674 -0.0242 -0.0336
18746W        W34555   3.525   8.718   5.469 -0.0054  0.2086  0.1859
18747W        W34556  17.718   1.829  10.908  0.0407  0.2771 -0.0425
18748W        W34557   4.525  14.843   3.798  0.4137  0.0283 -0.2546
18749W        W34558   5.342   5.785  14.973 -0.0975 -0.0013 -0.0322
18750W        W34559  14.770  14.805  12.789  0.1175  0.2368 -0.2205
18751W        W34560   2.262  14.181  14.284  0.3258 -0.2853  0.0814
18752W        W34561  10.224  18.352  15.436  0.4451 -0.3313  0.1704
18753W        W34562   6.853   4.564   1.732 -0.0524 -0.0281  0.1377
18754W        W34563  13.758   9.618   5.061 -0.0394 -0.0614 -0.0907
18755W        W34564   0.475   2.732   3.601  0.1464 -0.2009  0.0449
18756W        W34565  14.768  10.113   0.302  0.3184 -0.2686  0.2661
18757W        W34566  15.606   6.004   2.084  0.0180 -0.3025 -0.1196
18758W        W34567   8.517  13.109   4.322  0.0116  0.0267 -0.1225
18759W        W34568  13.271   4.317   1.204 -0.3043  0.2301  0.2758
18760W        W34569   3.525   9.686  14.327  0.2533  0.0597 -0.1654
18761W        W34570   0.020  12.722  13.718  0.0649  0.1340  0.2472
18762W        W34571   0.174   0.069  11.951 -0.0073 -0.1678 -0.0650
18763W        W34572   4.491   3.295   2.406  0.1239  0.5003  0.2020
18764W        W34573  15.632  13.555   1.485 -0.0968 -0.1276 -0.1617
18765W        W34574  18.344   9.417   0.287 -0.2276  0.1465 -0.0749
18766W        W34575   4.288   4.196  14.675  0.0328  0.1157 -0.1052
18767W        W34576   4.496  10.411  14.321  0.0087 -0.2212  0.0271
18768W        W34577   2.976  15.599   3.850  0.0860 -0.3535 -0.3141
18769W        W34578   3.443   0.708  13.290 -0.0711 -0.3106 -0.3362
18770W        W34579   5.257   6.881  15.048  0.1515 -0.1983 -0.1882
18771W        W34580  12.694  18.737   1.403  0.1379 -0.0455  0.0833
18772W        W34581  15.350   3.635   3.760  0.0610 -0.2400  0.2168
18773W        W34582   5.481   7.626  11.911  0.2152  0.2838  0.1632
18774W        W34583  15.236   6.363   1.705 -0.1984 -0.2338 -0.1867
18775W        W34584   5.933  15.469  10.936  0.1426  0.4570 -0.2394
18776W        W34585   9.268  17.670   2.106  0.0041  0.3548  0.0281
18777W        W34586   8.821  11.211   2.112  0.0814  0.0647 -0.0695
18778W        W34587   7.748   2.099   4.192 -0.0239 -0.3170  0.1831
18779W        W34588  16.346  17.005  13.483 -0.2372  0.0350 -0.1106
18780W        W34589   3.337   8.104   2.797  0.3548 -0.0589  0.1016
18781W        W34590  15.494  11.877  13.471  0.2255  0.0532  0.1092
18782W        W34591   1.152  10.184   4.574  0.0585 -0.2311 -0.0752
18783W        W34592  17.881   8.406   2.824 -0.1083  0.1536 -0.2854
18784W        W34593   5.862   7.886  12.104 -0.0924 -0.0708 -0.2778
18785W        W34594   8.868   0.872  15.333 -0.3585 -0.0388  0.1089
18786W        W34595  18.551  17.436  13.251  0.2478 -0.0139  0.0959
18787W        W34596  14.522  14.872   5.153  0.1533  0.4416  0.2156
18788W        W34597   7.547  15.273   2.853  0.7452  0.0270  0.0279
18789W        W34598   0.386  10.875   2.918 -0.1597 -0.0256  0.1444
18790W        W34599   1.129  11.481   1.536 -0.1505  0.2799 -0.0261
18791W        W34600  10.645   7.414  13.541  0.3279  0.3174  0.2050
18792W        W34601   1.937  16.235  14.679  0.1388  0.3174 -0.4922
18793W        W34602   2.395  17.737   3.792 -0.0758 -0.1446  0.2797
18794W        W34603  10.866  11.303   0.929 -0.0812  0.3672 -0.1313
18795W        W34604  15.267  15.066   2.665 -0.4125 -0.3291  0.3487
18796W        W34605  14.769   3.055   4.100  0.1580 -0.3212  0.1890
18797W        W34606   6.045  13.330   1.577  0.1454 -0.3879  0.0094
18798W        W34607  13.683  17.881  11.994 -0.2638 -0.1324  0.3340
18799W        W34608  15.206  13.603  13.224  0.0317  0.0086  0.4054
18800W        W34609   3.356   5.781  14.247 -0.2072 -0.0456  0.1543
18801W        W34610  13.888   8.534   0.011 -0.0231 -0.0529 -0.3996
18802W        W34611   8.726   3.341   5.438 -0.0712  0.3574 -0.1060
18803W        W34612  10.773   0.874  12.926 -0.0882  0.0243  0.1103
18804W        W34613   8.048  14.702  13.543  0.1200  0.1544  0.3687
18805W        W34614  18.057  13.163   4.586 -0.1895  0.1268  0.1829
18806W        W34615  13.885   5.005  12.492 -0.1932  0.2405  0.3867
18807W        W34616  17.302   7.403  13.059 -0.0147 -0.1836 -0.0664
18808W        W34617  12.391   4.719   1.393 -0.2045  0.0695 -0.1785
18809W        W34618   1.913  16.757   0.089 -0.0833  0.1005  0.4979
18810W        W34619   7.815  17.405  11.334 -0.2180  0.2160  0.0513
18811W        W34620   8.356   1.278   2.220  0.0502 -0.0751  0.1514
18812W        W34621   5.900  14.660  11.258 -0.1422  0.2974  0.1332
18813W        W34622   4.073   6.968  12.400  0.1836  0.0139  0.0967
18814W        W34623   0.189  13.277  12.950 -0.0447  0.1781 -0.1357
18815W        W34624  17.207   6.573   0.732  0.1174 -0.3146  0.2899
18816W        W34625   6.198   0.240   5.764 -0.1016  0.0092 -0.2169
18817W        W34626  13.451   3.588  13.412  0.0929  0.1990 -0.3886
18818W        W34627  11.524  10.627  13.571  0.3031  0.3201  0.2783
18819W        W34628  10.420  11.721  11.791  0.1601 -0.3300  0.1045
18820W        W34629   9.808   6.598  11.754 -0.1519  0.3216 -0.0681
18821W        W34630   0.462   6.850  10.960 -0.0927  0.1854 -0.1441
18822W        W34631  17.373  14.194  14.672 -0.1962 -0.2812  0.0765
18823W        W34632  15.865   9.417  10.010  0.2210 -0.1623  0.2397
18824W        W34633   6.233   3.240  12.502 -0.0545 -0.1837 -0.2436
18825W        W34634   0.361   4.336  10.577  0.3040  0.3410  0.5036
18826W        W34635   1.678   2.564  12.034  0.2158 -0.0131 -0.2414
18827W        W34636  18.551   8.500  13.892  0.3180  0.2023  0.0186
18828W        W34637   3.849   9.674   4.115  0.0273 -0.2840 -0.0555
18829W        W34638  11.364   4.700   1.565 -0.0435 -0.3851 -0.2385
18830W        W34639   5.346   7.312  10.218 -0.3170 -0.0017  0.1897
18831W        W34640  16.558   3.370   1.655 -0.0293 -0.1100  0.3432
18832W        W34641   4.805  15.100   2.337 -0.2045  0.0213 -0.0185
18833W        W34642  11.346   3.244  14.882 -0.3014 -0.2769  0.3914
18834W        W34643  11.918  14.426  14.785  0.3079 -0.1950 -0.0326
18835W        W34644  13.565   0.157  11.369 -0.2693 -0.2450 -0.0998
18836W        W34645  16.329   1.989   4.631 -0.2933 -0.2049  0.2689
18837W        W34646  14.289  15.485  14.678  0.0029  0.1543  0.1448
18838W        W34647   5.127   8.102  12.827  0.1739  0.2676 -0.2034
18839W        W34648  10.401   0.310   0.826  0.0018  0.1372 -0.1404
18840W        W34649  10.402   8.567   0.640  0.2319 -0.1022  0.0964
18841W        W34650   0.835   7.522  12.528  0.1559 -0.0036 -0.0223
18842W        W34651  10.409   4.436  12.872 -0.0099  0.1175 -0.0260
18843W        W34652   5.874   8.975  13.532  0.1328  0.1440 -0.0266
18844W        W34653   0.847   3.841  11.172 -0.0574  0.0923 -0.1614
18845W        W34654   4.444  17.325   3.193 -0.3474  0.0445 -0.0355
18846W        W34655  11.727   8.478   1.166  0.1274 -0.0048  0.2079
18847W        W34656  12.444  11.970   0.126  0.0692 -0.0778 -0.0678
18848W        W34657   9.731   2.529  14.179 -0.1266 -0.1500  0.1634
18849W        W34658   4.208   1.057  13.643 -0.2129  0.1896 -0.3516
18850W        W34659   2.075   5.237   3.301 -0.1174 -0.1894 -0.2681
18851W        W34660   7.315  16.642   0.562 -0.0382  0.0899  0.2254
18852W        W34661  13.489  11.146   3.900 -0.1212  0.1452  0.1068
18853W        W34662   9.257   0.202  11.196 -0.1058 -0.0118  0.1039
18854W        W34663  18.431  10.840  12.005 -0.1154  0.1376  0.1281
18855W        W34664   9.130   1.420  11.081  0.1294  0.1385 -0.4746
18856W        W34665   7.173   9.690   2.328  0.2097 -0.2124  0.3062
18857W        W34666   8.312   0.965   1.770  0.1839 -0.3361  0.3158
18858W        W34667   5.477   9.762   1.274  0.1956  0.0226  0.3939
18859W        W34668  15.761   8.314  13.496  0.1999  0.0419  0.0886
18860W        W34669  14.893  14.160  14.650  0.0701 -0.3884 -0.0891
18861W        W34670   1.877  18.545  12.354  0.1050  0.2243  0.0647
18862W        W34671   7.915   0.626  11.061  0.1421  0.0017  0.0073
18863W        W34672  16.150  16.335   2.710  0.2136  0.1642  0.3127
18864W        W34673  10.140   4.857  15.034  0.2040 -0.0298 -0.1105
18865W        W34674   4.282   7.368   5.536  0.1356 -0.0946  0.2071
18866W        W34675  13.393   2.488  12.136 -0.2939  0.0444  0.1605
18867W        W34676   9.425  10.143  12.760  0.0188 -0.1797  0.0332
18868W        W34677   2.350   1.527   4.558  0.2653 -0.1594 -0.0065
18869W        W34678   1.621  11.295   0.842  0.0592  0.0494 -0.0783
18870W        W34679   0.547  12.980   4.437  0.0269  0.1740 -0.0663
18871W        W34680  16.984   7.117   0.364 -0.1665 -0.0084 -0.0705
18872W        W34681   3.353  13.420   9.893  0.0899  0.0759 -0.3580
18873W        W34682  14.528  15.332  13.723 -0.4335 -0.1042 -0.0850
18874W        W34683  16.140   2.337   1.017  0.0615  0.4592  0.0398
18875W        W34684  18.227  10.531   4.927  0.0899  0.0157  0.0719
18876W        W34685   8.505   8.491   3.003 -0.1657  0.1362  0.1591
18877W        W34686  12.776   5.525   3.156  0.0879 -0.1188 -0.3480
18878W        W34687   1.404  11.625   3.478  0.2686  0.0484 -0.1273
18879W        W34688  15.946   9.883   4.232 -0.0052 -0.2314  0.0430
18880W        W34689  10.379  18.295  12.540  0.1900 -0.2508  0.0745
18881W        W34690   8.742  17.371   0.772  0.0820 -0.1423  0.0516
18882W        W34691   4.020   4.205   0.576 -0.0237  0.0403 -0.0074
18883W        W34692  18.239   8.919  13.694 -0.0130 -0.0923  0.2363
18884W        W34693   0.363  15.145   1.998 -0.2119  0.1992  0.1143
18885W        W34694  13.000   9.305  11.484 -0.0061 -0.0985 -0.0894
18886W        W34695   8.874  16.221  10.282 -0.3194 -0.3037 -0.0138
18887W        W34696   5.915   9.968   4.894  0.4212  0.3502 -0.0334
18888W        W34697   9.912   8.515   0.638 -0.3162 -0.2809  0.0517
18889W        W34698   0.551  14.504   2.617  0.0377  0.0414 -0.6707
18890W        W34699  15.306  17.613   1.672 -0.0262  0.0108  0.4119
18891W        W34700  16.047  10.973   2.855 -0.2818 -0.2158  0.0250
18892W        W34701  18.415  14.975  10.592 -0.1248 -0.2097 -0.0338
18893W        W34702   3.488   4.677  10.846  0.2051 -0.2020  0.0106
18894W        W34703  10.608   2.893  13.270  0.1805  0.1896 -0.1338
18895W        W34704  18.333   8.926   3.373  0.2471 -0.2103  0.0747
18896W        W34705   2.450   6.569   0.077  0.1840 -0.2173 -0.2110
18897W        W34706   2.403   4.637  14.345  0.1589  0.0075  0.1397
18898W        W34707  15.067   0.470  11.452  0.1130 -0.1552 -0.3111
18899W        W34708  10.832  18.359   5.340  0.1004 -0.0159 -0.0082
18900W        W34709  10.523  10.233   5.871 -0.3574 -0.1754  0.1928
18901W        W34710  11.514   2.231  13.862  0.0840  0.2372 -0.0828
18902W        W34711  15.787   9.374  11.891  0.1453  0.0765  0.4014
18903W        W34712  15.816  11.771   2.259 -0.4249 -0.3259 -0.1314
18904W        W34713   8.194  12.316   1.835 -0.1841 -0.2464 -0.1103
18905W        W34714  16.572  16.418  13.588 -0.2296  0.1439  0.0854
18906W        W34715   1.170  17.438  11.567  0.0840 -0.2989  0.1413
18907W        W34716   9.155  15.548  13.650 -0.2528  0.1093  0.0838
18908W        W34717   3.778  10.426   4.664  0.1825  0.0671 -0.0593
18909W        W34718  12.820   6.668   2.730 -0.0749 -0.0709  0.0444
18910W        W34719  13.067   1.199   3.874 -0.2181 -0.0836  0.1465
18911W        W34720   8.350   3.916   4.166 -0.1023  0.2163 -0.1213
18912W        W34721   0.932   0.008  13.189 -0.1476 -0.2214  0.2305
18913W        W34722   4.895  15.573   2.134 -0.0068  0.0617 -0.2556
18914W        W34723  18.608  18.164   0.495 -0.0268 -0.0889  0.3322
18915W        W34724   4.637  11.039   9.798 -0.2049  0.0928  0.0078
18916W        W34725   3.739  17.842   1.597 -0.0096  0.2926  0.1530
18917W        W34726   4.493   2.045  13.420  0.0439 -0.2870 -0.1095
18918W        W34727   9.809   7.952  13.020  0.0162  0.0732 -0.0308
18919W        W34728  10.184   9.846  15.372 -0.0291 -0.1103  0.3731
18920W        W34729  14.987  14.628  14.956  0.0782  0.2431 -0.2338
18921W        W34730  10.098  14.512   2.441  0.1723  0.2309  0.1509
18922W        W34731   7.213  12.162   2.663 -0.0183 -0.1189  0.2677
18923W        W34732  11.053   5.868   1.130 -0.0302 -0.2729  0.0345
18924W        W34733   6.186   7.069   2.290 -0.0897  0.0396 -0.2291
18925W        W34734  14.494  17.149   0.739 -0.0332  0.0656 -0.2067
18926W        W34735  18.718   0.682  12.778 -0.0891  0.2321  0.2245
18927W        W34736  16.853  10.626   4.846 -0.2307 -0.0254 -0.0952
18928W        W34737  13.982   8.563   2.283  0.0218  0.3697  0.0159
18929W        W34738  12.859   4.596   0.490  0.2256 -0.0132  0.1505
18930W        W34739   3.291   8.602  13.435  0.4202 -0.1692  0.1043
18931W        W34740  12.289  18.319   4.295  0.3024  0.3725  0.0648
18932W        W34741   4.799   4.079  13.483  0.5194 -0.1726 -0.1076
18933W        W34742   1.493   2.906  13.113  0.3325  0.1098  0.0726
18934W        W34743   0.761  17.182   4.807 -0.0385  0.0633  0.1417
18935W        W34744  12.800   8.742  15.249 -0.0079  0.6138 -0.1992
18936W        W34745  13.890   7.809  12.416 -0.1352  0.0138  0.0299
18937W        W34746   2.919  15.337  11.219  0.2484  0.1813 -0.3507
18938W        W34747  13.965  13.929   2.871  0.2271 -0.0027  0.0133
18939W        W34748   8.201  11.010   3.600 -0.1611 -0.1674  0.2339
18940W        W34749   2.275   5.147   0.539  0.0024  0.2659 -0.3709
18941W        W34750  18.109  10.627  10.929 -0.0080  0.1800 -0.1811
18942W        W34751  12.111  12.789   0.291  0.0679 -0.3761 -0.0918
18943W        W34752   0.526  11.046   1.322 -0.2985  0.0443 -0.0530
18944W        W34753   2.774   8.169  14.088  0.0503 -0.2156 -0.0498
18945W        W34754  14.059   7.057  10.588 -0.2772  0.0401 -0.0243
18946W        W34755   2.449  16.978  13.997  0.1653 -0.1789 -0.0830
18947W        W34756   3.600   8.698   3.838 -0.2407 -0.2042  0.0978
18948W        W34757  16.008   1.861   2.322 -0.5224  0.3264  0.4135
18949W        W34758   6.136   2.617   3.960 -0.2095 -0.0293 -0.2641
18950W        W34759  10.496   2.575   5.592 -0.0481  0.0082 -0.1757
18951W        W34760  17.415   3.251   2.686 -0.0080 -0.1638 -0.2965
18952W        W34761  17.726  13.673   4.268  0.1081  0.4082 -0.2349
18953W        W34762   0.479   6.552   2.923 -0.1868  0.2015  0.0882
18954W        W34763   2.742  10.900  11.496 -0.1977 -0.1949  0.3499
18955W        W34764   4.218  13.904  15.255 -0.0579 -0.1954 -0.1826
18956W        W34765   9.489   7.381   5.346  0.0863  0.1104 -0.1294
18957W        W34766  14.120   0.675   1.104 -0.0939 -0.1948 -0.2354
18958W        W34767   1.116   3.373  10.337  0.0451  0.2417  0.0268
18959W        W34768  10.526  13.326   1.901  0.1814  0.0591  0.3907
18960W        W34769  15.152  12.223  13.215  0.0241 -0.2849 -0.0001
18961W        W34770   0.342  18.377  15.538 -0.0142 -0.1693 -0.1583
18962W        W34771  10.930   3.542  11.160  0.0659  0.2389 -0.3197
18963W        W34772   2.205   5.271  13.087  0.0048 -0.0463 -0.0934
18964W        W34773   0.449  16.089   4.115  0.1553 -0.2312  0.2911
18965W        W34774   8.423  10.321   4.648 -0.1456 -0.5805  0.0127
18966W        W34775   9.795   2.101   1.054  0.0861 -0.0295 -0.0741
18967W        W34776  16.469   5.893  13.341  0.1552 -0.1198  0.2624
18968W        W34777   3.229  12.929   4.452 -0.3324 -0.2533  0.1459
18969W        W34778  11.071   4.959   0.625  0.1413 -0.1042  0.1148
18970W        W34779  14.977   1.563  14.397 -0.5367 -0.0758 -0.2887
18971W        W34780   5.172   9.838   0.224  0.3184  0.2078  0.2644
18972W        W34781  11.157  11.398   5.682 -0.0908  0.1122  0.0619
18973W        W34782  11.188   4.816  11.307  0.1483 -0.0174 -0.1709
18974W        W34783  13.504   5.282  12.700 -0.0679 -0.3551  0.1200
18975W        W34784  18.730  16.598  12.422 -0.0237 -0.0331  0.1046
18976W        W34785   6.897  17.350  11.606  0.0769  0.1822  0.1177
18977W        W34786  15.372   0.090   4.766 -0.1835 -0.0623 -0.2648
18978W        W34787  17.631   1.007  11.699 -0.0972  0.1600 -0.3258
18979W        W34788  15.139  18.145   0.116  0.0732  0.3062  0.1050
18980W        W34789   1.539  18.191  11.669 -0.0588  0.2687 -0.0121
18981W        W34790  17.180   2.011   4.657  0.1420  0.0505  0.0382
18982W        W34791   8.542   5.294   4.893  0.0380 -0.1265 -0.0549
18983W        W34792  18.222   8.278  14.341 -0.0894 -0.2574 -0.1361
18984W        W34793  16.724  15.271  12.008 -0.2811 -0.1019  0.1991
18985W        W34794   1.646  17.821   0.419  0.0408  0.3708  0.0907
18986W        W34795  18.276  11.551  11.414  0.1822  0.2227  0.1211
18987W        W34796  12.099   2.094  11.719  0.0182  0.0544  0.0490
18988W        W34797  13.177  17.481  14.094 -0.0326  0.3738 -0.0113
18989W        W34798  17.654   2.275   5.349 -0.0842  0.2088 -0.0696
18990W        W34799  11.625   2.062  11.910 -0.0371  0.1022 -0.0178
18991W        W34800  12.224   4.208  11.871  0.0992 -0.0388 -0.1266
18992W        W34801   8.663  12.764   1.694  0.0511 -0.4363 -0.2172
18993W        W34802  10.462  17.328   3.605 -0.1487  0.1194  0.0258
18994W        W34803   2.290  13.455  12.723  0.0938  0.0088 -0.0498
18995W        W34804  13.237   1.316  14.022  0.0220 -0.0030 -0.2222
18996W        W34805  16.372  17.420  12.524  0.2743 -0.3310 -0.0261
18997W        W34806  13.721  13.474  15.183  0.1648  0.1086  0.4095
18998W        W34807  14.290  16.503   5.360 -0.2248  0.1997  0.0840
18999W        W34808   7.918  12.628   9.200 -0.1001  0.2065 -0.0228
19000W        W34809  10.766   6.199   0.684 -0.1365 -0.2918 -0.1634
19001W        W34810   0.820  12.167   2.520 -0.0671  0.1117 -0.0088
19002W        W34811  17.136   1.130   3.019  0.1264  0.0132  0.0407
19003W        W34812   1.257   1.187  14.660  0.0364  0.2565  0.1128
19004W        W34813   4.855   2.641   4.075 -0.2370 -0.0838  0.0194
19005W        W34814  10.088  12.576  11.455  0.0296  0.0784 -0.1290
19006W        W34815  13.176   5.103  14.768 -0.3446 -0.1608 -0.0048
19007W        W34816  13.913   9.325  11.893 -0.3280  0.0702  0.0295
19008W        W34817   8.134   1.931   3.898 -0.1867  0.2482 -0.1976
19009W        W34818  16.013   9.801   3.701  0.0369  0.3609 -0.3362
19010W        W34819  13.594  11.596  15.229  0.4351 -0.0967 -0.2427
19011W        W34820  11.910   4.712  14.651  0.1710 -0.1055  0.0876
19012W        W34821   8.350  10.570  12.183  0.1010  0.0508  0.3060
19013W        W34822   0.858   4.107  14.292  0.0814  0.0701  0.1878
19014W        W34823  17.279   2.028   1.949 -0.4013 -0.0062 -0.0122
19015W        W34824   3.064  12.412   0.491  0.1190  0.0865  0.0474
19016W        W34825   3.694  10.742   5.749  0.0379 -0.1253 -0.3944
19017W        W34826  14.654   4.122   1.288 -0.0742  0.3249 -0.3910
19018W        W34827  17.878   1.524  15.270  0.0176 -0.0087  0.1039
19019W        W34828  16.690   5.447   2.599  0.5390  0.2753  0.0590
19020W        W34829   4.739  11.125   1.255  0.0526  0.0696 -0.5183
19021W        W34830   7.262  13.000  12.065 -0.1894 -0.1352  0.0333
19022W        W34831   0.109  17.119  14.578  0.0615 -0.1972  0.1650
19023W        W34832   9.892  17.247  12.649 -0.0416 -0.0838 -0.0883
19024W        W34833  18.413   4.688  13.241 -0.1595  0.2639 -0.3776
19025W        W34834   6.241   2.170  14.857  0.0021  0.2275  0.1222
19026W        W34835   4.873   0.851  11.222 -0.1361  0.1371 -0.0181
19027W        W34836   0.468   8.123   0.411  0.0750 -0.0890  0.1691
19028W        W34837  17.202  13.393   5.545 -0.0651 -0.0971 -0.1638
19029W        W34838  12.474  11.245  12.408 -0.1730  0.1220  0.1514
19030W        W34839   1.476   6.785  13.844  0.1419 -0.3821 -0.0276
19031W        W34840   8.705  12.376  13.210  0.0133  0.0026  0.1617
19032W        W34841  12.288   3.862   1.925 -0.4197  0.2000 -0.0325
19033W        W34842   5.034   2.099  12.686  0.1898 -0.1352 -0.1184
19034W        W34843  13.239   5.442   2.475  0.1275 -0.0610 -0.0490
19035W        W34844   3.557  12.368  14.795  0.2962  0.0686 -0.0751
19036W        W34845  18.273   5.793   0.264 -0.1775  0.0920  0.1179
19037W        W34846   2.226  15.427   3.287  0.1085 -0.2840  0.1249
19038W        W34847  14.907   4.116   1.715  0.0393  0.0285  0.0953
19039W        W34848  11.597  11.398   3.359 -0.1833  0.0702  0.0255
19040W        W34849   7.476  18.278   2.266 -0.1951 -0.0156  0.0826
19041W        W34850   6.419  11.785   0.594 -0.0448 -0.5686 -0.0014
19042W        W34851  14.721   0.588  11.935  0.1492 -0.2018  0.1599
19043W        W34852   1.477  15.250   3.937 -0.0598  0.1427 -0.2505
19044W        W34853  11.618   2.158   1.741 -0.0194 -0.0744  0.0803
19045W        W34854   2.889  17.711   4.047  0.2528  0.0767  0.1222
19046W        W34855  15.061   5.612   3.773  0.0979  0.0677  0.0720
19047W        W34856  11.408   3.950   1.800  0.0082  0.0427  0.3354
19048W        W34857   6.847  12.645  12.018 -0.1125  0.2184 -0.3370
19049W        W34858  17.668  17.568   2.633 -0.4430 -0.1838 -0.1099
19050W        W34859  11.606  17.729   0.738 -0.3292  0.2108 -0.2295
19051W        W34860   6.391   2.888  12.151 -0.1857 -0.1046 -0.0103
19052W        W34861   9.310   6.416   3.465 -0.1545  0.0412  0.2839
19053W        W34862   6.341  10.795   0.484 -0.1279 -0.1203  0.1324
19054W        W34863  18.284  13.800   0.935  0.1955  0.0996 -0.1126
19055W        W34864  13.642  12.897   4.051  0.3119  0.2692  0.1265
19056W        W34865   0.501   2.378   1.989  0.0050 -0.1364 -0.1312
19057W        W34866  12.800   0.718   4.721  0.2594 -0.0411  0.0594
19058W        W34867   6.447  12.270   1.850  0.0505  0.1851  0.0706
19059W        W34868  15.253  10.852   3.497  0.1866 -0.0903  0.0681
19060W        W34869   0.130   1.485   0.592 -0.1496  0.1854 -0.1249
19061W        W34870   6.565  15.796  11.820  0.0722 -0.1137  0.0884
19062W        W34871  13.483   8.707   2.170  0.0332 -0.0041  0.1990
19063W        W34872  14.994   7.585   4.986 -0.2867  0.2186 -0.1106
19064W        W34873   2.836  14.261  14.996 -0.0886 -0.0199 -0.2328
19065W        W34874  16.278  18.257   5.446  0.2401 -0.2331  0.0570
19066W        W34875   9.212   9.112   2.237  0.0460  0.1483 -0.2033
19067W        W34876   9.216   2.153  13.836  0.0760  0.1087 -0.4492
19068W        W34877   5.279  17.170   0.322  0.2707  0.5214 -0.2107
19069W        W34878   5.679   5.614  14.688 -0.1329  0.1689 -0.2863
19070W        W34879  13.509  14.293   2.060 -0.1275  0.3647 -0.1127
19071W        W34880  18.665  16.689  14.696 -0.1836 -0.1941 -0.0024
19072W        W34881   1.025   8.759   0.113  0.0216 -0.1368 -0.0403
19073W        W34882  15.591  14.766   4.024 -0.0940  0.1681  0.0318
19074W        W34883  13.569  10.750   2.765 -0.0078  0.2760 -0.1586
19075W        W34884   2.397  16.392   3.939  0.0745  0.0844 -0.0706
19076W        W34885   6.375  16.064   1.676 -0.2015  0.0156 -0.0570
19077W        W34886   5.590   3.077  12.577 -0.0426  0.1265  0.0917
19078W        W34887  18.391   8.193  10.529  0.0252  0.1200 -0.0285
19079W        W34888  16.843   7.221   2.183  0.0351  0.0110 -0.1875
19080W        W34889  14.910  15.216  15.108 -0.1871 -0.2254 -0.3173
19081W        W34890   9.721   8.149  12.515 -0.1392 -0.1161  0.3667
19082W        W34891  16.470   1.538   2.470 -0.0209  0.4468  0.3281
19083W        W34892   8.765  11.900  14.353  0.1935  0.0285  0.0513
19084W        W34893   2.858   8.012   0.847 -0.1655  0.0300  0.1657
19085W        W34894   9.974  15.196  12.823 -0.0705  0.0217  0.3395
19086W        W34895   8.345   8.079   5.927  0.0599 -0.2910  0.0837
19087W        W34896   3.484   8.073  14.466  0.1875  0.0088 -0.1681
19088W        W34897   1.429  14.626  11.012 -0.0442  0.0094  0.0166
19089W        W34898   5.644  10.609   2.478  0.1998  0.0708  0.0339
19090W        W34899   3.845   8.683  15.235 -0.0887  0.1337 -0.0228
19091W        W34900  17.020  12.943  15.231 -0.0100 -0.1483  0.0754
19092W        W34901   8.954  15.890   3.466  0.1514 -0.0722  0.0793
19093W        W34902   9.266  12.485   4.514  0.0542 -0.0877 -0.3098
19094W        W34903  13.830   2.877   4.041  0.1879 -0.2482  0.2169
19095W        W34904   5.483   6.044   3.464  0.3391  0.1751  0.1706
19096W        W34905   2.258  10.426   0.155 -0.0821 -0.0547 -0.0857
19097W        W34906  15.549   8.136  13.000 -0.3646  0.1581  0.1517
19098W        W34907   0.260  17.220   2.732  0.1053  0.0829 -0.1208
19099W        W34908   9.534  16.142  14.518 -0.0829  0.2861 -0.0995
19100W        W34909   9.882  12.576  13.907 -0.1080 -0.1476 -0.1572
19101W        W34910  13.237  10.485  14.441 -0.1761 -0.3649 -0.2646
19102W        W34911   7.090  13.365   1.467  0.1657 -0.2297  0.2851
19103W        W34912  15.878  12.607   3.652  0.0177  0.1703 -0.1633
19104W        W34913  16.031  11.801  13.628 -0.1361  0.1978 -0.1514
19105W        W34914  13.414   6.801  14.212  0.1685 -0.4914  0.0989
19106W        W34915   7.933   7.590   5.063 -0.2823  0.2216 -0.2989
19107W        W34916   4.578   1.594   3.179 -0.1963  0.0533 -0.0429
19108W        W34917   5.765   0.139  11.224 -0.0393  0.2211 -0.4044
19109W        W34918   6.274  11.799  11.539 -0.2536 -0.0340  0.1143
19110W        W34919  16.307   5.723   4.354 -0.1024  0.0455  0.0217
19111W        W34920  16.192  12.917   4.678  0.2825  0.0263 -0.0547
19112W        W34921   9.289   2.821   9.649 -0.1597  0.2060 -0.0340
19113W        W34922   5.444  18.757  13.825  0.1477  0.4850  0.2593
19114W        W34923   5.472   9.345   0.457 -0.0642 -0.1485  0.2667
19115W        W34924   0.185   5.623   1.438  0.1167 -0.0316  0.0190
19116W        W34925   2.441   6.104  11.448 -0.0076  0.1015  0.0021
19117W        W34926  17.565  17.407  12.954  0.0737  0.0177  0.0365
19118W        W34927   6.624   3.839   3.683  0.2183 -0.1108  0.1067
19119W        W34928  15.122  16.475   5.552 -0.3544 -0.0952  0.2999
19120W        W34929   3.977   7.840   4.459  0.0340  0.0848 -0.1621
19121W        W34930   0.047  14.360   4.561  0.4888 -0.1350 -0.1206
19122W        W34931  12.377   6.421   3.943  0.0566  0.0007  0.2834
19123W        W34932  18.111   9.502   2.992 -0.2048 -0.0296  0.3405
19124W        W34933  17.907  18.279  13.022  0.3200  0.0449 -0.0635
19125W        W34934  17.365  14.405   2.566 -0.0286 -0.0561 -0.1595
19126W        W34935   2.749  16.138  11.491 -0.3611  0.3664  0.0376
19127W        W34936   3.162   4.770  10.514 -0.1615 -0.1515 -0.0179
19128W        W34937   3.727  17.330   2.247 -0.0107  0.0811 -0.2864
19129W        W34938  10.028  11.497   9.895  0.2781  0.0808 -0.1306
19130W        W34939  18.640   0.909   3.573 -0.1814 -0.0059 -0.1200
19131W        W34940   6.575  14.022  10.337 -0.1385 -0.0196 -0.1706
19132W        W34941   7.303  15.540  13.854 -0.0884  0.3062  0.2553
19133W        W34942   2.489   5.166   3.013 -0.0076  0.1075  0.1801
19134W        W34943  13.872   0.869   3.251 -0.1958 -0.0667 -0.3279
19135W        W34944  17.975   2.266   2.184  0.2262 -0.3155  0.4645
19136W        W34945  14.119   7.369  15.107 -0.2871  0.0766 -0.2711
19137W        W34946   4.008  12.265   1.820  0.1131 -0.0047 -0.0188
19138W        W34947   1.892   8.013   3.223 -0.3794 -0.2272  0.0288
19139W        W34948  16.757   7.677  11.089  0.3273  0.0307 -0.2049
19140W        W34949   1.844  12.363   2.803  0.1527  0.0639 -0.0224
19141W        W34950  17.620  16.130   5.170 -0.1330 -0.0577 -0.2842
19142W        W34951  11.182  12.770  14.265  0.0967 -0.1608  0.0777
19143W        W34952  18.088   4.869   5.785 -0.0329 -0.1019  0.0866
19144W        W34953   4.369   7.403  13.408  0.0136 -0.1162 -0.2546
19145W        W34954   2.834  18.673  11.248 -0.1233  0.1768  0.3415
19146W        W34955   7.358  15.169   2.361  0.0039  0.3299  0.1411
19147W        W34956   2.526   0.697  13.503 -0.3122 -0.2055  0.1656
19148W        W34957   0.095   2.189  11.374 -0.1824  0.1573  0.2172
19149W        W34958   3.295  15.979  10.102  0.2445 -0.0446  0.2196
19150W        W34959   2.413   5.065  13.608 -0.2183  0.0267 -0.2186
19151W        W34960   4.526   5.272   4.276  0.0991 -0.3164 -0.4375
19152W        W34961   3.535   7.366  15.508  0.4694 -0.0046 -0.0626
19153W        W34962   9.079  14.280   2.819 -0.0146 -0.1546  0.2084
19154W        W34963   8.560  13.284   3.166 -0.1632  0.0821  0.0018
19155W        W34964   4.743  16.704  15.010  0.1062  0.0291  0.2689
19156W        W34965  13.247  16.048   4.392 -0.2707 -0.1247  0.1863
19157W        W34966   2.589  12.772  12.034  0.1600 -0.0685  0.2394
19158W        W34967   8.511  17.263   1.356  0.0055 -0.1633  0.3443
19159W        W34968   3.817  11.330  15.449  0.0899  0.0246  0.0223
19160W        W34969  16.798   1.423  12.838 -0.0599  0.1073 -0.2759
19161W        W34970  12.271   6.507   3.476 -0.3880 -0.3253 -0.0195
19162W        W34971  17.525  13.657  10.935  0.2592  0.1319 -0.4371
19163W        W34972  17.819  17.016   3.571  0.1354 -0.1810 -0.1101
19164W        W34973  17.475   1.706   4.363 -0.1127  0.0785 -0.0990
19165W        W34974   1.397   7.547  15.140 -0.1061 -0.0958 -0.2491
19166W        W34975  18.498   7.791   4.568  0.0796  0.2445 -0.4273
19167W        W34976   0.659  14.390  13.382  0.0003 -0.1112 -0.2795
19168W        W34977   4.003  12.440   5.621 -0.1843  0.0872 -0.0107
19169W        W34978   7.891   9.098   3.359  0.1280 -0.1668  0.3894
19170W        W34979  16.112  13.612  15.182 -0.3988  0.0244  0.0256
19171W        W34980  13.467   7.101   3.914  0.3037 -0.3668  0.4193
19172W        W34981   9.281  17.112  13.172 -0.3226 -0.0766 -0.0501
19173W        W34982   4.028   8.509   5.564 -0.1569 -0.0665 -0.2102
19174W        W34983   6.171   4.358  12.852 -0.1225 -0.1685 -0.0568
19175W        W34984  14.698  16.718   4.172  0.0722 -0.1471 -0.1972
19176W        W34985   1.761  16.042   4.392  0.2206 -0.2915 -0.5341
19177W        W34986  11.015   2.479  12.055 -0.0992 -0.0146 -0.0315
19178W        W34987   6.185  17.862  14.193  0.3488  0.0448 -0.0408
19179W        W34988   3.134   9.217   9.548  0.2584 -0.1186 -0.1995
19180W        W34989   5.882   7.582  11.558  0.2172  0.0983  0.1295
19181W        W34990  12.575  16.650   3.454 -0.1715 -0.0641  0.1323
19182W        W34991  11.197  15.561   4.623  0.3717 -0.2849 -0.1373
19183W        W34992  12.225   7.218   1.055 -0.2215 -0.0374 -0.0518
19184W        W34993  16.586   0.712   0.479  0.0999  0.1033  0.3066
19185W        W34994  10.157  18.369   0.346  0.0389  0.1595 -0.1505
19186W        W34995  13.105   0.379   5.997  0.2928  0.3856  0.0892
19187W        W34996  10.198  12.231  11.934  0.1525  0.0473 -0.0821
19188W        W34997   7.439  13.657   0.947  0.2681  0.1783 -0.1179
19189W        W34998  17.094  14.525   0.471  0.1351 -0.1195 -0.0142
19190W        W34999   1.681  16.840  12.709  0.0231 -0.1917 -0.0338
19191W        W35000  13.609  16.906  13.736  0.0124  0.0565  0.3207
19192W        W35001  12.527   8.435  14.466 -0.0740  0.0874 -0.2302
19193W        W35002   8.960  14.980   2.242 -0.1552  0.2397 -0.2083
19194W        W35003   9.386   7.310  15.224 -0.0180  0.2525 -0.1548
19195W        W35004   4.067  14.090   2.311  0.3115 -0.0888 -0.1449
19196W        W35005   9.676   4.164   0.696 -0.1241  0.0281 -0.1133
19197W        W35006  16.180  11.500   4.312 -0.1112 -0.0477 -0.0994
19198W        W35007   6.536   3.361   5.125 -0.0298 -0.2275  0.0539
19199W        W35008   2.823   3.026   4.185  0.2099 -0.1851  0.3106
19200W        W35009   5.572  11.056   3.598  0.0725 -0.1648 -0.2125
19201W        W35010  15.937  17.166  14.626  0.1335  0.0715 -0.1212
19202W        W35011  12.406  16.144   2.117  0.0499  0.2426  0.0778
19203W        W35012   2.080  18.756   2.264 -0.1134 -0.4650 -0.3289
19204W        W35013  18.022  16.232   4.551  0.1983 -0.2185  0.1166
19205W        W35014   0.988  12.039   3.751  0.1894  0.0727  0.0076
19206W        W35015   5.942  16.718   2.331  0.4660  0.1008  0.1373
19207W        W35016   6.148   4.779  13.560  0.0573  0.0519  0.1415
19208W        W35017   2.448   1.844   4.201 -0.0733 -0.1495 -0.0384
19209W        W35018  14.909   5.204  13.511  0.0773 -0.1452 -0.1431
19210W        W35019   1.450  13.358   3.781  0.4121 -0.1233 -0.0353
19211W        W35020  17.328   7.390   1.191 -0.1207 -0.0406  0.3125
19212W        W35021  16.252  11.337  15.123  0.0520 -0.0330  0.1482
19213W        W35022  14.237   5.331  13.416  0.0991  0.2631 -0.1629
19214W        W35023   1.536  13.556  14.636  0.0331  0.2478 -0.2121
19215W        W35024  16.281  10.691   3.842  0.0652  0.1283 -0.0653
19216W        W35025   1.448   0.452   1.844 -0.4970  0.0356 -0.0047
19217W        W35026   2.404   1.013   4.454 -0.1062  0.0639 -0.0373
19218W        W35027  14.616   1.667   2.977  0.1763  0.1003  0.0276
19219W        W35028  13.969   4.567   4.763  0.1215  0.2220 -0.1826
19220W        W35029   0.792  15.556  14.426  0.0949  0.1096 -0.0559
19221W        W35030  12.774   1.552  13.163 -0.0583  0.1957 -0.0694
19222W        W35031   7.110  18.219   0.835  0.2634  0.3857  0.2816
19223W        W35032   3.261   5.459  13.440  0.0140  0.1325 -0.2530
19224W        W35033  17.021  18.434   4.334 -0.0038  0.0481  0.2847
19225W        W35034   7.068  15.609  14.254 -0.1273 -0.1251  0.0175
19226W        W35035  13.111  11.980   3.951  0.0993 -0.2975  0.3430
19227W        W35036  16.491   7.868   2.220 -0.2539  0.0119  0.0516
19228W        W35037  13.769  11.930   0.485  0.1644  0.0214  0.0840
19229W        W35038   1.595   1.085   3.208  0.2584 -0.0165 -0.0804
19230W        W35039  11.241   2.081   1.410 -0.2543  0.1298 -0.3919
19231W        W35040   1.937  12.018  13.970  0.2942  0.1556  0.4094
19232W        W35041   8.582  10.836   4.467  0.1242 -0.1240  0.0524
19233W        W35042   2.637  17.237  15.294 -0.0596 -0.1350  0.3989
19234W        W35043   1.679   1.032   0.460  0.1835  0.2139  0.1203
19235W        W35044   2.751  14.353   4.412 -0.0119  0.3257  0.1194
19236W        W35045  16.375   6.399  12.997  0.1859 -0.0904 -0.0457
19237W        W35046   7.565  11.324  11.022  0.0731  0.0592  0.0370
19238W        W35047   5.035   0.102  13.032 -0.3004 -0.1461  0.1535
19239W        W35048   1.867  12.619   2.387  0.0708 -0.1958  0.2826
19240W        W35049  16.961   1.505  13.398  0.3319 -0.1087 -0.1993
19241W        W35050   0.366  10.446   2.010  0.2336  0.2495 -0.0414
19242W        W35051  13.912   1.286  10.984  0.0016  0.1162  0.1189
19243W        W35052  12.854  16.957  13.274 -0.2085 -0.1079  0.0118
19244W        W35053  11.221   4.734   4.238 -0.3180  0.1795 -0.1993
19245W        W35054  14.469   7.910  11.120 -0.1119 -0.1599  0.0588
19246W        W35055  16.807   9.652   1.822 -0.2826 -0.2951 -0.1218
19247W        W35056  13.906   2.232   2.126  0.1324 -0.2185 -0.0809
19248W        W35057  12.678  12.940   4.881 -0.1338 -0.0683 -0.2672
19249W        W35058  14.644   0.851   1.786  0.1836  0.1624  0.1012
19250W        W35059  10.055   4.715  14.525 -0.1033 -0.1838  0.1605
19251W        W35060   5.501  16.149   1.432 -0.1625 -0.0997 -0.1395
19252W        W35061   3.250   8.568  14.739 -0.1378  0.1081  0.0319
19253W        W35062  17.166   5.778  15.325 -0.0757  0.0420  0.1737
19254W        W35063  14.756   8.215   4.348  0.1063 -0.0603 -0.5593
19255W        W35064   6.567   5.867   3.078 -0.2668 -0.3632 -0.0906
19256W        W35065  18.331   8.156  13.599 -0.0179 -0.1034  0.2162
19257W        W35066  18.099   9.508  12.730 -0.1393 -0.0429  0.3219
19258W        W35067   2.039   0.519  13.168  0.0162  0.0902 -0.2749
19259W        W35068  14.548   2.777   5.463  0.0669  0.2832  0.3643
19260W        W35069  10.474   7.585  12.742  0.2175 -0.0061  0.3064
19261W        W35070   8.243   2.153   4.993 -0.1501  0.3924  0.3084
19262W        W35071   1.419   5.502  14.676  0.0422  0.2413  0.1145
19263W        W35072   0.482   3.999   1.437  0.2158 -0.0964  0.0195
19264W        W35073  18.658   9.860   3.044  0.0255 -0.1287 -0.2301
19265W        W35074  17.300   9.154   4.536 -0.1810 -0.1984  0.0023
19266W        W35075  15.521   6.375  13.602  0.0355 -0.1448  0.0045
19267W        W35076  14.731  17.230   5.790 -0.0179  0.0867 -0.1206
19268W        W35077   8.121   3.378  15.343 -0.4274  0.0257 -0.0138
19269W        W35078   6.915  18.263   9.700  0.0215  0.1165  0.0151
19270W        W35079   7.604   1.817  12.485 -0.1227  0.1191  0.2883
19271W        W35080   5.232   0.497  12.140 -0.1863  0.0163  0.1616
19272W        W35081  10.954  18.115  11.688 -0.0273  0.2750 -0.0470
19273W        W35082  11.812  17.032   0.067 -0.3492  0.2800 -0.0578
19274W        W35083  11.567   9.541   4.157  0.0897  0.0755  0.1261
19275W        W35084   5.636  13.210  12.488  0.3091 -0.4152 -0.2236
19276W        W35085   1.171   0.387  14.936 -0.0605 -0.0804  0.1285
19277W        W35086   5.183   0.439  14.658 -0.1256 -0.1235  0.3430
19278W        W35087  17.815  17.608   0.226 -0.0041  0.0456 -0.0437
19279W        W35088   0.027   5.625   1.919  0.0270 -0.1077  0.0795
19280W        W35089   0.513   5.961   1.251  0.2330  0.0895 -0.0997
19281W        W35090  14.699  11.873   4.725 -0.5526  0.0967 -0.0009
19282W        W35091  13.776  14.576  13.742  0.2955 -0.0992  0.2412
19283W        W35092   2.819  17.384  11.189 -0.3665 -0.1430 -0.0352
19284W        W35093  16.070  12.352  13.613  0.1334 -0.1791 -0.0736
19285W        W35094  13.049   7.892   5.255  0.1519 -0.2088 -0.1788
19286W        W35095  14.886  17.674  12.867 -0.0177  0.1221  0.1554
19287W        W35096  15.922  16.223  12.740  0.0436 -0.0049  0.0068
19288W        W35097   7.071   2.543   3.331 -0.2381 -0.2427 -0.1224
19289W        W35098   7.641  13.494   4.053 -0.0123  0.0763 -0.1210
19290W        W35099   6.705  12.748  12.738 -0.2231  0.0481  0.2872
19291W        W35100  18.303  13.233  12.869 -0.0594  0.1895  0.0904
19292W        W35101   2.061   2.030  12.618 -0.0036 -0.3066 -0.0286
19293W        W35102  11.648  18.239  12.106 -0.1118 -0.2213  0.0345
19294W        W35103   6.543   5.465  14.000  0.1717 -0.0326  0.0499
19295W        W35104   2.190  14.451  15.508 -0.3295 -0.0630  0.0095
19296W        W35105  15.226   5.127  15.401 -0.2592 -0.0629 -0.2932
19297W        W35106   8.254   1.310   5.162 -0.4042  0.3665 -0.2200
19298W        W35107   5.587  18.779  14.620  0.2092  0.2061  0.0142
19299W        W35108   7.044   2.016  15.393  0.5326 -0.1351  0.2107
19300W        W35109  13.499  18.205  12.338 -0.2616 -0.0324 -0.1176
19301W        W35110  14.673  10.947   2.382  0.1587  0.0716  0.1729
19302W        W35111   3.715  15.173   2.946  0.2928  0.0782 -0.1452
19303W        W35112   8.098   5.301   5.149  0.0042 -0.3208 -0.0489
19304W        W35113   0.830   0.605  15.229 -0.1086  0.4181 -0.1235
19305W        W35114  14.690   8.192   3.464  0.5542 -0.0012 -0.0225
19306W        W35115  16.903   3.319   5.797 -0.3367  0.0760 -0.0157
19307W        W35116   7.058   5.682   0.239  0.0849 -0.1494  0.1638
19308W        W35117  12.543  15.920   2.590 -0.0418 -0.2020 -0.2297
19309W        W35118  13.447   5.045   0.340  0.1750 -0.5706 -0.1270
19310W        W35119  15.589   4.453  13.244  0.0216 -0.0526  0.2815
19311W        W35120   8.379   3.196  11.659  0.0938  0.0583 -0.0769
19312W        W35121  17.957  14.460   4.967  0.1575 -0.1434  0.1240
19313W        W35122   2.251  10.934  11.835 -0.1645 -0.0487  0.0306
19314W        W35123   2.411  11.011   2.391 -0.1147  0.1876  0.0491
19315W        W35124  12.966  10.009   3.936  0.1724  0.0979  0.0468
19316W        W35125  13.064   7.729   0.525 -0.0003  0.2757 -0.1638
19317W        W35126  16.578   0.371   4.957 -0.0308  0.1648  0.3225
19318W        W35127   1.385  14.106   2.191 -0.3281 -0.5459 -0.0255
19319W        W35128  17.403  16.293   9.892  0.0086 -0.1840 -0.3231
19320W        W35129   8.816   1.706  13.961 -0.0992 -0.0991 -0.2082
19321W        W35130   7.402   8.946   2.664 -0.2958 -0.0490  0.3876
19322W        W35131  10.805   8.207   0.874  0.3855 -0.0803 -0.4158
19323W        W35132  15.005   7.072  13.010  0.1057 -0.1314 -0.3523
19324W        W35133  18.241   7.776   1.380 -0.5620 -0.2567  0.0179
19325W        W35134  15.729  12.035   1.801 -0.1235 -0.1547 -0.1814
19326W        W35135  13.746  17.726  14.373 -0.0551  0.0570  0.0932
19327W        W35136  13.255   1.953   4.434 -0.0896 -0.1520 -0.0599
19328W        W35137   8.169  12.695   9.689  0.2135 -0.0452 -0.0687
19329W        W35138   9.136   3.834   1.980 -0.0993 -0.1430  0.0072
19330W        W35139   2.243   2.946   0.544 -0.1443  0.0850 -0.0886
19331W        W35140  13.430   3.098   5.443  0.0936 -0.0268  0.0895
19332W        W35141  16.166   2.770   6.015 -0.1313 -0.2408  0.1060
19333W        W35142   5.607  10.735   1.932  0.0747  0.1652  0.2157
19334W        W35143  15.184  15.459   3.237 -0.0199  0.2327 -0.1610
19335W        W35144  16.989   5.937  12.609 -0.0133 -0.2030 -0.0566
19336W        W35145  17.154  15.149   3.334  0.2267  0.0734  0.2653
19337W        W35146   4.995  18.569  10.859  0.0191  0.0332  0.1999
19338W        W35147   4.449   6.738   2.387  0.1709 -0.2836 -0.0953
19339W        W35148   1.602   6.802   1.643 -0.3281  0.2334  0.0185
19340W        W35149  17.125  12.718   0.134 -0.2552 -0.0849 -0.1714
19341W        W35150   2.020  11.717  13.172  0.5252  0.0884 -0.3627
19342W        W35151   2.342   9.258   1.406  0.0190 -0.3909  0.0431
19343W        W35152   6.466   4.789  11.230  0.2253  0.2927 -0.1911
19344W        W35153  16.268  17.445   1.847  0.4541  0.0936  0.2570
19345W        W35154   0.437   7.162   1.889 -0.3109 -0.1555  0.0012
19346W        W35155  12.662   3.831   3.219  0.1559  0.0640 -0.0162
19347W        W35156  13.765   2.171  11.313 -0.2132 -0.0023  0.0049
19348W        W35157  10.755  15.799   4.504  0.1312  0.1862 -0.4513
19349W        W35158   4.073  14.438   3.966 -0.1714  0.1123  0.0086
19350W        W35159   2.336  15.780   3.652  0.1979 -0.0810  0.2075
19351W        W35160  14.270  17.162   0.159 -0.0151  0.3361  0.5058
19352W        W35161   6.031   9.470   3.201  0.0621  0.0728  0.0385
19353W        W35162  14.644   9.736  11.888  0.0749 -0.0076 -0.0226
19354W        W35163  11.732   0.685   3.689 -0.2920  0.0393 -0.1828
19355W        W35164  11.629   0.153   0.981 -0.0070  0.0396 -0.0021
19356W        W35165   5.298  17.335   4.595  0.3180  0.1578  0.1633
19357W        W35166  17.632  14.058  11.215 -0.0955  0.0189 -0.1206
19358W        W35167   7.498   8.725   3.150 -0.0190  0.3858 -0.2531
19359W        W35168  11.799   4.241  12.826 -0.1516  0.2020  0.0732
19360W        W35169   3.359   6.074  11.256  0.1490 -0.0271  0.1906
19361W        W35170  14.285  11.381   4.085  0.1483  0.1602 -0.1119
19362W        W35171  14.627  17.263   1.235 -0.0929  0.0372  0.2640
19363W        W35172  13.938  10.918  13.907 -0.1282 -0.1575 -0.1145
19364W        W35173   2.893   7.193   1.190 -0.0195  0.0730  0.1269
19365W        W35174  10.602   0.762   4.572  0.0121 -0.2855 -0.1833
19366W        W35175   3.860  11.315  11.716 -0.1770  0.1350  0.0280
19367W        W35176  11.184  17.435   1.805  0.2314  0.0205  0.1581
19368W        W35177   7.563   0.117   4.932 -0.0131 -0.1860  0.1920
19369W        W35178   3.256   9.663  11.325  0.1122 -0.1352  0.0166
19370W        W35179   1.459   3.332  12.205 -0.1365 -0.1217  0.1217
19371W        W35180   6.478  14.609   2.688 -0.0886 -0.1344 -0.0719
19372W        W35181  18.448  16.660   2.029 -0.0174 -0.1442  0.0395
19373W        W35182   0.179   9.456   3.096  0.2631  0.0597 -0.0205
19374W        W35183  16.763   6.729   3.857 -0.3689  0.0687 -0.4327
19375W        W35184  11.870   3.337  11.381 -0.1180 -0.3256 -0.1770
19376W        W35185  17.086   3.982   1.259  0.0097  0.0265 -0.1293
19377W        W35186  13.431   3.445   0.344  0.1346  0.1095  0.0088
19378W        W35187  13.243   6.088   2.065  0.0450 -0.2209 -0.0545
19379W        W35188  16.690  12.329  10.566 -0.1333  0.1091  0.4104
19380W        W35189  18.530   6.899   4.066 -0.1771  0.3585 -0.0116
19381W        W35190   5.690  13.295  13.000  0.2107 -0.1936 -0.0066
19382W        W35191   2.028  17.244   0.967  0.2934  0.1449 -0.1946
19383W        W35192  16.321  15.974   3.740  0.0132 -0.1261  0.3277
19384W        W35193  15.415  11.711   3.684 -0.1209 -0.0876  0.3608
19385W        W35194   5.471   5.576  11.039 -0.0931 -0.0498 -0.0599
19386W        W35195   1.913   9.341  10.041  0.0034  0.2634  0.2045
19387W        W35196   1.639  14.153   0.008 -0.0875  0.2934  0.1072
19388W        W35197   5.939  11.478  10.350 -0.0547 -0.0431  0.2170
19389W        W35198  17.900   6.761   0.214  0.1935  0.0204  0.2487
19390W        W35199   9.345   8.094  14.935 -0.0956 -0.1695 -0.1237
19391W        W35200  12.674   2.633   2.684  0.0741  0.1559  0.1573
19392W        W35201   4.200   2.363  13.705 -0.2397 -0.1629 -0.0827
19393W        W35202  14.742  17.563  11.277  0.3157 -0.0540 -0.0089
19394W        W35203   7.206  13.318   4.993 -0.1553 -0.2440  0.2564
19395W        W35204   9.716  10.758   1.450 -0.0784 -0.1464 -0.0544
19396W        W35205  10.852  17.482  10.779 -0.1356  0.0297 -0.0567
19397W        W35206   1.612  14.437  10.523  0.2398 -0.2087 -0.1943
19398W        W35207  16.004   6.082   2.353 -0.0524 -0.1392 -0.0391
19399W        W35208   4.207  12.222  12.790 -0.2761 -0.1636 -0.1917
19400W        W35209  10.071  12.997   1.214  0.1435 -0.1656  0.2268
19401W        W35210   9.395  13.013  14.581 -0.0851  0.1523  0.0241
19402W        W35211  15.104  15.810  11.564 -0.0112 -0.0588 -0.1619
19403W        W35212  15.875   3.297  14.761  0.3557  0.1500 -0.1043
19404W        W35213  16.985  15.684   4.180 -0.0746 -0.0298 -0.0321
19405W        W35214   8.902   0.320  14.499  0.1770  0.1726  0.0654
19406W        W35215   6.741   9.129  13.457  0.2322 -0.0791  0.1671
19407W        W35216  17.974  13.699   9.731  0.4619 -0.2025 -0.0564
19408W        W35217   5.889  15.726   4.795  0.4254 -0.4412  0.0473
19409W        W35218  16.463   5.765  11.193  0.2760 -0.0740 -0.1664
19410W        W35219   0.532   1.648   1.639  0.0030  0.2491  0.3712
19411W        W35220  10.747   9.232  14.429  0.0205  0.3312 -0.1945
19412W        W35221   3.540   2.446   2.162 -0.0321  0.1288  0.2423
19413W        W35222   4.757   6.454   3.289 -0.3763 -0.3147  0.0860
19414W        W35223  13.072   4.439   2.558 -0.1739 -0.0458 -0.1547
19415W        W35224  13.588   6.207   0.824  0.1328 -0.0374  0.0978
19416W        W35225  15.622  12.859  13.863 -0.0532  0.2463 -0.1760
19417W        W35226  14.833   2.714  15.328  0.1251 -0.1478  0.0048
19418W        W35227  13.659   1.177  11.444  0.1209  0.2046 -0.1190
19419W        W35228   2.265   4.499   0.419 -0.1669 -0.0461  0.2190
19420W        W35229   0.780  10.747   1.889  0.0612  0.1332  0.2330
19421W        W35230  15.929   6.563  12.851 -0.1294  0.1463 -0.0004
19422W        W35231  15.920   2.605  10.452 -0.1693  0.2160 -0.2472
19423W        W35232   9.330   9.076  14.206 -0.0114 -0.0142  0.1476
19424W        W35233  14.405   6.494  13.559 -0.0043  0.3366  0.1842
19425W        W35234  16.999  18.616   2.091 -0.0000  0.0039  0.1861
19426W        W35235   1.842   9.313  14.979  0.0404 -0.3932  0.2034
19427W        W35236   5.553   1.891  11.812 -0.0320  0.2775 -0.1559
19428W        W35237  11.365  12.948  12.302 -0.0974 -0.0077  0.0085
19429W        W35238   1.770  14.635  12.453  0.2539  0.1682  0.2987
19430W        W35239   9.400  14.089  12.329  0.1201  0.0351 -0.1963
19431W        W35240  18.415   0.159  13.411  0.1667 -0.1181 -0.1436
19432W        W35241   3.085  12.347  14.629 -0.1037 -0.1300  0.3261
19433W        W35242   5.091   2.149  14.683 -0.0137 -0.0025  0.2952
19434W        W35243  12.102   0.612   3.324  0.1710  0.0028 -0.0342
19435W        W35244   2.850  14.346  13.183  0.3218 -0.1357  0.0447
19436W        W35245   1.937  17.941   3.002 -0.3162  0.1306  0.0078
19437W        W35246  16.975   3.125  11.398  0.2117 -0.1445  0.1509
19438W        W35247  12.152  18.247   5.304  0.0834  0.2040  0.1089
19439W        W35248  18.017   7.022  12.837 -0.0295 -0.3723  0.1687
19440W        W35249   3.009  10.848  12.603  0.1742  0.0170  0.0548
19441W        W35250  14.778  15.937  12.054 -0.0841 -0.0094 -0.2901
19442W        W35251   2.952  14.282   3.958 -0.2844 -0.0655  0.1503
19443W        W35252  15.326  13.443   4.420 -0.1605  0.1320 -0.4452
19444W        W35253  16.628   1.749   4.198 -0.3114  0.0708 -0.3251
19445W        W35254  14.629  17.440   5.166 -0.2070 -0.3961 -0.2643
19446W        W35255  10.814   7.980  13.525 -0.1097 -0.0729 -0.2964
19447W        W35256  18.772   9.519  11.170  0.1443  0.0621 -0.0961
19448W        W35257  14.549  10.776  11.542 -0.1754 -0.1048 -0.2907
19449W        W35258   7.368   8.716  12.008  0.6083 -0.2504  0.3345
19450W        W35259   4.220  13.688   1.728 -0.0888 -0.0952  0.0407
19451W        W35260   8.037  18.501  13.936 -0.0781 -0.0247 -0.0901
19452W        W35261  12.392  18.780   2.782 -0.0958  0.0756 -0.1173
19453W        W35262   7.311   1.833   4.166 -0.2410 -0.1799  0.1328
19454W        W35263  16.686  16.272  15.449  0.0769 -0.3157 -0.0792
19455W        W35264  18.681   0.654   0.570  0.0883  0.0568  0.3107
19456W        W35265  10.350   5.544  12.074  0.0706  0.2770  0.0159
19457W        W35266   7.833  13.839   1.891  0.0899  0.2067  0.0543
19458W        W35267   6.747  13.127   2.837 -0.1475  0.0509 -0.0759
19459W        W35268   3.984   5.731   0.911 -0.3340 -0.3970 -0.3828
19460W        W35269  10.357  13.345   4.082 -0.2842 -0.1776 -0.2041
19461W        W35270   9.999   7.214  13.940  0.0692 -0.0950 -0.2640
19462W        W35271   6.501  13.529  10.389  0.0408  0.3392  0.2012
19463W        W35272  18.130  13.710  12.963 -0.1385 -0.1079 -0.2588
19464W        W35273   9.810   8.335   2.435 -0.0994 -0.1799 -0.3633
19465W        W35274   1.051  12.876  15.404 -0.1191 -0.2056 -0.0070
19466W        W35275  18.559  13.623   3.634  0.1521 -0.0843 -0.2246
19467W        W35276  13.116   8.265  13.487  0.1343 -0.1641  0.1260
19468W        W35277  15.377   7.373   4.235  0.1169  0.4321  0.0289
19469W        W35278  18.702   2.525  11.798 -0.0523 -0.0600  0.0622
19470W        W35279   5.912   5.913  13.247  0.2194 -0.1826 -0.2018
19471W        W35280   6.411  16.770  10.547  0.0107 -0.0488 -0.1043
19472W        W35281   1.971   4.476   2.767  0.2447  0.4575 -0.1654
19473W        W35282   6.812  14.571   5.315 -0.1259 -0.0705 -0.0390
19474W        W35283  12.327   2.225   0.583  0.0723  0.2756  0.1102
19475W        W35284  11.804   4.824  14.118 -0.0497  0.3845 -0.3368
19476W        W35285   3.850   3.850  14.739 -0.0793  0.1117  0.1554
19477W        W35286   7.528   8.995  12.356 -0.1257  0.1317  0.1533
19478W        W35287   5.545  17.360   0.865 -0.2771  0.4020  0.5246
19479W        W35288  14.109   6.344   4.016 -0.1729  0.2441 -0.1988
19480W        W35289  14.409   2.556  11.025  0.1466  0.2906 -0.0233
19481W        W35290   3.190   4.561   2.568  0.1419 -0.0372  0.1576
19482W        W35291   9.330   9.964   4.390  0.0562  0.0901  0.1463
19483W        W35292   6.530   2.739  13.659  0.0995  0.1598  0.3853
19484W        W35293  16.295   5.651   1.554  0.0259 -0.1209 -0.2164
19485W        W35294  12.457  17.818   1.300  0.0737 -0.0790 -0.0243
19486W        W35295   5.002   1.073  15.364 -0.4637  0.1810 -0.2727
19487W        W35296  10.314   1.780   1.167  0.0751  0.1477 -0.2985
19488W        W35297  10.048  10.672   1.814 -0.2707  0.0212  0.1588
19489W        W35298   8.635   3.845   3.089  0.0369 -0.2207 -0.3220
19490W        W35299   1.919   2.709   9.721  0.1143 -0.2631 -0.1457
19491W        W35300   2.020   7.724   4.090 -0.3848 -0.1328  0.3340
19492W        W35301   0.791   7.144  14.397  0.1524 -0.0617  0.3510
19493W        W35302   0.699  11.401  10.916 -0.2318 -0.2146 -0.0989
19494W        W35303   5.107   8.494  14.017 -0.0634 -0.2837 -0.0217
19495W        W35304   7.860  17.782   1.091 -0.0062  0.0881 -0.0958
19496W        W35305   0.223   3.147  10.887  0.1013 -0.2555 -0.2430
19497W        W35306   8.390   9.654  13.594  0.3037 -0.2995  0.3637
19498W        W35307   3.789   8.233  14.101 -0.0140 -0.1966 -0.0226
19499W        W35308   1.927   5.530   3.704 -0.0626 -0.0763 -0.0538
19500W        W35309  12.552  14.015   1.756 -0.2920 -0.0250  0.0377
19501W        W35310   0.314   2.539  11.092  0.1883 -0.0488  0.0787
19502W        W35311  14.727   2.888  13.301 -0.0338  0.0376 -0.0740
19503W        W35312   7.458   7.057  14.484 -0.0291  0.1487  0.2489
19504W        W35313  11.207  11.244  10.181  0.1304 -0.1941  0.2562
19505W        W35314   9.779  18.304  14.214  0.2301 -0.0548 -0.1180
19506W        W35315   8.144   0.170   4.927 -0.0471 -0.5298  0.1833
19507W        W35316  11.324   8.489   2.140 -0.0834  0.0485 -0.1337
19508W        W35317   9.265   2.517  10.887  0.1776 -0.1303 -0.3315
19509W        W35318  10.506   2.170  14.813  0.0446  0.1998  0.2371
19510W        W35319  16.206   0.849  12.723  0.1360  0.2003  0.1441
19511W        W35320  12.843   8.417   0.157 -0.0778 -0.0602 -0.2850
19512W        W35321  14.109  14.939   4.328 -0.2485 -0.1810 -0.0126
19513W        W35322  16.945  13.927   5.792 -0.0334  0.0546 -0.0604
19514W        W35323  18.053   0.251   3.602  0.0201  0.1920  0.2060
19515W        W35324  18.694  11.989   4.979  0.0082  0.0277 -0.0422
19516W        W35325  15.096  11.965  14.697 -0.0567  0.1084  0.3512
19517W        W35326   3.316  12.076   1.004  0.0535  0.1707  0.4809
19518W        W35327   1.666   9.929  12.990 -0.0119  0.4317  0.2833
19519W        W35328   8.463   3.487   2.739  0.1502 -0.0869  0.1281
19520W        W35329  14.802   7.347   2.983 -0.0838 -0.1572 -0.2559
19521W        W35330   9.838  10.882   4.490  0.1045 -0.2042 -0.1408
19522W        W35331   9.653  11.414   2.051 -0.0498 -0.0770  0.2494
19523W        W35332   0.515  12.089   1.462 -0.2555 -0.2039 -0.0773
19524W        W35333   7.221  17.649  12.504 -0.1222  0.0124  0.4160
19525W        W35334  12.208   8.407   4.050 -0.0770 -0.2799 -0.2689
19526W        W35335  12.989   7.009  12.814 -0.2265  0.0491  0.1186
19527W        W35336   2.629  18.237  12.281  0.0717  0.1466 -0.1883
19528W        W35337   6.792  16.976   3.297  0.2103 -0.0502 -0.0128
19529W        W35338  17.132  12.874   2.870 -0.0352 -0.1490  0.0867
19530W        W35339   1.892  17.651   9.821  0.0292 -0.4516  0.0423
19531W        W35340   9.569   2.660  14.961  0.1268 -0.1635  0.0609
19532W        W35341   8.042   9.031   4.516 -0.0990 -0.1866 -0.3463
19533W        W35342  11.629  13.210  11.959 -0.3158 -0.3736 -0.1131
19534W        W35343  18.470   6.594   0.889 -0.2120 -0.1861 -0.1714
19535W        W35344   9.536  15.014   0.935 -0.1322 -0.0537 -0.0666
19536W        W35345  18.564  15.206  12.134 -0.0397 -0.2913 -0.1737
19537W        W35346   0.788  12.224   2.015 -0.1218 -0.1368 -0.2022
19538W        W35347   3.864   0.246   0.207  0.0576  0.0582 -0.3359
19539W        W35348  17.526  16.503   4.540  0.0207 -0.3542 -0.0100
19540W        W35349   2.219  14.167   1.154  0.1373 -0.0870 -0.1809
19541W        W35350  14.178  14.921  15.331  0.0902  0.0350  0.2094
19542W        W35351  17.739  16.828   1.708 -0.0846 -0.0203 -0.1664
19543W        W35352  11.027  13.528  10.229  0.1127  0.0010 -0.1036
19544W        W35353   0.903   1.644   2.643  0.1690 -0.1313  0.1039
19545W        W35354   7.629   4.541   4.143 -0.0660  0.0704 -0.2114
19546W        W35355   8.033   9.688  13.985  0.0288 -0.0156  0.1876
19547W        W35356  16.364  13.001   0.549  0.0503  0.0626 -0.0563
19548W        W35357   5.255  17.465  14.126  0.0425 -0.1555  0.1339
19549W        W35358  12.201   2.193  15.482 -0.1512 -0.2623 -0.0667
19550W        W35359   0.714  10.210  13.478  0.1541  0.1386  0.2400
19551W        W35360  17.646  15.785  14.651  0.4100  0.2313 -0.0912
19552W        W35361  10.231   5.171   2.710 -0.2043 -0.4251  0.0343
19553W        W35362   3.139  18.094  10.629  0.0470 -0.0120 -0.0253
19554W        W35363  14.143   9.461   2.242  0.1733 -0.0166 -0.0437
19555W        W35364  11.313   8.856   2.910  0.1078 -0.2501  0.1386
19556W        W35365   9.867  18.731  11.963 -0.3768  0.2085 -0.0646
19557W        W35366  13.516  13.221   1.434  0.4042  0.0155  0.0343
19558W        W35367   5.446  17.191   3.652 -0.2649  0.3721  0.1797
19559W        W35368  16.284   7.726   5.489  0.3176 -0.0337  0.0924
19560W        W35369   1.259  16.507  13.447 -0.1706 -0.0124  0.1169
19561W        W35370  16.752  18.294   0.205  0.1804 -0.2253  0.0264
19562W        W35371   4.456   4.043  10.283  0.2976 -0.0202  0.1038
19563W        W35372   5.659  13.098  10.627 -0.1635  0.1421 -0.2231
19564W        W35373  13.108   6.166   3.795  0.1498  0.1739  0.0070
19565W        W35374  17.034  18.510   1.175 -0.0930  0.0596  0.0562
19566W        W35375   9.772   7.715   1.612 -0.0873  0.2405  0.0426
19567W        W35376   8.405   1.471  10.672  0.0518 -0.0954 -0.1485
19568W        W35377  13.178   0.118  12.663 -0.2076 -0.1529  0.2733
19569W        W35378  13.438   4.118   0.251  0.0735 -0.3922  0.0087
19570W        W35379  16.067  18.312   4.095  0.4463 -0.0306 -0.1747
19571W        W35380   0.584   8.564   0.539 -0.2531  0.3652 -0.0423
19572W        W35381   9.610   5.964  10.964 -0.0288  0.0649 -0.1946
19573W        W35382  16.674  15.838   4.570 -0.0847 -0.0646  0.0455
19574W        W35383   2.556  11.766   2.180  0.0662  0.0251 -0.1356
19575W        W35384   5.764  12.951   0.484  0.4120  0.0193  0.2835
19576W        W35385  10.196  10.072  14.853 -0.3375 -0.0917 -0.0305
19577W        W35386   4.537  15.524   2.475  0.0325  0.0655 -0.0308
19578W        W35387   0.932   6.093   3.608 -0.0106  0.0787  0.0367
19579W        W35388   9.774  13.546  12.591  0.2907  0.0035 -0.0243
19580W        W35389   8.966  11.212   1.490 -0.2574  0.1137  0.3473
19581W        W35390  17.682  10.686   1.596 -0.1100 -0.1899  0.0102
19582W        W35391   3.528   8.953   2.629  0.1170 -0.1206  0.0283
19583W        W35392   1.008   4.175   2.316  0.0304 -0.1542  0.1657
19584W        W35393   5.005   5.130   0.079  0.0354  0.1490 -0.5110
19585W        W35394  14.223   3.419  12.550  0.0289 -0.0234  0.1627
19586W        W35395  18.196   7.621   1.899 -0.0523  0.0509  0.4283
19587W        W35396  13.544   1.239  13.307 -0.3282  0.0634 -0.2543
19588W        W35397   5.252  14.800  14.780 -0.1100  0.1125 -0.3295
19589W        W35398   6.870   0.793  14.601 -0.2540 -0.1187 -0.0017
19590W        W35399  14.748   2.166   0.362  0.0495 -0.0298 -0.1202
19591W        W35400   6.988  17.711   0.807  0.2479 -0.1092  0.1093
19592W        W35401   7.100  17.614   2.168  0.1289 -0.0614  0.4020
19593W        W35402  14.035   6.579   4.471  0.1394 -0.0055  0.1133
19594W        W35403  12.683  16.640  12.860  0.1439 -0.0003 -0.1800
19595W        W35404  18.548  15.935  12.723 -0.0111 -0.1742  0.0501
19596W        W35405   6.425  11.506  13.235 -0.0278 -0.1350  0.2554
19597W        W35406   4.756  10.708  13.927 -0.1336 -0.2481 -0.0385
19598W        W35407  13.127  16.555   4.278  0.0182 -0.3311  0.1557
19599W        W35408  17.444   1.981  15.509 -0.3108  0.0224  0.0060
19600W        W35409   2.917   1.715   0.035  0.3834  0.1654  0.2861
19601W        W35410  10.656  17.457  13.824  0.1383 -0.1416 -0.1273
19602W        W35411   8.222   3.560  13.437 -0.2063  0.0149 -0.0625
19603W        W35412   1.670   7.639  12.964 -0.3997 -0.2249 -0.0811
19604W        W35413   7.672  10.838  10.911 -0.3035  0.4307  0.0224
19605W        W35414   3.406   3.526   3.019 -0.2699 -0.1823 -0.2264
19606W        W35415  14.166   0.549  11.662  0.0730 -0.0991 -0.2538
19607W        W35416   6.679  16.299   2.271  0.0150  0.0485 -0.3587
19608W        W35417  17.428   0.035   2.444 -0.2148  0.2490 -0.0603
19609W        W35418   6.057  18.512   2.616 -0.0075  0.0108 -0.1630
19610W        W35419  10.233  17.247   4.058  0.2027  0.2075  0.2027
19611W        W35420   3.837   3.936  15.272  0.0978 -0.0955 -0.3163
19612W        W35421  18.215   7.061  15.194  0.1273 -0.2172 -0.0638
19613W        W35422  16.190   0.434   0.505  0.0340  0.1462 -0.1486
19614W        W35423  16.389   9.759   0.434 -0.1234  0.0172 -0.1051
19615W        W35424   9.367  17.014  10.009  0.2642 -0.0802  0.0455
19616W        W35425  16.012  11.149  14.734 -0.1647  0.0146 -0.1242
19617W        W35426  18.599   4.997  12.662  0.1706  0.1621  0.4160
19618W        W35427  10.403   6.393   3.716 -0.0095 -0.0308 -0.4702
19619W        W35428   2.305  14.071   2.807  0.2920 -0.0885  0.0525
19620W        W35429  17.249   0.650   0.195  0.1386  0.0878  0.2825
19621W        W35430  12.136  17.559   5.562 -0.2767  0.1835  0.1826
19622W        W35431   0.976   4.043   3.148  0.1571  0.0424  0.4835
19623W        W35432   6.343  14.424  10.083  0.2039  0.3217  0.2390
19624W        W35433   3.346  13.845  11.691  0.0718 -0.1460  0.1527
19625W        W35434   2.035  14.850   1.311 -0.0780 -0.3386  0.0051
19626W        W35435  15.734  17.896   0.920 -0.1014 -0.0002  0.1940
19627W        W35436  17.035  18.187  14.375  0.0502  0.1026 -0.0949
19628W        W35437   9.150  15.679  14.631  0.0465  0.0789  0.1767
19629W        W35438  17.849  11.207   4.272 -0.1642  0.1345  0.1341
19630W        W35439  16.420   2.014  14.804 -0.3761 -0.1056  0.2285
19631W        W35440  18.148  15.097  15.148  0.2597 -0.2432  0.3338
19632W        W35441   9.081  10.221  13.334  0.4344 -0.1467 -0.0429
19633W        W35442  17.467   7.395  10.659 -0.1345  0.0124  0.0857
19634W        W35443  14.491   2.743  12.804 -0.1111 -0.0049  0.1873
19635W        W35444   7.378  17.171  12.954  0.2222 -0.2266 -0.0690
19636W        W35445   3.471   7.005   2.230 -0.3971  0.3042  0.1768
19637W        W35446   8.693   9.138  11.291 -0.2049  0.0086  0.0267
19638W        W35447   5.493   4.720  14.597 -0.1176  0.1547  0.0518
19639W        W35448   0.308   3.864   0.471  0.2123  0.0756  0.5164
19640W        W35449   6.020  18.553   0.891 -0.0312  0.2735  0.2707
19641W        W35450  17.787   5.084  10.813 -0.0229  0.0765  0.1603
19642W        W35451   6.139  17.011   2.658 -0.0155  0.1759  0.0390
19643W        W35452  15.267  15.485   1.937 -0.2258 -0.1506 -0.0725
19644W        W35453   2.290   4.339   1.099 -0.2797  0.3577  0.0114
19645W        W35454  16.863  15.839  12.140 -0.1557 -0.0275 -0.0089
19646W        W35455   4.393  13.566  12.169 -0.0896  0.1473  0.1036
19647W        W35456   7.591  12.459  11.131 -0.1075  0.2030 -0.1371
19648W        W35457  12.525  17.411  10.257 -0.2635 -0.0876  0.3733
19649W        W35458   3.863   5.799  11.736  0.0524 -0.3615 -0.1705
19650W        W35459  16.223   5.078   1.228  0.0973  0.0646 -0.1882
19651W        W35460   6.366  11.644   3.636 -0.0661 -0.0454  0.1196
19652W        W35461  15.892   8.028  12.460 -0.0185  0.1417 -0.0442
19653W        W35462   3.403  10.305  14.065  0.0341 -0.0209  0.0287
19654W        W35463   9.420   8.989   1.817 -0.1679 -0.0392 -0.1633
19655W        W35464  16.126   3.265   3.720  0.0051  0.2654  0.0430
19656W        W35465   9.984   0.423   4.054 -0.1900  0.0893 -0.2360
19657W        W35466  16.398  12.514  11.336 -0.2121  0.1836  0.2474
19658W        W35467   7.894  16.505  14.993  0.1992  0.4517 -0.0360
19659W        W35468  12.664  18.722   0.034  0.0417  0.1238 -0.1956
19660W        W35469  15.725  15.229   2.933 -0.0685 -0.1135  0.1120
19661W        W35470  12.011   1.876   5.553  0.1155 -0.1392 -0.2026
19662W        W35471   2.621   6.959   3.485 -0.0196 -0.0251  0.1893
19663W        W35472   6.076   4.340   0.253 -0.4192  0.0756  0.0315
19664W        W35473  12.999  15.026  13.382 -0.0591  0.1082 -0.0516
19665W        W35474   7.247  10.677   0.237  0.2030  0.1702 -0.0853
19666W        W35475   5.941  12.667  10.516 -0.0768 -0.0651 -0.1456
19667W        W35476   5.352   4.916   4.911 -0.0719  0.0151  0.0241
19668W        W35477  15.949   7.363   2.791  0.1160 -0.1849 -0.2147
19669W        W35478  17.033  13.010   4.955  0.0334  0.0856  0.1560
19670W        W35479   8.742   1.080  14.647  0.0440  0.0451  0.2521
19671W        W35480  14.465  16.245  11.862  0.2429 -0.3852  0.2052
19672W        W35481   8.943   1.878  11.806 -0.0418  0.0379 -0.3129
19673W        W35482  18.499   2.071  11.878  0.0489 -0.1181 -0.0420
19674W        W35483   5.863   5.469  15.210  0.0153 -0.2280 -0.1213
19675W        W35484  16.351   6.633   1.771 -0.2251 -0.2422 -0.1244
19676W        W35485   2.239   9.266   3.875 -0.1146 -0.2445 -0.0040
19677W        W35486   4.199   2.709  14.549 -0.3391 -0.1962  0.0732
19678W        W35487  11.576  17.102   1.664  0.1935  0.0886  0.0342
19679W        W35488   1.188   9.574  13.354 -0.2899  0.2006  0.0858
19680W        W35489   6.996   5.990   4.776  0.0908 -0.1442  0.0530
19681W        W35490  12.712  12.127   4.700 -0.1671 -0.1296  0.1808
19682W        W35491  14.665  11.765  12.957 -0.1561 -0.0215  0.0062
19683W        W35492  18.214  15.384   3.388 -0.0706 -0.2138 -0.2955
19684W        W35493   3.834   5.522   4.835  0.1859 -0.0386 -0.4396
19685W        W35494   2.511  16.718   2.069  0.2233 -0.1632 -0.0796
19686W        W35495   9.418  17.691   5.194  0.1038 -0.4818  0.2103
19687W        W35496  17.872   7.757   0.018 -0.0685  0.2271 -0.2004
19688W        W35497  18.420  11.165   1.170 -0.3216  0.0486 -0.0212
19689W        W35498  10.216  11.544   2.991  0.0193  0.2258 -0.0581
19690W        W35499  10.268  12.775   0.373 -0.3068  0.1494  0.2038
19691W        W35500   4.934   8.951   2.597  0.1882 -0.0844 -0.0799
19692W        W35501   4.434  10.855  15.085  0.5169  0.2206 -0.0243
19693W        W35502  12.205   6.908   1.852 -0.0287 -0.2416  0.1412
19694W        W35503  17.823   2.028  15.145 -0.0187  0.0345 -0.4744
19695W        W35504   0.864  16.180   0.027  0.0805 -0.0297  0.1060
19696W        W35505   4.942   2.580   1.241 -0.0265  0.0967 -0.2099
19697W        W35506  13.527  16.168  12.416 -0.1560 -0.4410 -0.1048
19698W        W35507  16.846  13.140  13.862  0.0317 -0.3861 -0.0682
19699W        W35508  12.964  14.782   0.639 -0.0745  0.1513 -0.0540
19700W        W35509  18.727  11.784   4.488 -0.0466  0.1011 -0.0309
19701W        W35510   5.145   4.255   3.168 -0.1394  0.0157  0.2279
19702W        W35511   0.057  17.562   4.530 -0.1454  0.3968  0.0157
19703W        W35512   0.265  16.965  11.997  0.2021  0.2541  0.0331
19704W        W35513   3.112  15.108  12.357 -0.0927 -0.0129  0.0378
19705W        W35514   0.425  10.049   3.235 -0.2932 -0.1302  0.0235
19706W        W35515   9.544   5.924  14.337 -0.5141 -0.0423  0.0977
19707W        W35516   2.019  12.929   1.235  0.0911  0.0380  0.0800
19708W        W35517   0.532  17.609   5.087  0.0938  0.1574  0.2486
19709W        W35518   4.254  10.459   2.418  0.0577 -0.0376 -0.2620
19710W        W35519   4.128  17.120   4.425 -0.0288 -0.2705 -0.1511
19711W        W35520  18.211  12.621  10.999 -0.1774  0.2085  0.2333
19712W        W35521   1.374  15.496   0.906  0.0546  0.3209  0.1705
19713W        W35522   8.715  11.843  13.466  0.1044 -0.4482 -0.0358
19714W        W35523   2.568   7.355   0.032  0.1259  0.0030 -0.0665
19715W        W35524   8.728   9.219   0.138 -0.0277  0.0901 -0.3692
19716W        W35525   8.440   4.627   5.840 -0.2793  0.0535 -0.2093
19717W        W35526   8.646   7.556   3.791  0.1360  0.0590  0.0519
19718W        W35527   8.295   1.032  10.977 -0.2630  0.1766  0.0178
19719W        W35528  16.718  13.111   2.653 -0.3818 -0.1082 -0.0253
19720W        W35529  13.815   7.359  11.571 -0.2332  0.0505 -0.1709
19721W        W35530   6.482  10.975   3.065 -0.0498 -0.2291  0.1060
19722W        W35531  12.158  17.427   1.027 -0.0618  0.2584  0.4383
19723W        W35532   0.205   9.893   0.372  0.0264 -0.1510  0.0107
19724W        W35533   0.121   4.201   1.740  0.0145  0.1457  0.0753
19725W        W35534  17.640   9.032  15.277 -0.1207 -0.0108 -0.3069
19726W        W35535   7.028   4.276   5.003  0.2343  0.2219  0.0802
19727W        W35536   1.735   7.683   0.740  0.0302  0.2912 -0.3674
19728W        W35537  15.503  16.453  15.438  0.0235  0.0261  0.3237
19729W        W35538   6.486  13.346   3.174 -0.1354 -0.1202  0.2786
19730W        W35539   2.216  12.600  13.225 -0.0348 -0.0371  0.1418
19731W        W35540  16.257  11.629  15.561  0.2202  0.0519  0.1478
19732W        W35541   0.140  17.354   3.202  0.1369 -0.2851 -0.0290
19733W        W35542   4.741   6.002   0.731  0.1765 -0.0429 -0.1573
19734W        W35543   5.805   8.110  11.214 -0.1930 -0.1081 -0.0268
19735W        W35544  11.500   9.024   1.953  0.0066 -0.1267 -0.0156
19736W        W35545  15.752   0.286  11.416 -0.0912 -0.0759 -0.1503
19737W        W35546  15.074   6.023  13.061  0.0785 -0.0484  0.2401
19738W        W35547  13.841   4.516  12.420  0.2163 -0.2531 -0.1714
19739W        W35548   6.136   3.649  10.937  0.0235 -0.0333  0.3170
19740W        W35549  16.939  17.993   1.553  0.1631  0.3149 -0.1976
19741W        W35550   3.634   9.098   0.276  0.0842 -0.1069  0.0558
19742W        W35551  17.916   3.852   4.233  0.2314 -0.0823 -0.1148
19743W        W35552  13.685   4.901  13.990 -0.1235 -0.0891 -0.0382
19744W        W35553  10.545  10.106   1.163 -0.0673  0.0318 -0.1893
19745W        W35554  17.477  11.224  11.981 -0.1284  0.2333 -0.0144
19746W        W35555  10.114   6.666   4.984 -0.1077  0.2545  0.0557
19747W        W35556   4.018  11.810  14.366  0.0112 -0.0040 -0.2625
19748W        W35557  18.348  11.306   4.029  0.0722 -0.0272  0.0900
19749W        W35558   0.537   2.849   1.230  0.1460  0.1206  0.4713
19750W        W35559   5.828  10.281  14.939  0.1305  0.0699 -0.0215
19751W        W35560  16.108   4.724   3.533  0.2298 -0.1481 -0.3708
19752W        W35561  18.035   0.470  13.875 -0.1655 -0.2165  0.0202
19753W        W35562  17.911   8.174  12.073 -0.0563  0.1819  0.3243
19754W        W35563   3.681   0.565   3.389  0.3037 -0.3101  0.3221
19755W        W35564  11.159  12.385  14.838  0.2788  0.0097  0.0067
19756W        W35565   3.419  17.769   2.137  0.1577 -0.3287  0.0571
19757W        W35566   9.443   9.549  14.536  0.2043  0.1220  0.0422
19758W        W35567  11.716   5.533   4.960 -0.1439 -0.1786 -0.1620
19759W        W35568   0.011   5.769  11.433  0.0014 -0.1415 -0.0640
19760W        W35569  10.704  13.193   0.481 -0.3313 -0.0070  0.1572
19761W        W35570   2.325   6.051   1.325  0.4050  0.0985 -0.0037
19762W        W35571   7.539   1.338   4.324  0.1623 -0.0549  0.0414
19763W        W35572   7.486  17.350   4.421 -0.0522 -0.2952 -0.2247
19764W        W35573  11.623   1.773   5.203  0.0951 -0.2138 -0.1814
19765W        W35574  10.609  14.673   5.143 -0.2980  0.1841 -0.3518
19766W        W35575  18.726   1.059  14.940 -0.2449  0.0188 -0.0117
19767W        W35576   1.235   3.987  10.473 -0.0959 -0.1215  0.0782
19768W        W35577   9.873  11.985  10.593 -0.1237 -0.3866  0.2741
19769W        W35578  12.958   9.586  14.157 -0.1029  0.1230 -0.1312
19770W        W35579   6.055  14.092   2.070 -0.0442  0.0508 -0.0734
19771W        W35580   4.334   5.279  12.576 -0.0637 -0.0848 -0.0289
19772W        W35581   5.085  13.084   1.875  0.0827 -0.1766 -0.2355
19773W        W35582  18.030  14.538  15.298 -0.0267 -0.5161  0.1366
19774W        W35583   0.438   0.077   0.274  0.0370  0.3932  0.2106
19775W        W35584   7.068   1.811   5.481 -0.0956  0.2995 -0.0602
19776W        W35585   3.591   6.676  14.376  0.4289 -0.1807 -0.2567
19777W        W35586   2.011   6.518   0.343 -0.2467 -0.2080  0.3886
19778W        W35587  11.790  11.714   3.737 -0.0006 -0.2124 -0.0401
19779W        W35588   1.561   9.992  10.665 -0.1407 -0.0863 -0.2105
19780W        W35589   2.107  11.877  10.974 -0.2778 -0.0219 -0.1505
19781W        W35590   5.279   6.107  12.423 -0.1025 -0.0393  0.1009
19782W        W35591   4.265  10.695  12.302 -0.2208  0.0589 -0.0174
19783W        W35592   6.673  17.920   2.167 -0.2102  0.2452 -0.1745
19784W        W35593  14.469  15.368   4.349  0.1404  0.0064  0.0823
19785W        W35594  18.256   0.620  14.349  0.1124 -0.0900 -0.1482
19786W        W35595   5.019   9.339   0.229 -0.0675  0.1115 -0.2867
19787W        W35596   5.641  18.224  11.662  0.2328 -0.1997  0.0552
19788W        W35597   3.768  10.589  10.605 -0.1088 -0.1502 -0.1183
19789W        W35598   3.423  18.198   4.357 -0.0390  0.0843  0.1090
19790W        W35599  10.467  16.969  15.145  0.4908 -0.2024  0.1103
19791W        W35600  12.844   5.317   5.625  0.1249 -0.1134 -0.2922
19792W        W35601  14.970   2.554  13.007 -0.1608  0.3503  0.0758
19793W        W35602   9.261   9.130  10.666 -0.2933 -0.2283  0.2678
19794W        W35603  14.913  16.126  14.792  0.3612  0.2180 -0.0438
19795W        W35604   2.113  13.114   2.200 -0.1708 -0.2381 -0.0127
19796W        W35605   4.916   5.525  14.407 -0.2869  0.1435 -0.0535
19797W        W35606   5.975  10.477   9.956  0.1653  0.3032  0.0334
19798W        W35607   7.549  14.778   2.911  0.0106  0.1851 -0.1261
19799W        W35608  15.554   1.240   0.630  0.0913 -0.1087 -0.0044
19800W        W35609   3.924  18.346   4.376 -0.2567  0.2073 -0.2493
19801W        W35610  13.194  14.945   5.621 -0.1618 -0.1534  0.0421
19802W        W35611  14.689   3.389  11.120 -0.0250  0.1212 -0.1451
19803W        W35612  13.310   5.742   3.894  0.3842  0.0416  0.2039
19804W        W35613   8.849   4.230  13.341  0.0344 -0.2803 -0.1668
19805W        W35614  16.670   4.761  12.183  0.0605  0.0620 -0.1470
19806W        W35615  15.058  14.038  14.197  0.0463 -0.2659  0.0040
19807W        W35616  12.902  13.129  13.042 -0.0551  0.0186 -0.1071
19808W        W35617  15.177  15.582   4.606  0.1236  0.1191 -0.1122
19809W        W35618  10.292  16.185   5.707 -0.2610  0.2438 -0.0110
19810W        W35619  14.325  11.589   0.915  0.1241 -0.0580  0.0337
19811W        W35620  10.568  15.595  14.929 -0.0086  0.0768  0.3265
19812W        W35621   0.610   6.382  10.857  0.3525 -0.2441 -0.1213
19813W        W35622  16.838   5.817   1.422  0.1329  0.2013 -0.1788
19814W        W35623   0.283  13.931   4.370  0.2655  0.2267 -0.1343
19815W        W35624   7.453  11.246   1.817 -0.2540 -0.0536  0.0036
19816W        W35625  12.600   0.196   0.411 -0.1279  0.1783 -0.1227
19817W        W35626  15.249   9.227   4.077  0.4862 -0.2145  0.0264
19818W        W35627   6.681   8.387  10.864  0.0495  0.0629  0.1201
19819W        W35628  18.719   1.407   3.838 -0.0073  0.3305  0.1273
19820W        W35629   1.922   5.148   4.895 -0.0975 -0.0455 -0.0196
19821W        W35630   6.334  16.020  10.180  0.3002  0.1493  0.1925
19822W        W35631  17.644   5.979   4.166 -0.4046  0.0829  0.0858
19823W        W35632  10.768   9.520   1.491 -0.0266  0.3995  0.1871
19824W        W35633   0.125  11.539   1.146 -0.1581  0.2100  0.0805
19825W        W35634  13.705   0.876   5.385  0.0003 -0.0443 -0.2950
19826W        W35635   6.429   1.004  14.305 -0.0278  0.0351 -0.0317
19827W        W35636  15.946   6.952  10.744 -0.0970  0.1425  0.2004
19828W        W35637   8.506  10.669   5.793  0.1710  0.0324  0.1013
19829W        W35638  13.053  18.410   1.396  0.1258 -0.1051  0.1265
19830W        W35639   7.212   7.577  13.101 -0.0837 -0.1994  0.0222
19831W        W35640   2.874  13.344  12.791  0.1325 -0.0560  0.0455
19832W        W35641  13.336  11.782  10.509 -0.0706  0.0460  0.0712
19833W        W35642   6.766  10.280   4.935 -0.1725 -0.2038  0.1064
19834W        W35643  18.172  15.464   0.423  0.2308  0.2182  0.1693
19835W        W35644   2.755  11.602   4.166 -0.1524 -0.1512 -0.0339
19836W        W35645  15.518  10.585  12.825 -0.0547 -0.0226  0.0672
19837W        W35646   2.583  12.492   3.183  0.0689  0.0203  0.0724
19838W        W35647   7.570  17.298   2.275  0.1511 -0.0029 -0.1367
19839W        W35648   5.457  12.762  15.088 -0.0739  0.0192  0.0602
19840W        W35649   0.236   2.476   1.504 -0.1039  0.0536 -0.1262
19841W        W35650  16.017  14.600   5.320  0.0041  0.0031 -0.0912
19842W        W35651  10.293  12.822   1.797  0.0120 -0.1881 -0.1927
19843W        W35652  14.919   5.086   5.089  0.0958  0.5834 -0.1447
19844W        W35653   2.905   8.181   4.479 -0.1684  0.2188  0.0362
19845W        W35654   8.638   6.958  12.126  0.4088  0.1877 -0.5361
19846W        W35655  17.529   9.288   1.165  0.1157  0.1517  0.1325
19847W        W35656  12.105   0.496  14.042 -0.1068  0.5577  0.0996
19848W        W35657  11.998  12.914   2.392 -0.3215  0.0869  0.0863
19849W        W35658   1.207   9.344  14.371 -0.1470 -0.2195  0.0515
19850W        W35659  10.529  13.559  11.261 -0.2637 -0.2289 -0.1717
19851W        W35660  16.709  15.726   3.223 -0.1102  0.0626 -0.0832
19852W        W35661   8.898   4.308   3.615 -0.4107  0.4023  0.1226
19853W        W35662   9.605   6.198   0.182  0.0672 -0.0275 -0.1481
19854W        W35663   5.495  16.968  15.127  0.2808 -0.1561 -0.2546
19855W        W35664   9.180  14.593  13.328  0.1975  0.0929 -0.2821
19856W        W35665  15.398   2.820  11.195 -0.2970 -0.1859 -0.0787
19857W        W35666   3.214  15.860  13.950 -0.2176  0.0193 -0.1103
19858W        W35667  12.100   1.403   5.493 -0.2442 -0.0487  0.0562
19859W        W35668   1.315   2.344   4.039 -0.0884 -0.0701 -0.1962
19860W        W35669   7.677   2.266   2.653  0.2638 -0.0752 -0.0936
19861W        W35670   9.194  12.774   5.461 -0.1839 -0.2025  0.2188
19862W        W35671  10.157   3.501  15.005 -0.3821 -0.1857 -0.0832
19863W        W35672   8.255   3.362   1.992  0.4407  0.2621 -0.0086
19864W        W35673  17.950  13.003   3.529  0.0982  0.2179  0.1840
19865W        W35674   1.794   7.451   4.955 -0.1151 -0.1015  0.3134
19866W        W35675  12.488   2.448  13.783  0.0042  0.3646  0.1949
19867W        W35676  16.631   3.178  13.115  0.0013 -0.0734 -0.1597
19868W        W35677   3.550  15.677   0.514 -0.1714 -0.1640  0.0329
19869W        W35678  11.032  12.459  12.191  0.2840  0.0839  0.3821
19870W        W35679   7.980   1.824  12.855  0.0288 -0.0378  0.0687
19871W        W35680  12.257   6.180   0.988  0.1877  0.0858 -0.2272
19872W        W35681   3.074  15.035   1.823  0.3387  0.0099  0.0683
19873W        W35682  16.181   4.828   4.699  0.1834  0.1193 -0.2917
19874W        W35683  17.488  13.426  13.591 -0.1984 -0.1921  0.1668
19875W        W35684   0.945   3.945   0.534 -0.3835 -0.3203  0.1579
19876W        W35685   8.019  12.105   4.655 -0.2564  0.1140 -0.0027
19877W        W35686   9.339   6.249  11.967  0.2176  0.1231 -0.1109
19878W        W35687  16.852   4.691   5.374 -0.0001  0.0037 -0.1820
19879W        W35688   5.708  12.433   0.413 -0.0200  0.1891  0.0161
19880W        W35689   4.326   9.598  11.587 -0.2952  0.0013 -0.2757
19881W        W35690  10.873  16.177   5.463  0.1277  0.3867  0.0146
19882W        W35691  13.593   9.597   2.709 -0.2344  0.3035  0.2134
19883W        W35692   9.508   0.964   0.094  0.5280 -0.1313  0.2533
19884W        W35693   5.519   1.764  13.394 -0.3663 -0.0630 -0.0031
19885W        W35694   1.560   9.658   3.761 -0.2285 -0.0791  0.0722
19886W        W35695  18.689   5.723   4.860 -0.0516  0.0915  0.0181
19887W        W35696  17.281   2.803   2.485  0.2703 -0.0226 -0.2253
19888W        W35697  12.365   0.426  14.636 -0.0082  0.0430 -0.1782
19889W        W35698  15.273   7.461   3.377 -0.1068  0.2076 -0.0727
19890W        W35699   0.607  12.933   3.889 -0.0163 -0.0096 -0.1560
19891W        W35700   6.025   8.414   5.877  0.0897  0.4467 -0.1932
19892W        W35701  17.996  13.884  10.205  0.0021 -0.2745 -0.2663
19893W        W35702   5.773  12.041   1.280 -0.0359  0.0154  0.3902
19894W        W35703  15.737   8.579   3.613  0.1059 -0.0829 -0.0476
19895W        W35704  14.199   1.688  13.645 -0.0544  0.2424  0.0863
19896W        W35705  10.092  17.202  13.622  0.4725 -0.1072  0.1324
19897W        W35706  18.443   0.686  11.790  0.2717  0.0566 -0.3374
19898W        W35707   7.143   0.176  12.696 -0.2866 -0.1026 -0.3059
19899W        W35708  15.814   3.546  14.240 -0.0661 -0.0738 -0.0429
19900W        W35709   3.608   7.666   2.532  0.2339  0.0827 -0.0601
19901W        W35710   3.256   4.159  14.127 -0.1589 -0.2421  0.1003
19902W        W35711   8.481   1.645  11.566  0.0751  0.2339  0.1305
19903W        W35712  10.341   1.641   5.830 -0.1854  0.1429  0.0952
19904W        W35713   9.336   3.639   3.438 -0.0446  0.0332  0.0269
19905W        W35714   2.974  14.649  12.627  0.1545 -0.2244  0.2486
19906W        W35715  11.407   8.976  12.152  0.3400  0.0060  0.1853
19907W        W35716  12.165  10.055   4.968 -0.1970 -0.0439 -0.3089
19908W        W35717   0.269   7.666   1.878  0.3000 -0.1495 -0.3690
19909W        W35718   3.440   2.053  13.293  0.0037 -0.2744 -0.0932
19910W        W35719   9.082   2.265  12.243  0.1569  0.1579 -0.3008
19911W        W35720   0.193  12.624   3.760 -0.1934 -0.1827 -0.0827
19912W        W35721   0.469  14.420   4.765 -0.1277  0.2527 -0.0064
19913W        W35722  17.152  10.662  11.896  0.1529 -0.0204  0.0912
19914W        W35723   6.732  18.031  10.107  0.0396 -0.2240  0.1250
19915W        W35724   5.284  10.923  12.521 -0.2498 -0.0828  0.4315
19916W        W35725  10.680   8.259  12.517 -0.1050 -0.2798  0.1596
19917W        W35726  18.091   7.490   2.664  0.0074 -0.1023  0.0423
19918W        W35727   9.724   5.320  11.326 -0.0478 -0.0329 -0.2434
19919W        W35728   6.212   3.966  12.392 -0.0948 -0.0934 -0.0894
19920W        W35729   3.731  16.904   1.165  0.1278  0.1651  0.1249
19921W        W35730   5.394   8.459   0.214  0.0292 -0.4675  0.0107
19922W        W35731   0.205  15.964  11.857 -0.0823  0.4327 -0.0475
19923W        W35732   1.019  11.769  15.227  0.2228 -0.4174  0.1659
19924W        W35733  14.860   2.370   1.365  0.2549  0.1556  0.2493
19925W        W35734   5.529   7.223  10.867  0.1539 -0.1502  0.1234
19926W        W35735   4.538   5.603   3.310  0.1681 -0.2639  0.1450
19927W        W35736  10.853   2.531  10.849 -0.1899 -0.3613 -0.2650
19928W        W35737   2.072  14.969   3.304 -0.2965  0.0826  0.3885
19929W        W35738  15.756   8.299  14.764 -0.0682  0.2405 -0.0692
19930W        W35739   3.248  16.729  14.984 -0.1311  0.1858  0.3877
19931W        W35740   7.219  12.879  10.455 -0.0549  0.1453 -0.0066
19932W        W35741   0.114   2.290  12.690  0.1409 -0.0896  0.1589
19933W        W35742  18.092   0.154  12.915  0.0837 -0.5246  0.1954
19934W        W35743  13.748  15.775  14.210  0.2217 -0.3823 -0.1268
19935W        W35744   5.576   8.980   0.892  0.0249 -0.0641 -0.0603
19936W        W35745  14.547  17.929  14.986  0.0184 -0.0391 -0.0069
19937W        W35746   2.563   4.368   2.237  0.1408  0.2567 -0.0364
19938W        W35747  18.578  17.741  11.696  0.0278  0.0714 -0.2528
19939W        W35748  10.190  11.744   0.778  0.2829 -0.0278 -0.0107
19940W        W35749  14.089   9.541  11.395  0.0326 -0.2870  0.2845
19941W        W35750  13.022   7.351   2.772  0.1785 -0.0769  0.3300
19942W        W35751   5.030   7.381  15.322 -0.2771  0.0487  0.3472
19943W        W35752  11.086  11.766  10.948  0.2175 -0.3398 -0.2614
19944W        W35753   9.682   6.162   1.411 -0.0055 -0.1524  0.1499
19945W        W35754   2.756   6.181   2.112  0.1064 -0.1376  0.0693
19946W        W35755  13.196   2.210  15.169  0.0665 -0.0525  0.2169
19947W        W35756   6.098   3.931  10.548 -0.2078 -0.0555  0.3992
19948W        W35757  17.259  14.584   3.361  0.2953 -0.1232 -0.2176
19949W        W35758  14.768   7.827  14.645 -0.1428 -0.2280  0.0728
19950W        W35759  11.637  16.586  14.623 -0.0028  0.1368  0.1398
19951W        W35760   9.472   4.464   2.854 -0.0809 -0.0262  0.1704
19952W        W35761  13.962   0.408  12.973  0.1646 -0.0959 -0.0488
19953W        W35762   7.538   6.973  15.006 -0.2089 -0.0950  0.0249
19954W        W35763   0.673  18.146   5.196  0.0194 -0.1944 -0.0494
19955W        W35764   4.227  16.781   1.857  0.0583 -0.3630  0.2103
19956W        W35765  18.489   5.802  15.369 -0.2031  0.0463 -0.1529
19957W        W35766   9.744   2.010   4.531  0.2078 -0.1824 -0.1430
19958W        W35767  18.631  17.018   4.475  0.0835 -0.0475  0.2638
19959W        W35768   6.213   2.346  14.086 -0.4057  0.0904 -0.1814
19960W        W35769  15.400  16.041   1.002  0.1286 -0.0681  0.2148
19961W        W35770   7.652  14.667   3.708 -0.3980  0.0565  0.1365
19962W        W35771  16.906  12.415  15.327  0.3666 -0.1020  0.3908
19963W        W35772  17.956   5.219  13.875  0.1950  0.0279  0.2041
19964W        W35773  15.315   0.898  15.520 -0.3417  0.1250 -0.0374
19965W        W35774   6.225   1.678   2.853  0.1148  0.1044  0.2821
19966W        W35775  12.598   7.109   2.678 -0.1627  0.0736  0.1061
19967W        W35776  13.513  13.984   5.624 -0.2400  0.1415  0.4712
19968W        W35777   6.317   3.944  15.111 -0.0505 -0.2904 -0.1187
19969W        W35778  15.761   8.498  12.671 -0.0912 -0.2238 -0.0825
19970W        W35779  16.668  11.780   2.743 -0.2702  0.0445 -0.2718
19971W        W35780   7.613   8.259  15.391 -0.3233 -0.1031 -0.1636
19972W        W35781   5.677  16.569  11.541  0.5428 -0.2312 -0.3908
19973W        W35782   3.186  14.324  11.478 -0.3666  0.2465 -0.0103
19974W        W35783   1.508   0.789  10.665  0.1245 -0.2952 -0.0765
19975W        W35784   8.394  17.026   4.866  0.1759 -0.2042 -0.0230
19976W        W35785  16.239   2.996  13.760 -0.3237  0.0680 -0.0869
19977W        W35786   5.677  17.881  12.486  0.2055  0.1967  0.2322
19978W        W35787  11.808   2.569  10.948 -0.1540  0.1935 -0.1143
19979W        W35788  18.641   8.757   1.677  0.0843 -0.1786  0.1030
19980W        W35789   6.518  12.997   3.579  0.2887  0.0407 -0.0888
19981W        W35790   9.425  16.677   5.601 -0.0427  0.0629  0.0596
19982W        W35791   1.070   0.112   2.403 -0.0663 -0.1322  0.2616
19983W        W35792   6.127  12.489  12.959 -0.2534  0.0242 -0.1765
19984W        W35793   2.557   3.889  12.163 -0.1130 -0.3004 -0.1062
19985W        W35794   6.918   4.864   3.038  0.3234 -0.0609 -0.3293
19986W        W35795   1.663   6.566   1.205 -0.1054 -0.2825  0.2189
19987W        W35796   5.347  16.424   3.197  0.1644  0.1333  0.1703
19988W        W35797  13.039   6.296   4.333  0.0458  0.1455 -0.0583
19989W        W35798   1.458   7.181   4.692  0.0369 -0.3731  0.1501
19990W        W35799  13.445   2.428   4.802  0.2369 -0.1438 -0.0682
19991W        W35800  10.962   8.717  12.480  0.5169  0.2148  0.2254
19992W        W35801   2.677  18.092  10.467 -0.2968 -0.2940  0.1143
19993W        W35802   2.778  12.041   3.102 -0.3914 -0.0722  0.2429
19994W        W35803  12.188   1.270  15.045 -0.0323  0.2865  0.4133
19995W        W35804  18.318  11.481  14.643 -0.0969  0.0260  0.1320
19996W        W35805  10.832  11.217  12.079 -0.0643  0.1151  0.1656
19997W        W35806   4.441   3.628   4.242 -0.1693  0.0099 -0.2590
19998W        W35807   6.640  11.197   4.758  0.4078 -0.1378 -0.2492
19999W        W35808  14.694   1.527  12.924 -0.1300 -0.2127  0.1020
20000W        W35809  14.014   8.698   1.129  0.3301 -0.1633  0.1324
20001W        W35810   3.164  18.296   2.220 -0.3634  0.0609 -0.0507
20002W        W35811  15.642   6.169  14.504  0.1272  0.0289  0.3376
20003W        W35812   3.413  16.167   0.511  0.0147 -0.0237  0.2508
20004W        W35813  16.593  11.000  15.011 -0.0405  0.3107  0.1165
20005W        W35814   5.413   8.976   5.320  0.1322  0.0551  0.2147
20006W        W35815  17.039   2.818  12.945  0.2392 -0.0925  0.1821
20007W        W35816   6.608  10.368  15.187 -0.0149  0.3130 -0.1776
20008W        W35817   1.166  11.193   1.017 -0.4410  0.6426 -0.1932
20009W        W35818  13.357  13.442  11.899 -0.0686  0.0791  0.0878
20010W        W35819   2.418  11.751  12.707 -0.1171 -0.1210  0.0370
20011W        W35820  14.707   4.847  14.074  0.0221 -0.3494 -0.0564
20012W        W35821   7.477  13.477  11.846 -0.0160 -0.0000  0.2096
20013W        W35822  18.639   5.928  11.976  0.0423 -0.1734 -0.0655
20014W        W35823  16.437  16.366   4.472 -0.0615  0.1497 -0.0045
20015W        W35824   6.400  18.401  10.120  0.1797  0.0179  0.0499
20016W        W35825  13.309   5.535   3.386 -0.1665  0.1057 -0.0060
20017W        W35826   5.886  11.295   3.925  0.2772  0.0207  0.0820
20018W        W35827   6.757  18.624   2.448  0.0524  0.2952 -0.3714
20019W        W35828  16.904   6.987   0.915  0.0388 -0.0830 -0.1569
20020W        W35829   1.055  14.140   4.771 -0.0980 -0.1856 -0.2394
20021W        W35830   2.728   3.531   1.588  0.4158 -0.0168 -0.0519
20022W        W35831  11.304  18.093   4.362 -0.1923  0.0460  0.0634
20023W        W35832   7.842   6.152   0.204  0.0489 -0.3080 -0.0165
20024W        W35833  13.907   4.369   6.077 -0.3789  0.1505 -0.0696
20025W        W35834   5.269  13.925  12.328  0.2810  0.0644 -0.1140
20026W        W35835   9.252   0.595  13.946 -0.0382 -0.0639 -0.0940
20027W        W35836   6.242   1.008   0.408  0.1398  0.0954 -0.2182
20028W        W35837  17.372   3.935  15.114 -0.0517 -0.0355  0.2037
20029W        W35838   5.274   5.751   4.734  0.1363 -0.1272  0.1185
20030W        W35839  11.297   6.148   4.804  0.2098 -0.0026 -0.1164
20031W        W35840   0.980   6.018  13.575  0.1394 -0.2929  0.0487
20032W        W35841  11.043  12.900   2.820 -0.0691 -0.3710 -0.2998
20033W        W35842   0.715   5.675  10.462  0.2187  0.1545  0.1336
20034W        W35843   0.968   0.146   3.609  0.1296 -0.0206 -0.1048
20035W        W35844   3.153  17.730  10.920  0.1606 -0.0983 -0.0883
20036W        W35845  11.217  16.401   2.471  0.0422  0.1507 -0.0732
20037W        W35846   4.422  17.793  15.128  0.0770  0.1498 -0.3188
20038W        W35847   8.028   3.460   3.608  0.0620  0.2018 -0.2347
20039W        W35848   6.696  11.916  13.486  0.0553 -0.0403 -0.0544
20040W        W35849  12.861  11.932   2.905  0.1884  0.2744 -0.3942
20041W        W35850   1.738   1.018   1.397 -0.0197 -0.1527  0.1330
20042W        W35851   3.581   3.430  11.060 -0.0357  0.1450 -0.4132
20043W        W35852  17.849  12.378   2.695 -0.0105 -0.1330  0.0697
20044W        W35853   7.042   1.354   4.199 -0.1439  0.3034 -0.0509
20045W        W35854   4.360   1.758   2.251 -0.0894  0.3569 -0.0223
20046W        W35855   3.076   6.854   4.621 -0.1082 -0.2127 -0.0852
20047W        W35856  15.136   5.872   1.825  0.3023  0.4169 -0.0063
20048W        W35857   9.335  15.612  10.580 -0.3314  0.2108 -0.1090
20049W        W35858  11.666   4.147   3.664  0.3710  0.1805 -0.1677
20050W        W35859   4.260   0.253   4.950 -0.3094 -0.2376  0.0684
20051W        W35860   4.738  14.300  10.623 -0.0125 -0.0214  0.1848
20052W        W35861   1.888  11.150  14.528  0.1279  0.2464 -0.0371
20053W        W35862  15.587  14.044   3.546  0.1873  0.0342 -0.2489
20054W        W35863   9.738   3.738   3.861  0.2776 -0.0333  0.0675
20055W        W35864   7.680   0.796   4.518  0.0132 -0.0714  0.2447
20056W        W35865  16.387   0.663  12.306 -0.0523 -0.2249  0.1719
20057W        W35866  11.288   3.847   3.154  0.0699 -0.2864 -0.0730
20058W        W35867  11.605  13.645  13.094 -0.3543  0.4159 -0.0473
20059W        W35868  12.338   5.755  14.015  0.1573  0.2348  0.3487
20060W        W35869   0.736  17.458  15.046 -0.2445 -0.0288  0.4297
20061W        W35870   9.637  15.345   1.885  0.1160  0.2141  0.1514
20062W        W35871  16.282  12.869   1.909  0.0115  0.0584  0.1685
20063W        W35872  17.739  18.243  13.818  0.1442 -0.0650 -0.1611
20064W        W35873   0.868   4.619  12.005  0.1073 -0.0271 -0.1239
20065W        W35874  18.749   3.356  11.291 -0.0155 -0.0375 -0.1149
20066W        W35875  12.195   1.697  10.767 -0.1470  0.0158 -0.3965
20067W        W35876  14.806  16.325  12.748  0.0739 -0.0607 -0.0013
20068W        W35877   6.399   3.501  15.198  0.1604 -0.0046 -0.2298
20069W        W35878   6.122  18.529  11.471  0.1304  0.2819  0.0301
20070W        W35879  13.306  16.143   3.357  0.2212 -0.0990  0.0134
20071W        W35880   9.526  16.482   3.092 -0.4398  0.1507 -0.1843
20072W        W35881  11.603   0.876  11.740 -0.1953 -0.0432  0.2843
20073W        W35882  18.520  15.499  11.295  0.1648  0.1063  0.0312
20074W        W35883   0.478  11.990  12.334 -0.3202 -0.1475  0.1363
20075W        W35884  11.087  16.252  15.299  0.1124  0.1863 -0.1336
20076W        W35885   8.155  13.198  11.888  0.1247 -0.1860 -0.0085
20077W        W35886   3.880   2.396   1.061  0.1470 -0.1392  0.0656
20078W        W35887  16.157   5.301   2.653 -0.0461 -0.1466  0.0890
20079W        W35888   3.665   1.090  12.923 -0.0453  0.1939  0.2564
20080W        W35889  16.630  13.933   1.809  0.2092 -0.1244 -0.1009
20081W        W35890   9.781  11.689   4.829 -0.0717  0.2955 -0.2932
20082W        W35891  15.932  16.905   4.342 -0.0245  0.0145  0.3989
20083W        W35892   0.603  14.854  10.804  0.0836  0.0820 -0.0682
20084W        W35893   6.167  10.749  13.448  0.0602 -0.2201 -0.1668
20085W        W35894  16.948   5.636  14.074  0.3117 -0.0790 -0.1541
20086W        W35895   3.048   8.234  15.561  0.0697  0.0556  0.0008
20087W        W35896   8.220   6.596  11.979  0.0082  0.2587  0.2778
20088W        W35897  13.159   9.147  14.077 -0.1498  0.0139 -0.1004
20089W        W35898  13.259   3.748   4.707 -0.1179 -0.1120 -0.1539
20090W        W35899   1.103   6.282  12.391 -0.1671 -0.1006 -0.0873
20091W        W35900   8.253   4.321   3.296 -0.2686  0.2556  0.0963
20092W        W35901  13.620   5.901   1.749  0.0785  0.1250  0.1558
20093W        W35902  12.710   0.103  12.389 -0.1076  0.1865 -0.0121
20094W        W35903   2.793  13.760  14.937  0.0318  0.2183 -0.0992
20095W        W35904   5.700  18.360   2.965 -0.0128 -0.0935  0.1586
20096W        W35905  17.935  13.613   2.034 -0.0141 -0.2644  0.0988
20097W        W35906   5.965  10.060  11.737  0.4816  0.2091  0.0641
20098W        W35907   4.287  10.816  10.665 -0.0467 -0.0726  0.0746
20099W        W35908   7.862  11.361  13.450 -0.3584 -0.0012  0.2426
20100W        W35909   9.357  15.759  15.120 -0.0704  0.0022  0.0391
20101W        W35910  15.753  11.638   4.034 -0.1464  0.3474 -0.0423
20102W        W35911  14.347  16.822  12.674 -0.0739  0.2386 -0.3895
20103W        W35912  14.047  17.920  14.830 -0.1683  0.0304 -0.2233
20104W        W35913  10.739  15.101  14.051  0.0986  0.0170  0.3357
20105W        W35914  16.387  14.216   0.914  0.0633  0.0939  0.0389
20106W        W35915  12.559   6.130   3.586 -0.0701  0.0026  0.2321
20107W        W35916  11.768  15.566   3.107  0.2010 -0.0768 -0.0069
20108W        W35917  17.065   4.579   6.240 -0.3405  0.1789  0.0546
20109W        W35918   3.338  11.198   1.781  0.2395  0.2499  0.0117
20110W        W35919  17.912   0.477  14.727  0.2837  0.0175  0.0429
20111W        W35920  16.212   4.207   4.840 -0.1423  0.0721  0.2355
20112W        W35921   0.808   0.949  13.016 -0.3540 -0.0471 -0.4329
20113W        W35922  14.629   2.124  12.326 -0.1566 -0.0973  0.1427
20114W        W35923   9.731   2.344   0.266  0.1397  0.1883  0.3123
20115W        W35924   8.202  15.017  12.278 -0.0273 -0.3788 -0.1198
20116W        W35925   7.228   6.789   4.601 -0.0051  0.1259 -0.2761
20117W        W35926   2.892   0.337  13.669 -0.1419 -0.0486 -0.1323
20118W        W35927   7.113  18.715   5.487 -0.1178 -0.2576 -0.1272
20119W        W35928  18.604  11.796  15.306  0.1803  0.1397 -0.0733
20120W        W35929   2.497   6.129  14.050 -0.0442  0.1690  0.1466
20121W        W35930  16.735  15.850  15.219 -0.0359  0.1741  0.0209
20122W        W35931  14.198   8.207   0.981  0.0595  0.2258 -0.0868
20123W        W35932   6.727   6.100   5.187  0.0711 -0.1584 -0.0638
20124W        W35933   2.331  10.072  14.054  0.3713  0.1394  0.1281
20125W        W35934  18.271  12.892  14.560  0.4093 -0.0701  0.0774
20126W        W35935  11.829   4.564  11.680 -0.0364  0.2690 -0.2700
20127W        W35936  18.025  14.765  13.612  0.1658  0.1586  0.0042
20128W        W35937   8.738  15.527   1.558 -0.0472  0.0565 -0.1496
20129W        W35938   9.076   4.213  11.115  0.0553  0.0431 -0.0420
20130W        W35939  10.733  14.539   0.391 -0.3458 -0.3099  0.0668
20131W        W35940  18.146  12.321  14.693 -0.0504 -0.1004 -0.3455
20132W        W35941  16.972  15.179   4.121 -0.0124  0.1375  0.0178
20133W        W35942  14.765   5.907  11.489 -0.1243 -0.4424  0.1871
20134W        W35943   8.054  17.698   2.986  0.3133 -0.0635 -0.0637
20135W        W35944   0.370  11.728  10.074 -0.1112  0.0623  0.1423
20136W        W35945  14.307  10.417   4.777 -0.0145  0.1499 -0.3507
20137W        W35946   6.996   8.384  11.810 -0.2028  0.2314  0.2577
20138W        W35947  15.551  17.329   0.081 -0.2531  0.1149 -0.2369
20139W        W35948  13.787   2.986  14.704  0.2941 -0.1856 -0.1635
20140W        W35949   4.536  13.296  13.022  0.2130  0.0575  0.1777
20141W        W35950  10.467  12.615  14.036  0.0404 -0.0900  0.4184
20142W        W35951  13.836   7.698   1.146  0.1019  0.0231  0.0382
20143W        W35952  12.302   1.810  13.168  0.1591 -0.0684  0.0447
20144W        W35953   7.013   4.264   3.455  0.0637 -0.0213 -0.1609
20145W        W35954   4.152   0.214  14.185  0.0880 -0.1376 -0.1993
20146W        W35955  15.436   1.883  14.495  0.0820  0.0786  0.3371
20147W        W35956  12.768  13.570  13.860  0.2582  0.3079 -0.0416
20148W        W35957  17.752   2.644   4.588  0.0134  0.0177  0.0492
20149W        W35958  11.716  13.562   1.747  0.0731  0.0406  0.0362
20150W        W35959  12.155   5.815  12.358 -0.5298  0.0278  0.0950
20151W        W35960   1.979  13.461   9.669 -0.0518  0.1309 -0.1569
20152W        W35961   9.880   0.517  10.242  0.1212 -0.0959  0.0755
20153W        W35962   8.132  18.389  12.091  0.0681  0.3170  0.1077
20154W        W35963  13.401   3.798   3.199  0.0572  0.1512  0.1525
20155W        W35964   5.334  13.459  14.778  0.1940 -0.2103  0.0906
20156W        W35965  12.924   7.177  15.309  0.0784  0.2599 -0.0325
20157W        W35966  14.562   0.799   5.689 -0.2929  0.1461 -0.0720
20158W        W35967   3.577  13.006   0.426 -0.0671 -0.2173  0.0585
20159W        W35968  16.328   6.918  13.648  0.2793  0.0523  0.0892
20160W        W35969   1.281  13.287  11.355  0.0414  0.3907  0.0414
20161W        W35970   9.685   9.690  15.411  0.1163  0.2340  0.0481
20162W        W35971  17.160   4.092  13.814 -0.2399  0.0085 -0.2417
20163W        W35972  12.080   8.449  12.420  0.2966  0.0293  0.0674
20164W        W35973   5.207   6.786   4.515 -0.0123  0.2274  0.2417
20165W        W35974  15.228   7.923   3.548  0.0912 -0.1834 -0.1693
20166W        W35975  11.215   5.945   1.738  0.1489  0.0711 -0.1742
20167W        W35976  15.336   9.456   4.577 -0.3375  0.0963  0.0435
20168W        W35977  11.597  12.158  14.774  0.1162 -0.0818  0.1770
20169W        W35978  12.220  18.159   2.018  0.1984 -0.0001 -0.0329
20170W        W35979   8.462   2.859  13.677  0.0667  0.1788  0.0548
20171W        W35980   7.850  10.058   4.573 -0.0857 -0.4772 -0.2064
20172W        W35981  12.207  13.025   3.843  0.2581 -0.1188 -0.3103
20173W        W35982  10.656  12.220   4.620 -0.0287 -0.3124  0.3436
20174W        W35983  11.871  16.712  12.985 -0.0857 -0.1708 -0.2024
20175W        W35984   9.329   7.918   1.036 -0.0087  0.2548 -0.2454
20176W        W35985  17.773   3.716  12.716 -0.1138 -0.1728  0.3925
20177W        W35986   0.822   5.196  12.866 -0.0515  0.0315 -0.0436
20178W        W35987  10.389  10.416   2.083 -0.0659  0.0413  0.2152
20179W        W35988  17.991   5.108  15.133  0.1399 -0.2475 -0.0251
20180W        W35989  11.026   6.287   9.976  0.0369  0.1854  0.3331
20181W        W35990  18.508   7.190   9.803  0.0979  0.0930 -0.2132
20182W        W35991  12.605  17.468   4.409 -0.0249 -0.0061  0.1918
20183W        W35992   0.064  15.396   9.683  0.0303  0.0372 -0.1835
20184W        W35993  14.751  11.531  14.494  0.1416 -0.0889  0.1189
20185W        W35994   3.136   6.400   5.324 -0.0332 -0.5617 -0.0506
20186W        W35995  15.401   1.321   5.322  0.1728  0.1505 -0.2418
20187W        W35996   7.435  14.375   4.113 -0.0682 -0.0759  0.0495
20188W        W35997  11.373   4.373   2.222 -0.2091 -0.0423 -0.0199
20189W        W35998   2.330   5.657   2.792  0.2499 -0.1016 -0.0557
20190W        W35999  15.954   8.541  14.250 -0.2200  0.0163  0.0894
20191W        W36000  16.779   9.759   4.241  0.1343  0.1561  0.3385
20192W        W36001   4.486   3.167   0.505  0.4100 -0.0533  0.1995
20193W        W36002  13.729  15.360   4.584 -0.0773  0.0820  0.1880
20194W        W36003  10.600  10.088   3.689 -0.0698  0.2567 -0.1257
20195W        W36004   1.424  14.423  12.033  0.0147 -0.1304 -0.1639
20196W        W36005  13.402  10.172   4.068 -0.2368 -0.1767 -0.1600
20197W        W36006  17.446   7.834  14.853 -0.0210 -0.3660  0.0689
20198W        W36007  13.733   2.606  11.742  0.3760  0.2628  0.0180
20199W        W36008   6.573   6.380   4.789 -0.0970 -0.1648 -0.0089
20200W        W36009  17.101  17.508   2.517 -0.5044 -0.0457  0.3628
20201W        W36010  11.012  13.147   2.083 -0.2018  0.0360  0.1787
20202W        W36011   8.255   5.954  13.999 -0.2077 -0.1426 -0.1139
20203W        W36012   3.691  13.923  10.710  0.0837 -0.0069 -0.1313
20204W        W36013   0.363   4.713   1.946  0.1277 -0.1110 -0.1718
20205W        W36014   4.154   8.487   1.432 -0.4070  0.0306  0.1050
20206W        W36015  15.180  14.526  12.152  0.0529 -0.2203  0.0548
20207W        W36016  10.068   2.047  14.401 -0.1455 -0.2465  0.2135
20208W        W36017   6.609  11.446   2.192 -0.2247  0.2820  0.2158
20209W        W36018   2.364   7.968   4.436  0.1923  0.1410  0.0484
20210W        W36019  18.627  15.308   0.272 -0.1194 -0.1459  0.0077
20211W        W36020  15.497  12.991   5.236 -0.0071  0.1640 -0.1326
20212W        W36021   3.663   4.360   1.870 -0.1548 -0.3828  0.0388
20213W        W36022   7.585  11.530   0.358  0.2743  0.0706 -0.0521
20214W        W36023   3.873  18.327   0.725 -0.1024 -0.3357 -0.1496
20215W        W36024  16.895   9.985   1.181 -0.0688  0.0655 -0.2216
20216W        W36025  18.471   6.678  12.795 -0.0253 -0.1174 -0.3680
20217W        W36026  17.169  10.460  15.221  0.0283  0.0762 -0.0455
20218W        W36027   2.195  13.603   3.039 -0.1995 -0.2596  0.1089
20219W        W36028   9.078   4.099  13.803  0.1450 -0.0321  0.3478
20220W        W36029  15.361  10.147   5.383  0.1022 -0.3482 -0.0722
20221W        W36030  10.179   0.422   1.240 -0.0768 -0.2139 -0.1535
20222W        W36031   3.664   7.228  12.700 -0.0766 -0.2645 -0.2184
20223W        W36032   2.403   9.919   5.118 -0.2278 -0.1456 -0.0476
20224W        W36033   6.813   4.659   1.174 -0.2482 -0.0836  0.0329
20225W        W36034   4.281   1.552  12.729 -0.1554 -0.2565  0.1266
20226W        W36035  14.096  17.882   3.986 -0.1388 -0.2057  0.2217
20227W        W36036   6.982   2.522  15.525 -0.2091 -0.0361  0.0968
20228W        W36037   8.064   4.372  10.393 -0.1914  0.3612 -0.0894
20229W        W36038  14.266   4.206   5.318  0.0733  0.0336 -0.0726
20230W        W36039  16.974  15.942   1.984 -0.0507 -0.1855 -0.3959
20231W        W36040  11.813  17.002  11.550  0.2973  0.0461 -0.2275
20232W        W36041   0.574  13.928   4.800 -0.0283  0.0160 -0.2204
20233W        W36042  16.859   4.655   0.654 -0.0230  0.2293  0.2491
20234W        W36043   8.898   2.588  13.781 -0.0977  0.1930 -0.1347
20235W        W36044   6.279   7.921   1.419 -0.1325 -0.0663  0.0747
20236W        W36045   8.184  11.206  10.554  0.4714  0.0761  0.0597
20237W        W36046   7.640  10.112  11.470 -0.1131 -0.3107  0.0515
20238W        W36047   7.001   3.146   1.560  0.1294  0.0967  0.1305
20239W        W36048   2.465   8.491   2.143  0.1885  0.0872 -0.3934
20240W        W36049   1.773  10.130  11.541 -0.1793 -0.3215 -0.0385
20241W        W36050   7.250  14.709   0.150  0.0822 -0.0249 -0.0858
20242W        W36051  14.572   3.876  11.867 -0.1908  0.2007 -0.1499
20243W        W36052  16.434   7.660   9.682  0.0046  0.1167 -0.2007
20244W        W36053  18.108   9.561   2.131  0.1330 -0.0273  0.2585
20245W        W36054  14.490   6.146   6.075 -0.1315  0.1710  0.0477
20246W        W36055  14.140   5.059  15.365 -0.2733 -0.3068 -0.1036
20247W        W36056   9.515   5.242  12.238  0.1009  0.0342 -0.2136
20248W        W36057   0.691  17.517   0.853 -0.3537  0.0513 -0.0917
20249W        W36058   9.444  16.265   0.564 -0.0598 -0.1204 -0.1214
20250W        W36059  14.212   1.847   5.397  0.1596 -0.0058 -0.0960
20251W        W36060   1.884   0.564   1.610 -0.3577  0.2324  0.1252
20252W        W36061   3.681  11.221  14.652 -0.2780  0.0370 -0.1149
20253W        W36062   0.168   4.954   2.961  0.0587 -0.0955 -0.2043
20254W        W36063  11.965   5.630   0.343 -0.0364 -0.0230  0.3436
20255W        W36064   0.115  17.814   0.686  0.0738 -0.3673  0.1124
20256W        W36065   6.906   6.910   4.207 -0.3204 -0.0543  0.0356
20257W        W36066  18.497   4.507  11.686  0.3975  0.0524  0.1897
20258W        W36067  17.163   2.305  13.745  0.1274  0.1512  0.2783
20259W        W36068   4.051   8.670  13.529 -0.0503  0.1758  0.2253
20260W        W36069   9.249  11.713   5.768 -0.1161  0.1167  0.0253
20261W        W36070  12.336   6.707   0.416  0.2177  0.0550 -0.0374
20262W        W36071   6.513  11.258  14.878  0.1310 -0.1425 -0.2189
20263W        W36072  15.528  11.902   0.159 -0.2032 -0.4501  0.2177
20264W        W36073   7.956   2.220   5.433 -0.0955  0.1804 -0.1192
20265W        W36074   3.285   7.175  13.256  0.1854 -0.1205 -0.0314
20266W        W36075   4.929  10.295  14.519 -0.0173 -0.0478 -0.1380
20267W        W36076  12.105   8.152   0.878 -0.2293 -0.0216 -0.1164
20268W        W36077  18.002   5.117   5.089  0.1568 -0.1202  0.1581
20269W        W36078   3.526   5.052   1.547 -0.1397  0.1750  0.1482
20270W        W36079   6.932   7.938  11.176  0.2518 -0.0358 -0.3342
20271W        W36080   3.150  16.642  10.696  0.3239  0.0772  0.2728
20272W        W36081  12.849  15.544   4.116  0.2671  0.2318 -0.1789
20273W        W36082  13.726  14.847   5.387  0.1018 -0.2314  0.0742
20274W        W36083  12.354   0.990   4.478  0.2723  0.1272 -0.1369
20275W        W36084   3.685   0.831   3.873  0.1013  0.0020 -0.0530
20276W        W36085  17.984  14.662  11.334 -0.0548  0.0363  0.0726
20277W        W36086  14.231   2.982  13.179 -0.0056 -0.0059 -0.0876
20278W        W36087  11.422   5.089   4.907 -0.0479 -0.0067  0.0398
20279W        W36088   8.254   1.623   3.022 -0.4563  0.1517 -0.0758
20280W        W36089   5.394  14.616   3.358  0.0652  0.2026 -0.1179
20281W        W36090  11.599   1.565   4.207 -0.2846 -0.1018  0.2141
20282W        W36091   8.004  14.544   4.053 -0.2054  0.1638  0.0898
20283W        W36092   3.980   9.580   2.052 -0.2035 -0.0843 -0.1692
20284W        W36093  18.335   4.224  12.848 -0.0063  0.0624  0.0128
20285W        W36094  15.457   8.532  13.842  0.2913  0.0515  0.0996
20286W        W36095  14.256   0.410   6.427  0.3227  0.1879 -0.1027
20287W        W36096   4.514   2.732   2.170 -0.0204 -0.4573 -0.0215
20288W        W36097  11.014   3.956   2.324 -0.4201 -0.0274  0.2566
20289W        W36098   4.344   7.859  11.134  0.0978 -0.0106  0.0972
20290W        W36099  13.721  16.115   2.544 -0.0263  0.2042  0.0280
20291W        W36100  18.740  15.960  14.937 -0.1056  0.1142 -0.0639
20292W        W36101   8.826   8.887   3.113 -0.0589  0.1995 -0.0813
20293W        W36102  17.372   2.887   6.012  0.0896 -0.0032 -0.1366
20294W        W36103   8.771  11.860  15.351  0.0758 -0.2215 -0.1490
20295W        W36104   2.161  17.528   2.023  0.0005 -0.2158  0.0388
20296W        W36105  10.461   8.357  13.598 -0.1154 -0.0624  0.1958
20297W        W36106  10.758  17.724   5.092  0.3449 -0.0384  0.0818
20298W        W36107  14.183  18.162  13.051  0.0004  0.0263  0.2136
20299W        W36108  15.288   0.377   5.422  0.1661 -0.3684 -0.1122
20300W        W36109  13.873  12.552  11.904 -0.0976 -0.0779  0.1342
20301W        W36110   0.434  10.187   0.676 -0.1145  0.2488  0.0353
20302W        W36111  10.554   4.320  12.301  0.2642 -0.1886 -0.2896
20303W        W36112   6.924  17.470   3.096  0.2643  0.1004  0.0188
20304W        W36113   2.334   6.170  15.377 -0.1321  0.0982 -0.0718
20305W        W36114   5.397   5.065  10.590  0.1241 -0.2138  0.1570
20306W        W36115  15.469   4.212   2.454  0.1953  0.2316  0.0393
20307W        W36116  11.053   2.777   6.137 -0.1430 -0.2932 -0.1154
20308W        W36117  16.372   9.667  13.178  0.0512  0.0010  0.1415
20309W        W36118  11.976   1.623  11.526 -0.1220 -0.1662 -0.2744
20310W        W36119  17.106  17.459  11.917  0.3108 -0.3054 -0.0591
20311W        W36120  14.977  16.611  11.012 -0.1245  0.1117  0.0958
20312W        W36121   2.908   6.759  14.919  0.0952 -0.1982  0.3383
20313W        W36122  18.129  10.108  14.302  0.1847  0.0038 -0.1213
20314W        W36123   6.027  17.249  11.486 -0.0131 -0.1399 -0.0180
20315W        W36124   0.149   3.232  13.493 -0.1994  0.1911 -0.0279
20316W        W36125   6.773  11.752  10.427  0.0859  0.0173 -0.2939
20317W        W36126  15.717  17.372   1.072  0.2348  0.1807  0.0724
20318W        W36127  11.219   8.807  11.112  0.0493  0.0301  0.0457
20319W        W36128   4.024   9.845  12.544  0.1437  0.0199  0.0369
20320W        W36129   7.175  11.473  12.655  0.0507 -0.1023 -0.1860
20321W        W36130  13.455   8.661   2.812  0.1423 -0.2244  0.1979
20322W        W36131   7.534   1.690  11.064 -0.1672  0.1245  0.1378
20323W        W36132   6.357  12.540   3.404  0.2428 -0.0900  0.2622
20324W        W36133   9.625   5.894   1.814  0.2149 -0.0268 -0.1022
20325W        W36134  18.485   4.474   4.476  0.2019 -0.0097 -0.1464
20326W        W36135  15.213  15.541  14.781  0.0626 -0.1637  0.0310
20327W        W36136  17.251  14.085  13.575  0.2185 -0.0647  0.2775
20328W        W36137   0.020  12.395  14.545 -0.4673  0.1928 -0.3800
20329W        W36138   5.266  15.164  12.321  0.1835  0.1610 -0.1472
20330W        W36139   8.318   9.849  15.348 -0.3048  0.0881  0.4011
20331W        W36140   8.608  14.644   4.033 -0.0668  0.0725  0.0280
20332W        W36141   5.633  15.683   1.526 -0.0568 -0.1903  0.1857
20333W        W36142   7.300   7.081  11.205 -0.1089  0.4536  0.4656
20334W        W36143  15.979   3.087   5.236 -0.2235  0.2600 -0.0661
20335W        W36144   3.303   0.671  11.078  0.1366  0.5604 -0.2519
20336W        W36145  15.768   6.115  10.439 -0.3416  0.0083 -0.1190
20337W        W36146   1.057  14.493   1.004  0.2098 -0.0700 -0.0665
20338W        W36147   4.323   7.051  11.650  0.2039 -0.0650  0.1050
20339W        W36148   9.661  14.574  13.206 -0.1801  0.2482  0.2471
20340W        W36149   8.109   5.433  13.966  0.1751 -0.1227  0.2583
20341W        W36150   8.201   9.904  14.754 -0.1375  0.0152 -0.1561
20342W        W36151  15.087   4.069   4.464 -0.2773 -0.1072 -0.0253
20343W        W36152  15.329  13.122  14.881  0.3671  0.1279  0.2181
20344W        W36153  17.858   6.503  13.813  0.2184 -0.2324  0.0054
20345W        W36154  12.651   2.693   4.143 -0.0526 -0.0730 -0.2770
20346W        W36155   8.965   2.772   2.238  0.0424  0.1001  0.0239
20347W        W36156  13.565   2.086   0.267 -0.1400 -0.2275 -0.0056
20348W        W36157   6.217   1.527   1.851 -0.0737 -0.2355  0.0847
20349W        W36158  13.788  15.227   2.036  0.1312 -0.2308  0.0832
20350W        W36159   5.907   9.836  12.177  0.1041  0.1102 -0.0613
20351W        W36160   5.133  18.354  11.714 -0.2531  0.0176  0.0370
20352W        W36161   0.506  18.304   1.781 -0.3535 -0.1255 -0.1782
20353W        W36162   9.865   6.570   2.773 -0.1368 -0.2014 -0.0255
20354W        W36163   5.878   5.677   1.872  0.0281  0.2595  0.3545
20355W        W36164   0.711   6.054  13.180  0.0420 -0.4608 -0.1857
20356W        W36165  16.470   1.888   2.037 -0.2750  0.2227 -0.1227
20357W        W36166   5.798   1.384   4.991  0.2316 -0.0441 -0.1978
20358W        W36167   2.580   1.989  15.357  0.0109  0.0938  0.0041
20359W        W36168  17.522   9.772  11.600  0.1746 -0.0415  0.1541
20360W        W36169   3.179  15.648   3.164 -0.2268 -0.1011  0.0546
20361W        W36170   4.731   2.951   4.595 -0.1573  0.0290  0.1195
20362W        W36171  10.036   3.652  12.630  0.1401 -0.0467  0.2363
20363W        W36172  10.284   4.559  13.456  0.0746  0.2574 -0.3662
20364W        W36173   2.345  15.851   1.849  0.0872  0.3959 -0.0096
20365W        W36174   5.474   9.257  11.969  0.1537  0.0658  0.1276
20366W        W36175   4.181   0.758  14.885  0.0467 -0.0223 -0.0100
20367W        W36176  10.676   1.721  14.462 -0.4388  0.2128 -0.1000
20368W        W36177   9.248  16.148  11.252  0.2768  0.1784  0.0764
20369W        W36178  15.065   3.206  12.975 -0.1658  0.0300  0.1555
20370W        W36179   4.238  11.033   0.050 -0.1905  0.0010 -0.0921
20371W        W36180  15.426   0.016  12.202  0.4067 -0.2134  0.1378
20372W        W36181   2.108   6.972  11.643 -0.2092 -0.1792 -0.3079
20373W        W36182   4.635  11.515  13.507 -0.1541  0.4281  0.2020
20374W        W36183   0.209   0.451  11.230  0.0411 -0.1015 -0.2292
20375W        W36184   9.766  12.878   9.295 -0.1696 -0.3464  0.1621
20376W        W36185   6.541   4.629  12.616  0.0829 -0.2942 -0.0077
20377W        W36186  13.452  15.034  14.185 -0.3246 -0.4745 -0.1490
20378W        W36187   7.017   6.629  12.480  0.0607  0.2113 -0.1344
20379W        W36188   2.101  13.776   3.517 -0.2595 -0.1025 -0.0459
20380W        W36189  17.057  16.980   0.866 -0.1174  0.0198  0.1853
20381W        W36190   0.222  18.201  13.112  0.0504  0.0486 -0.2026
20382W        W36191   4.840  11.073  12.635 -0.0021 -0.0600  0.1674
20383W        W36192  16.531   5.126  14.100  0.2821 -0.3212 -0.1618
20384W        W36193  16.092  11.076   3.340  0.0255  0.1522  0.0491
20385W        W36194   5.834  13.110  15.343  0.3054 -0.2367 -0.1260
20386W        W36195   7.916   2.470  11.349  0.1564 -0.0390 -0.2125
20387W        W36196   7.240   1.089   2.549 -0.2681  0.2417  0.1659
20388W        W36197   5.400  16.436  15.225 -0.1181 -0.0071 -0.3939
20389W        W36198  13.298   4.981   1.269  0.1569 -0.0195  0.2080
20390W        W36199  17.801  14.286  10.370  0.0079 -0.1011 -0.0519
20391W        W36200   5.280  17.914  11.504 -0.2585  0.0282  0.0228
20392W        W36201   9.115   1.018   3.119 -0.0572  0.0250  0.3663
20393W        W36202  16.662  12.419  14.232 -0.1366  0.1921  0.1672
20394W        W36203  16.232  14.230   1.819 -0.2352 -0.1444 -0.0194
20395W        W36204   6.979  13.814   2.425  0.2269  0.3917 -0.2271
20396W        W36205   5.333  18.472  14.962  0.3236  0.2191 -0.0285
20397W        W36206  13.573  12.098  15.510 -0.2106  0.0146  0.0480
20398W        W36207  15.916  17.565   2.936  0.1165  0.2287  0.1181
20399W        W36208   5.029   6.020   3.786 -0.0720 -0.0791 -0.1411
20400W        W36209  11.115   4.267   2.702 -0.2098  0.2581 -0.1217
20401W        W36210   1.847  16.218  15.310 -0.3090 -0.1841  0.3933
20402W        W36211   0.922  12.958  11.147 -0.2152 -0.0407 -0.2250
20403W        W36212   3.837  10.923  11.986 -0.1369 -0.0820 -0.0471
20404W        W36213   0.200  11.035  11.622 -0.0364 -0.4084 -0.0901
20405W        W36214   8.305  15.833  13.597 -0.3484 -0.1858 -0.1729
20406W        W36215   7.584   2.464  11.736  0.4293  0.1544  0.0557
20407W        W36216   9.523  16.572  13.789  0.2405  0.4416 -0.2247
20408W        W36217  12.288   2.710   5.621  0.1662  0.0050 -0.0035
20409W        W36218   6.013   6.491   0.577  0.3102 -0.0769 -0.1503
20410W        W36219  16.912  10.487   4.222 -0.1018 -0.0292 -0.3065
20411W        W36220   5.782  18.358  11.115  0.3235  0.4272 -0.0082
20412W        W36221   2.575  10.723   1.130  0.0420  0.2460 -0.3866
20413W        W36222  14.123  11.061   4.754  0.2004  0.4873  0.0127
20414W        W36223   4.789   1.752  13.772  0.0560  0.0684 -0.0242
20415W        W36224   8.746   9.235   2.760  0.1948  0.2692 -0.0234
20416W        W36225   8.806  11.034   3.716 -0.1859 -0.0898  0.1267
20417W        W36226  13.853   8.053   4.067 -0.0107  0.2208  0.0429
20418W        W36227  10.160   6.780   3.975  0.3451  0.2304  0.1680
20419W        W36228  12.568  13.028  14.883  0.1196 -0.0448 -0.1136
20420W        W36229   1.745   3.766  11.511 -0.1420  0.0449  0.2523
20421W        W36230   3.082   2.979  14.938 -0.0654 -0.2205 -0.0236
20422W        W36231  14.603  14.329  14.273 -0.1672 -0.0202 -0.0710
20423W        W36232   5.725   0.162   1.721 -0.2591  0.0067 -0.2846
20424W        W36233  17.343   8.530   4.811  0.0333  0.0017  0.0465
20425W        W36234   6.556   6.437  15.365 -0.1685 -0.3983 -0.3521
20426W        W36235  11.763   0.043   5.944  0.3244  0.0570  0.1650
20427W        W36236  16.412   4.883   6.202  0.1563 -0.2367  0.3030
20428W        W36237   8.622  10.866  13.836  0.0611  0.2462  0.3194
20429W        W36238  10.092  15.196   0.899  0.0637 -0.0503 -0.0869
20430W        W36239   1.704  14.890  11.347  0.1766  0.0302 -0.2014
20431W        W36240   1.256   3.756  14.236  0.0492 -0.1633  0.1471
20432W        W36241  14.727  16.397  11.424  0.1757 -0.1905  0.0183
20433W        W36242   0.599   1.702   0.586 -0.1730  0.0398  0.0162
20434W        W36243  11.669   6.518  13.836 -0.4158  0.2024 -0.1409
20435W        W36244  17.847   8.518   5.037 -0.0375  0.0208 -0.2831
20436W        W36245   5.863  11.116  10.929 -0.0545  0.2340  0.0814
20437W        W36246   6.353   1.547  11.765  0.0297 -0.0057 -0.2026
20438W        W36247  18.624   5.523  12.310  0.0248 -0.1170  0.0031
20439W        W36248  12.876   6.796   0.855  0.1293  0.0268 -0.1076
20440W        W36249   8.414  12.630  15.423 -0.3119 -0.0904 -0.1489
20441W        W36250   6.623  15.753  12.334  0.2952  0.2182 -0.0507
20442W        W36251   1.269  11.338  13.766  0.3786 -0.3155  0.2529
20443W        W36252  17.804  14.537   4.434  0.1320 -0.0097  0.1074
20444W        W36253   4.865   9.572   2.713 -0.0169 -0.0989  0.3209
20445W        W36254  14.642  12.323   4.255  0.3012 -0.1313 -0.2176
20446W        W36255   5.789   0.853   4.743  0.1791 -0.0548  0.4248
20447W        W36256  14.754  13.505  12.955 -0.0106  0.0201 -0.1268
20448W        W36257  18.340  12.229  12.362 -0.1437 -0.1363  0.1406
20449W        W36258  17.942  10.001   1.918  0.0135  0.2016 -0.0794
20450W        W36259   3.370  16.203  12.091  0.1570  0.3492  0.2402
20451W        W36260  12.366   0.050   0.980  0.0487  0.1186 -0.0732
20452W        W36261   3.054   1.106   3.777  0.0292  0.0139 -0.0120
20453W        W36262  17.127   8.239  14.330  0.1866  0.2619 -0.0799
20454W        W36263   2.360  11.773   9.595  0.1770 -0.1641  0.2552
20455W        W36264   2.247   9.324   0.828  0.2982  0.1702 -0.2614
20456W        W36265  13.269   4.632   0.195  0.1300  0.0568  0.0816
20457W        W36266  14.330  18.736  15.244 -0.0140  0.0541  0.2724
20458W        W36267   0.604  16.090  13.397 -0.5210 -0.2357  0.3534
20459W        W36268  15.793  18.583   4.530  0.0007 -0.3514 -0.1491
20460W        W36269   4.461   9.699   1.139 -0.3239  0.0808  0.1146
20461W        W36270  16.063   0.738   1.503  0.4458  0.2334  0.1917
20462W        W36271   2.135  18.363   3.148 -0.0718 -0.0998  0.3681
20463W        W36272   3.232  12.465   3.064 -0.0496  0.0529 -0.0313
20464W        W36273   0.349   0.268   3.039 -0.5082 -0.1239  0.2007
20465W        W36274   7.605   0.953  11.588 -0.0026  0.0882 -0.2115
20466W        W36275  17.020  18.682  13.169 -0.1752  0.3570  0.3289
20467W        W36276   2.571  18.267  15.014  0.0235  0.1053 -0.1127
20468W        W36277   9.006  16.139  14.498  0.0894 -0.2845 -0.1721
20469W        W36278   8.345   1.889  14.099 -0.0907  0.2736  0.3408
20470W        W36279  11.185   2.453   4.712 -0.0876  0.1079  0.1703
20471W        W36280  13.596  11.198  12.107  0.3021 -0.0743  0.1547
20472W        W36281   7.608   6.327  14.894 -0.3321  0.2418  0.1290
20473W        W36282   9.689  15.702  14.798  0.0494  0.1842  0.0898
20474W        W36283   4.053   0.006  10.945  0.1082  0.0750  0.0439
20475W        W36284   0.923  16.291  13.701  0.0061 -0.2432  0.0275
20476W        W36285  11.807   4.159   2.006  0.1789 -0.1129 -0.0970
20477W        W36286   3.990  14.563  14.360 -0.2971  0.2913 -0.1740
20478W        W36287  16.838  11.543   0.330  0.0735 -0.1408  0.0739
20479W        W36288  10.385  10.962  12.552  0.0015 -0.2110  0.1707
20480W        W36289   2.969   5.447  14.690  0.0669 -0.1040  0.3312
20481W        W36290  11.909   8.935   1.584  0.0658  0.2074 -0.0468
20482W        W36291   8.832  16.441  12.526  0.2192  0.1679 -0.3574
20483W        W36292  18.087   3.170  14.091  0.1304  0.0013 -0.1456
20484W        W36293  16.984  18.190   0.786 -0.2240  0.1640 -0.2050
20485W        W36294  17.028  13.317  10.938  0.0808 -0.2468  0.2278
20486W        W36295  10.275   7.145  14.422  0.1052  0.0676 -0.0578
20487W        W36296  11.201   9.811  12.487 -0.2071  0.1435 -0.1992
20488W        W36297  11.292   6.088  14.330  0.0585 -0.2479  0.0460
20489W        W36298  13.107  15.220   3.840  0.5177  0.1054  0.1813
20490W        W36299  13.933  10.957   3.029  0.0823  0.4579 -0.0526
20491W        W36300  11.673  15.162   0.471 -0.0694 -0.1323 -0.3080
20492W        W36301   8.970  14.927   3.840  0.0645 -0.3912 -0.3975
20493W        W36302   5.167  14.257   2.248  0.0722 -0.4038  0.0086
20494W        W36303   5.289  15.665   2.480  0.1952 -0.1564  0.1360
20495W        W36304   7.703   8.120   2.080 -0.1611  0.1934 -0.0485
20496W        W36305   9.279   8.383  11.758  0.1680  0.0880 -0.2447
20497W        W36306   3.353   7.405  13.962 -0.2673  0.0458  0.2162
20498W        W36307  17.930  14.224  14.456 -0.0037 -0.0958 -0.3551
20499W        W36308   8.752  14.781   0.147  0.2224 -0.2833 -0.1409
20500W        W36309  10.347  17.363  15.537 -0.2490  0.1113  0.0545
20501W        W36310  16.424  12.366  14.998 -0.1121  0.0386 -0.0640
20502W        W36311   8.574   8.006   2.253  0.2003 -0.2517 -0.1265
20503W        W36312   5.859  11.485   4.382 -0.0404  0.0349  0.0614
20504W        W36313   5.715  16.724   2.905 -0.2130  0.3066 -0.0123
20505W        W36314  14.558  17.032  12.217  0.0100  0.0662 -0.1792
20506W        W36315   1.050   5.741   3.974 -0.2055 -0.0173  0.1676
20507W        W36316   3.630   9.502  12.555 -0.0053  0.0124 -0.1542
20508W        W36317   6.447  11.936   1.078  0.0061  0.1290 -0.1753
20509W        W36318   9.790  11.225   1.147 -0.1129  0.0571 -0.2193
20510W        W36319  16.870   1.247   4.826 -0.2764  0.1105 -0.2510
20511W        W36320  13.524   6.846  10.419 -0.2957 -0.0682  0.0018
20512W        W36321  16.660  12.116   3.673  0.0841 -0.2853  0.2853
20513W        W36322   4.880  13.441  15.072 -0.0279  0.0764  0.0468
20514W        W36323   7.724   9.433  13.045 -0.2558  0.3419  0.1228
20515W        W36324  15.735  10.236  10.997  0.1692  0.2779 -0.5115
20516W        W36325  13.253  17.998   5.016  0.2637  0.1595 -0.2597
20517W        W36326  12.354  14.590  11.295  0.1442 -0.2813 -0.2309
20518W        W36327  17.420   7.414  15.331  0.0613 -0.2757 -0.1156
20519W        W36328  11.396  14.204   4.854  0.1584 -0.0059  0.1673
20520W        W36329  17.644   9.431  14.502 -0.1109 -0.1503  0.0172
20521W        W36330   5.839   9.327   3.641 -0.0150 -0.0381 -0.1183
20522W        W36331   7.875  17.632   3.548 -0.1491 -0.0472  0.0877
20523W        W36332   4.766  17.726   3.074 -0.1425  0.0390 -0.2103
20524W        W36333  15.020   6.002  12.519 -0.3988 -0.3398 -0.0797
20525W        W36334   2.272  11.298  12.671 -0.2111  0.0387  0.0378
20526W        W36335  12.300  12.722  14.534 -0.3814  0.0720  0.0195
20527W        W36336   1.544   8.978  15.111 -0.0761 -0.0224  0.0423
20528W        W36337   8.611  10.214   2.647 -0.3887 -0.1127 -0.0008
20529W        W36338  14.343   8.298  11.912  0.0915  0.0000 -0.3357
20530W        W36339  15.156   7.360   2.272  0.0989 -0.3475  0.3406
20531W        W36340   4.468  14.431  15.263  0.0054  0.1047  0.0388
20532W        W36341   9.427   8.723  10.442  0.0731  0.0256  0.0261
20533W        W36342  10.713   1.567  14.937  0.0133  0.2510  0.2377
20534W        W36343   6.897   4.707   3.700  0.0063 -0.0258 -0.0523
20535W        W36344   1.437   2.172   1.890  0.0084 -0.4349 -0.0660
20536W        W36345   8.329  12.585   0.402  0.0917  0.0022 -0.0216
20537W        W36346  17.988  18.024   5.291 -0.1911 -0.1339  0.1801
20538W        W36347   1.182  13.250   2.174  0.0132  0.0625  0.0261
20539W        W36348  15.189  13.963   3.817 -0.0102  0.2787  0.1155
20540W        W36349  12.846   7.001   4.556  0.1664  0.0119 -0.1800
20541W        W36350   3.930  15.285   1.697  0.3282  0.1098  0.0715
20542W        W36351  15.347   8.558   2.375  0.0839  0.0150  0.0576
20543W        W36352  12.716   7.626   4.388  0.3951 -0.0230 -0.4457
20544W        W36353  10.927   0.603  14.861  0.1768  0.0798  0.0269
20545W        W36354   5.597   7.626  10.509  0.1843 -0.0690 -0.0946
20546W        W36355   4.674   2.855  15.461  0.0427 -0.0771 -0.0343
20547W        W36356  14.275   6.403   1.319  0.0946 -0.2942 -0.2892
20548W        W36357  11.977   5.645  10.787  0.1044  0.0719 -0.3774
20549W        W36358   3.893   0.409   2.649  0.1506  0.1132  0.2318
20550W        W36359   3.407  10.095   1.818  0.0471  0.2296 -0.0496
20551W        W36360  13.989  10.341   3.975  0.0457 -0.1366 -0.0958
20552W        W36361  17.937   6.115  12.461  0.1431 -0.2709 -0.0783
20553W        W36362  13.614  10.373   2.493 -0.0780  0.0397 -0.1015
20554W        W36363  16.045   9.428  11.017  0.2091 -0.1056 -0.1353
20555W        W36364  11.880   9.164   4.412  0.2206  0.3020 -0.1360
20556W        W36365   1.696   9.472   4.371 -0.1682 -0.0918 -0.0380
20557W        W36366   1.701  13.513  13.844 -0.0863  0.0184 -0.2672
20558W        W36367  10.403   0.431  11.299 -0.0195  0.0426 -0.0170
20559W        W36368   7.454   6.506   2.827  0.1166 -0.1442 -0.1053
20560W        W36369  17.225   7.395   4.962 -0.0576 -0.1353 -0.3704
20561W        W36370   0.221   3.741   5.081  0.1215 -0.0680  0.1044
20562W        W36371  14.714  10.997  14.197 -0.2075 -0.2515  0.4504
20563W        W36372   1.503   0.950   4.544  0.3561  0.1978 -0.0104
20564W        W36373   2.886   4.106  12.480  0.3149  0.0913  0.0543
20565W        W36374   1.442   2.155  11.829 -0.1709  0.0512 -0.2382
20566W        W36375  12.485  18.197   1.596 -0.3873 -0.0976  0.0433
20567W        W36376   1.819  15.108   4.609  0.1560  0.1659  0.1873
20568W        W36377   4.004  15.133   1.214  0.3521  0.1960 -0.2421
20569W        W36378   2.127  16.660   5.588 -0.0524 -0.0069 -0.0348
20570W        W36379  17.811   4.003  15.335 -0.1100 -0.5899 -0.0530
20571W        W36380   9.615  16.581   1.337 -0.1864 -0.0489  0.2844
20572W        W36381  15.281   2.217   0.403  0.1289 -0.1647  0.0216
20573W        W36382   8.492   3.701  13.033  0.0583 -0.0799 -0.2514
20574W        W36383  13.570  14.855   1.740  0.0760  0.1218 -0.0853
20575W        W36384  18.195   1.637  13.033  0.0931 -0.3907 -0.0677
20576W        W36385  17.415  15.115  12.631 -0.2565  0.0326  0.0177
20577W        W36386  16.409   9.741  11.111 -0.0632  0.1408 -0.1386
20578W        W36387  15.553   5.893   1.061 -0.2809  0.0149 -0.1464
20579W        W36388  17.180   6.076   0.452  0.1394  0.2139  0.0466
20580W        W36389   2.483  15.503   5.659 -0.0410 -0.0436 -0.1874
20581W        W36390   4.134   2.272   0.533  0.1055  0.0131 -0.1271
20582W        W36391   0.905   5.086  11.891 -0.0459 -0.1098  0.2686
20583W        W36392   8.682   4.022  12.144  0.0325  0.2974  0.1827
20584W        W36393   0.974  13.260  14.710 -0.0628 -0.0531 -0.0659
20585W        W36394  15.199   8.517   5.111  0.3316 -0.1501 -0.1702
20586W        W36395  18.467   9.423  13.669  0.0798 -0.1848 -0.1322
20587W        W36396   8.696   5.355  10.939 -0.3305 -0.1296 -0.0891
20588W        W36397  11.669   1.676  10.991 -0.1217  0.1705  0.4228
20589W        W36398  10.223   8.336   1.621 -0.2958 -0.1436 -0.0144
20590W        W36399  12.026  10.327  11.368  0.1682  0.0358 -0.4437
20591W        W36400   0.897   9.309   5.204  0.1011  0.3052 -0.1745
20592W        W36401   3.092   1.731   2.897 -0.1649  0.0653 -0.3043
20593W        W36402   8.814   0.703  13.435 -0.0180 -0.0775 -0.2758
20594W        W36403  16.759   1.207  14.079 -0.1699 -0.0298  0.1309
20595W        W36404  12.275   5.553   3.568 -0.5043  0.1646 -0.1372
20596W        W36405  16.554  17.792   0.711 -0.1679  0.1664 -0.2209
20597W        W36406  10.475   4.602  14.767  0.0614 -0.1062 -0.1635
20598W        W36407   1.003   9.156  12.149 -0.2152  0.3525 -0.0206
20599W        W36408   1.670  12.584   1.039 -0.2540 -0.2294  0.0851
20600W        W36409  11.001   5.529   0.535  0.0064 -0.1822  0.0392
20601W        W36410  15.576  18.497  13.026  0.1114 -0.1975 -0.3489
20602W        W36411   1.655  16.658   0.485  0.0288 -0.0893 -0.1595
20603W        W36412   7.673   0.137  15.550  0.0898  0.4203 -0.0831
20604W        W36413   1.391   4.882   5.031 -0.2286  0.0352 -0.1767
20605W        W36414   2.158  15.886  14.974 -0.1275 -0.1791 -0.1823
20606W        W36415   9.073   6.159  13.756 -0.0019 -0.0951  0.2322
20607W        W36416   3.718   8.718  14.394  0.0157  0.2580  0.3199
20608W        W36417   8.822   6.276   2.671  0.0689  0.0769 -0.1599
20609W        W36418   4.909   5.362   0.943  0.0217 -0.1519 -0.1902
20610W        W36419  11.319   6.049   2.311  0.0089 -0.3957  0.0103
20611W        W36420   8.821   7.515   2.396 -0.2271 -0.0816 -0.0230
20612W        W36421   2.103  17.421  15.144 -0.1811 -0.0041  0.1693
20613W        W36422  11.160   6.336   5.294  0.1451 -0.2372  0.1344
20614W        W36423   4.833  11.784  13.134  0.3201 -0.0499 -0.1065
20615W        W36424   6.281   4.186   1.043 -0.0838 -0.1500  0.2556
20616W        W36425   9.402   1.839   0.077  0.2203  0.1502 -0.1461
20617W        W36426  15.241  11.444   4.116 -0.0303 -0.0728 -0.0997
20618W        W36427   1.700  12.770  13.589 -0.1007  0.0949 -0.1719
20619W        W36428   8.641   9.510  15.277 -0.3088  0.5007  0.1688
20620W        W36429  10.592  15.156   5.269 -0.1801  0.2035  0.0415
20621W        W36430  16.733   2.817   2.841 -0.0388 -0.0380  0.3050
20622W        W36431   2.449  10.195   1.107  0.0076 -0.3112 -0.1308
20623W        W36432   8.165  12.300  12.907  0.1472  0.2130  0.1303
20624W        W36433   0.516   9.541   0.478 -0.0969  0.2221  0.0209
20625W        W36434   1.774  10.263   5.508 -0.3116  0.4574 -0.0981
20626W        W36435  16.995   4.261  15.285  0.0951 -0.0264 -0.0003
20627W        W36436   4.148   4.106  12.351  0.0040  0.2317 -0.3184
20628W        W36437   1.259   1.958   2.765  0.3318  0.0632 -0.2644
20629W        W36438  14.717   4.764   4.079  0.0029 -0.1908  0.1716
20630W        W36439  14.383  11.214   5.692 -0.1608 -0.1226 -0.2422
20631W        W36440  15.522   0.472  14.836 -0.2573  0.0473  0.1629
20632W        W36441   3.202   2.238   4.620 -0.1293 -0.0383  0.2179
20633W        W36442  11.274   7.038   0.444  0.0321  0.0392  0.0219
20634W        W36443  16.548   8.779  15.541  0.0852  0.1712  0.1233
20635W        W36444   9.203   9.002  13.742  0.0358  0.3050  0.5028
20636W        W36445   8.445   8.178  13.292  0.2004  0.2141 -0.3205
20637W        W36446   4.586   5.710   5.319  0.2330 -0.0632  0.2464
20638W        W36447   9.307  12.937  13.186  0.2984 -0.1837 -0.0986
20639W        W36448  11.360   3.775  14.046 -0.1710 -0.2078  0.0444
20640W        W36449   4.028   2.107  15.075 -0.2099 -0.1731  0.1813
20641W        W36450   7.587   1.984  11.552  0.0167 -0.1092 -0.6047
20642W        W36451  11.438   1.416   4.707 -0.0868 -0.0454  0.1538
20643W        W36452  11.739  17.687   1.219 -0.2122 -0.0033  0.1232
20644W        W36453  10.797  11.154   3.417  0.3389 -0.0170 -0.1886
20645W        W36454   0.738  12.669  14.119  0.0744 -0.0337  0.0878
20646W        W36455   4.721  12.503   3.419  0.0965 -0.2372 -0.2197
20647W        W36456  10.754   1.577   0.788  0.2797 -0.0446  0.2290
20648W        W36457   6.069  12.612  12.497 -0.1036  0.0147  0.1819
20649W        W36458   4.160   4.197   4.933  0.1832 -0.2435 -0.0406
20650W        W36459  17.729  12.605  10.764  0.2788  0.0355 -0.0041
20651W        W36460  11.864   6.781   4.658 -0.1743  0.1503 -0.1046
20652W        W36461  15.153   1.273  12.958 -0.0201 -0.1719 -0.0030
20653W        W36462  13.878  11.278  13.088  0.0590 -0.0258  0.1160
20654W        W36463  18.352   0.250  14.748 -0.0982  0.0242 -0.0231
20655W        W36464   6.386   5.843   5.439  0.2460  0.0962 -0.0319
20656W        W36465  10.779   7.269  14.532 -0.1778 -0.3553 -0.1989
20657W        W36466   2.807  13.076  14.618 -0.1034 -0.0262  0.1229
20658W        W36467   9.321   0.357   3.650  0.1981  0.2698 -0.0302
20659W        W36468   2.908   3.439  14.556  0.0416  0.0109 -0.1132
20660W        W36469   4.933   2.481  13.542  0.2094  0.3781 -0.0919
20661W        W36470   0.097   3.483  14.406  0.1472  0.0906  0.3908
20662W        W36471  14.646  11.207   4.772  0.0060  0.1006 -0.2629
20663W        W36472   2.215   7.587   1.842  0.2263  0.0394  0.1311
20664W        W36473   9.581   4.767   2.360  0.1811 -0.0198  0.2968
20665W        W36474   3.718   9.461  12.023 -0.4974  0.1298 -0.1595
20666W        W36475   9.781   3.380   0.518  0.1545 -0.1748  0.4285
20667W        W36476  10.584  13.445  12.667  0.0785  0.0196 -0.3338
20668W        W36477  17.430  15.252   1.311  0.1645  0.0388 -0.3346
20669W        W36478  11.439  13.441  12.428  0.1856  0.0510 -0.1145
20670W        W36479   2.257   2.795   1.663 -0.0975 -0.0807  0.0877
20671W        W36480   0.015  11.852   2.708  0.2189  0.0166  0.1438
20672W        W36481  14.669   0.642  14.251 -0.0945 -0.2128  0.0451
20673W        W36482  17.627  12.460   0.936  0.1183  0.0073  0.1783
20674W        W36483   0.854   8.044   2.319  0.2270 -0.1564 -0.0866
20675W        W36484  13.445   9.628  12.676 -0.0442 -0.3308 -0.0271
20676W        W36485  15.724  10.618  13.250 -0.1295 -0.0286  0.1664
20677W        W36486   7.546   8.973   0.570 -0.0059 -0.0964  0.1853
20678W        W36487   2.350  13.149  15.491  0.2969  0.0397  0.0711
20679W        W36488  14.675  14.767  15.305  0.1040 -0.2210  0.1833
20680W        W36489   7.544   4.083   4.554  0.3666  0.3193 -0.2227
20681W        W36490  12.571   5.949  13.040 -0.0125  0.0182  0.3428
20682W        W36491   2.060  10.575   2.418  0.2828  0.2762  0.1943
20683W        W36492   6.050   4.198  10.996  0.1943 -0.0183  0.1681
20684W        W36493   0.197   8.094  15.487 -0.3077  0.2810  0.1049
20685W        W36494   5.942   8.320   5.015  0.2745 -0.1309  0.4533
20686W        W36495   2.439  10.937  14.097  0.2044 -0.1129 -0.1101
20687W        W36496   6.684   9.039   0.023  0.0589  0.1622 -0.1688
20688W        W36497  10.579  14.900   4.631  0.2882  0.0818 -0.0811
20689W        W36498   9.051   2.846  11.302 -0.1228 -0.0639 -0.0231
20690W        W36499  17.603  10.265  15.006 -0.2647  0.0271 -0.0772
20691W        W36500  17.591   7.134   1.529  0.0936  0.3064  0.0782
20692W        W36501  14.966  15.480  11.949 -0.0605 -0.3967  0.0730
20693W        W36502   1.950   5.631  13.293  0.1090 -0.0761  0.0562
20694W        W36503   9.341  10.844   4.774 -0.1770 -0.2129  0.4511
20695W        W36504  10.186  11.178  11.599 -0.0883  0.0204  0.1928
20696W        W36505  15.143  13.102  12.357 -0.1766  0.0734 -0.0867
20697W        W36506  18.652   8.767   2.761 -0.3201  0.0334  0.1261
20698W        W36507   0.838  11.602   4.096 -0.2686  0.1658  0.1757
20699W        W36508  14.932   2.859  11.136  0.0570  0.0256 -0.2045
20700W        W36509  17.987   5.063  12.456 -0.0276 -0.2078  0.1156
20701W        W36510   0.457  10.568  11.768  0.3071 -0.1510  0.0123
20702W        W36511  16.470   7.231  14.554 -0.1975  0.1341  0.4403
20703W        W36512   9.103  14.435   0.355  0.0863 -0.3544  0.1743
20704W        W36513  17.790  11.357  13.384  0.2355 -0.1209 -0.0171
20705W        W36514   2.774  15.878  10.271 -0.0891 -0.4292 -0.0476
20706W        W36515   9.735  11.224  11.429 -0.0128 -0.0587 -0.1846
20707W        W36516   1.444  18.019   9.652 -0.0831 -0.1316 -0.0396
20708W        W36517  14.474  11.014  12.237  0.0674 -0.3298  0.0696
20709W        W36518   6.145   9.746   0.084  0.1812 -0.0824  0.1632
20710W        W36519  13.087  13.095   4.024  0.2859  0.0863  0.2152
20711W        W36520  18.255  11.061   5.056  0.3932 -0.1404  0.2347
20712W        W36521   3.135  17.800   1.738  0.3578 -0.1346  0.0612
20713W        W36522   4.273  18.185  15.546 -0.1445  0.0142 -0.3408
20714W        W36523   9.221  13.269   3.054  0.0324  0.3272 -0.1483
20715W        W36524  18.335  15.929  13.176 -0.0829  0.2201  0.0244
20716W        W36525   6.203   4.101   2.851 -0.0775  0.0072  0.2878
20717W        W36526  16.468   7.167  11.815 -0.1222  0.1189 -0.0087
20718W        W36527  17.753  18.719   3.266 -0.0914 -0.2056 -0.0222
20719W        W36528  15.256   5.519  14.945 -0.0654  0.0093 -0.1229
20720W        W36529   1.852  14.095   2.574  0.1376 -0.1629  0.2327
20721W        W36530  14.396   3.852  13.666 -0.3682  0.2648 -0.2835
20722W        W36531  14.267   0.789  13.371  0.1494 -0.0674 -0.1622
20723W        W36532  17.505  12.325   1.730 -0.0675 -0.0520 -0.0719
20724W        W36533   7.666  12.209   5.089  0.2637 -0.1484  0.1560
20725W        W36534   3.212   0.916   0.143 -0.5965  0.3144  0.0218
20726W        W36535  16.811  18.670   4.724  0.3315 -0.0809 -0.2501
20727W        W36536   3.666   1.166   0.679  0.0705 -0.0650 -0.1057
20728W        W36537  13.237  13.720  14.112  0.0536  0.2768  0.1602
20729W        W36538  18.390   3.591   4.255 -0.2279  0.0403 -0.0991
20730W        W36539   1.543  13.082   1.045  0.0919  0.3743  0.4118
20731W        W36540  10.869   9.223   2.698 -0.1499  0.0216 -0.0366
20732W        W36541   3.508  11.813  10.166 -0.1833 -0.0550 -0.1560
20733W        W36542   3.150   6.445  11.641 -0.1740  0.1812 -0.0735
20734W        W36543  12.570   2.851  11.244 -0.0283  0.0749 -0.2880
20735W        W36544   3.797   1.430   1.076 -0.1026 -0.0011 -0.1054
20736W        W36545  11.388  10.332  14.933 -0.0444 -0.0548 -0.1567
20737W        W36546  15.997  12.820   3.231  0.0123 -0.0611  0.2614
20738W        W36547   5.057   7.653   2.805  0.3174  0.1783 -0.2195
20739W        W36548   4.194   1.256  14.692 -0.0162  0.3932 -0.0475
20740W        W36549   9.268  10.135  11.387  0.1676  0.0673 -0.1959
20741W        W36550   8.600   3.541  12.071  0.1402 -0.1352 -0.1611
20742W        W36551   5.044   4.848  14.713  0.0174 -0.0162 -0.0833
20743W        W36552   9.035   6.539   3.992  0.1239 -0.1969  0.0235
20744W        W36553   8.476   4.231   3.779  0.0360  0.1625 -0.0928
20745W        W36554   9.787  16.066  15.149  0.0958  0.0631  0.2495
20746W        W36555  17.122  14.321   6.059  0.1562 -0.2089 -0.0808
20747W        W36556   5.117   6.843  11.459  0.0539  0.0282  0.4066
20748W        W36557   1.345   8.921   5.019  0.2516 -0.2135 -0.1907
20749W        W36558   5.692   9.904  10.725 -0.0788 -0.1901  0.2096
20750W        W36559   2.487   3.707   3.299 -0.0172  0.0082 -0.2852
20751W        W36560  18.348  15.756   1.113  0.0146  0.1937  0.1293
20752W        W36561  18.538   0.993   4.966 -0.0876  0.1366  0.0204
20753W        W36562  14.406  13.059  14.958  0.0243  0.1729 -0.4138
20754W        W36563   4.812  16.210   4.530 -0.1829  0.0456  0.2965
20755W        W36564   6.714   7.807  13.995 -0.1776  0.2088 -0.0324
20756W        W36565   4.868   5.949  14.208 -0.0130  0.1792  0.0670
20757W        W36566  16.850   5.971  13.616  0.1441  0.1848  0.1572
20758W        W36567  15.873  17.833   2.442  0.1075  0.0308  0.0259
20759W        W36568  11.042   4.630  14.824 -0.0066  0.0463 -0.0743
20760W        W36569   2.779   2.316   0.171  0.0915  0.0266 -0.1310
20761W        W36570   1.091   8.230  13.646 -0.1097 -0.0803 -0.1929
20762W        W36571  15.373   8.323  11.610  0.3928 -0.2198 -0.0526
20763W        W36572   2.564  14.579   1.974 -0.1080  0.3629 -0.1618
20764W        W36573   9.441   2.850   2.194  0.0787 -0.0715 -0.0717
20765W        W36574  14.346   8.661   3.560 -0.0747 -0.2303 -0.0826
20766W        W36575  10.312  11.406   3.920  0.2876 -0.1084 -0.2166
20767W        W36576   1.685   5.800  11.714  0.0993 -0.1316  0.4613
20768W        W36577   8.539   8.701   3.431  0.2529  0.2631 -0.1595
20769W        W36578   3.278  12.321   1.615 -0.0614 -0.1370  0.0916
20770W        W36579   4.337   8.309  13.743  0.1363 -0.3887 -0.2159
20771W        W36580   8.007   8.097   1.145 -0.2857  0.0599  0.0764
20772W        W36581  11.123   8.242  12.269  0.0045  0.1606  0.4241
20773W        W36582   0.064  13.765  15.178  0.0711 -0.0255  0.1094
20774W        W36583  12.523   1.490   3.160  0.1558  0.0018  0.3009
20775W        W36584   7.738   7.240  13.369 -0.0513  0.0554  0.2170
20776W        W36585   3.165   3.153   4.551  0.0425 -0.0043  0.3561
20777W        W36586  11.078  14.646   4.623  0.0688 -0.1449  0.2392
20778W        W36587  17.925  15.677  10.669 -0.3168 -0.0711 -0.3770
20779W        W36588   2.063   5.914   0.851 -0.1116  0.0238  0.0927
20780W        W36589  14.867   1.179   2.109 -0.0970 -0.2061  0.1135
20781W        W36590   2.868  11.048   4.320  0.0670  0.4231  0.1685
20782W        W36591  17.997   7.089   2.947 -0.2161 -0.0424 -0.0223
20783W        W36592  13.857   0.318   4.764  0.0796  0.2925  0.1018
20784W        W36593  12.275   8.905  11.969  0.1367  0.2363  0.2781
20785W        W36594   3.066   0.849  13.773  0.0188 -0.0429 -0.1228
20786W        W36595   2.019  13.425  14.784  0.0175  0.1001 -0.0531
20787W        W36596   4.868  12.904   9.217  0.1064  0.0699 -0.0993
20788W        W36597  15.301   0.053  13.910 -0.0763  0.0214  0.0721
20789W        W36598   0.691  17.617   2.882 -0.3197 -0.0009 -0.0224
20790W        W36599  18.152  10.422   3.774 -0.1132  0.2377 -0.6066
20791W        W36600   7.755   9.728   2.951  0.1077  0.0629  0.0365
20792W        W36601   4.242  15.553  12.561  0.3846  0.1803 -0.1558
20793W        W36602   6.075  13.242  10.327  0.1991  0.4375  0.0814
20794W        W36603   7.286  12.305   4.419  0.4519 -0.0403 -0.0181
20795W        W36604   1.771   4.813  14.344 -0.0948  0.0903  0.1880
20796W        W36605   6.647   5.777  13.458 -0.1251 -0.0623 -0.2038
20797W        W36606  10.947   9.490   4.457 -0.2956 -0.0522 -0.3375
20798W        W36607  14.528   1.080   0.297 -0.2883  0.0635  0.2554
20799W        W36608  15.945   3.360  13.828  0.4609  0.0940  0.1524
20800W        W36609  10.472   7.629   3.293  0.0380  0.1544  0.2846
20801W        W36610   4.346  10.819   3.418 -0.2561 -0.0047  0.0575
20802W        W36611   8.003  11.838  13.187  0.0168 -0.0257  0.2808
20803W        W36612  18.210   8.335   1.056  0.1244 -0.0727  0.0636
20804W        W36613   4.286  16.556  14.529 -0.0645  0.1816  0.0910
20805W        W36614  18.564   9.923   1.954 -0.0652  0.0402 -0.0538
20806W        W36615   6.133   5.891   2.770  0.0589  0.0803 -0.1533
20807W        W36616   6.051  11.406   1.615  0.0607  0.2492  0.0936
20808W        W36617   1.968  10.307  12.621  0.2103 -0.0563 -0.2424
20809W        W36618   9.653  10.098  14.620  0.1458 -0.1805 -0.1978
20810W        W36619  17.574   3.564   0.179 -0.1431  0.4505  0.2167
20811W        W36620  10.668   0.840   1.004 -0.0293 -0.1922 -0.1710
20812W        W36621   3.844  11.650   4.907  0.0902  0.0567 -0.1661
20813W        W36622  11.038   3.685   0.630 -0.2784 -0.0411 -0.1031
20814W        W36623  15.663  16.349   3.525  0.0299 -0.0002 -0.0176
20815W        W36624  17.164   9.719   0.784  0.1426 -0.1382 -0.1387
20816W        W36625   6.171  10.192  15.326  0.3560  0.1411 -0.1720
20817W        W36626   8.072  10.871   5.826 -0.0194  0.1074 -0.1098
20818W        W36627  12.813  10.954   2.703  0.0240  0.0545  0.2170
20819W        W36628   4.752   1.202   0.731 -0.1009 -0.0583  0.0317
20820W        W36629   6.060   5.909  11.979  0.2596 -0.0529  0.0178
20821W        W36630   6.161   3.443   2.824  0.0476  0.1779  0.0669
20822W        W36631   4.043  14.203   1.683  0.1325 -0.4374 -0.1307
20823W        W36632   5.769  18.029   4.346 -0.1583  0.1049  0.0310
20824W        W36633   8.764   0.455  10.283  0.2858 -0.2436  0.1767
20825W        W36634   0.435   1.853   4.468  0.1314 -0.3994  0.3651
20826W        W36635  13.774  16.691  12.543 -0.0444  0.4935 -0.3450
20827W        W36636   4.290   4.824   2.882  0.0885  0.0876 -0.5184
20828W        W36637  17.398   3.553   4.923 -0.2655  0.0560 -0.2069
20829W        W36638  13.746  18.160   3.614 -0.2225  0.0824 -0.2707
20830W        W36639   9.026   2.632   3.655 -0.1269 -0.0228  0.1304
20831W        W36640   9.768  11.826   1.726  0.0700 -0.0249  0.0156
20832W        W36641  18.646   1.328  11.526 -0.1745  0.0432  0.0175
20833W        W36642  12.848   0.688   1.651 -0.0797  0.1665  0.0817
20834W        W36643  13.104  16.359   3.767  0.2141  0.1934 -0.1980
20835W        W36644  12.751   2.217   4.488 -0.0075 -0.0774  0.0584
20836W        W36645   8.310  15.269  10.600  0.1951 -0.1154 -0.0264
20837W        W36646   0.504   5.695  14.271 -0.0986  0.1230  0.1282
20838W        W36647   4.931   6.421   4.113 -0.2378  0.0217  0.1357
20839W        W36648   2.159  16.806  12.942  0.2060  0.0465 -0.0379
20840W        W36649  13.405   1.657   5.346  0.0765  0.0153 -0.3925
20841W        W36650  17.575  16.050   4.703  0.0487 -0.0087 -0.0875
20842W        W36651   9.406   1.711  14.753  0.0993 -0.0013 -0.1105
20843W        W36652   5.407   0.890   2.482  0.0392 -0.0093 -0.2784
20844W        W36653   3.735  15.703   3.107 -0.0773  0.0558 -0.2014
20845W        W36654   6.333   4.639  11.706  0.1753  0.1697 -0.1449
20846W        W36655   0.965   3.324  12.883  0.0396 -0.1284 -0.2948
20847W        W36656   3.012  12.677  12.238 -0.2399 -0.2122 -0.1195
20848W        W36657   1.970   9.478  10.891  0.2165 -0.1381  0.2900
20849W        W36658   9.431  14.244   1.248  0.1124  0.3068  0.3611
20850W        W36659   8.087  15.563   3.807  0.0335 -0.1258 -0.1660
20851W        W36660   2.348   5.332  10.570  0.2239  0.2411  0.0429
20852W        W36661   4.654   7.171  11.993  0.1468  0.0486 -0.2305
20853W        W36662  17.557   1.623   1.704  0.1198  0.1149 -0.0467
20854W        W36663   1.874  13.187  12.499 -0.0505 -0.1219  0.1387
20855W        W36664  17.871  17.897   1.816 -0.3830  0.1736  0.0997
20856W        W36665   2.552  11.267   1.968 -0.0993  0.1107  0.0599
20857W        W36666  10.441  13.160  14.384 -0.1099  0.1211 -0.1208
20858W        W36667   0.229   7.041  14.191 -0.0043  0.1870 -0.3657
20859W        W36668   2.208  10.282  11.133  0.0350 -0.1986  0.3807
20860W        W36669   5.036  16.118  13.691 -0.2949  0.2111 -0.1918
20861W        W36670  14.010  12.279  15.212 -0.2707 -0.2088 -0.3734
20862W        W36671  16.214   3.939  14.354 -0.3588 -0.2576 -0.1218
20863W        W36672  15.592   3.811  11.088  0.0604  0.2613  0.0114
20864W        W36673  12.335   0.905   5.060 -0.0018  0.0723  0.0747
20865W        W36674   5.124  12.731   4.904  0.1618  0.1799  0.3203
20866W        W36675  16.812   1.168  15.330  0.1332 -0.2919 -0.2838
20867W        W36676   5.493  17.357   3.000 -0.2107 -0.5032  0.1165
20868W        W36677  10.012  11.559   4.318  0.0875 -0.2307 -0.1139
20869W        W36678   8.364   5.427   0.097  0.0584  0.0784 -0.1584
20870W        W36679   5.667  11.244   3.146  0.1876  0.0530  0.0292
20871W        W36680  14.673   3.006  13.905 -0.1973  0.0589  0.0988
20872W        W36681  13.808  13.913  11.273  0.3988  0.0500 -0.5516
20873W        W36682  14.599  18.185   1.414 -0.0122 -0.0256  0.0015
20874W        W36683  10.761   5.748  12.192  0.1925 -0.2109  0.0665
20875W        W36684  18.371   2.804   3.366  0.1970  0.1963  0.0941
20876W        W36685   7.599  17.918   4.553  0.0430 -0.1103 -0.1770
20877W        W36686  11.472   4.399   4.593  0.1386  0.0323  0.3158
20878W        W36687   3.306   1.646   1.061  0.4420  0.0718 -0.0480
20879W        W36688  14.548  15.479  11.647  0.6610 -0.3471 -0.1233
20880W        W36689   3.191   7.370   2.113  0.2238 -0.0416  0.0037
20881W        W36690   9.049   3.777   1.179  0.2581 -0.2026  0.1649
20882W        W36691  15.767   4.659   0.765  0.2476  0.1066  0.0044
20883W        W36692   7.298  10.956   2.773 -0.0415 -0.3363  0.5106
20884W        W36693   6.747   9.953   2.100  0.0829  0.1597  0.1755
20885W        W36694   9.802   7.933  11.307 -0.0235  0.2447  0.1635
20886W        W36695   9.871   2.985  14.076  0.0224 -0.2549  0.0696
20887W        W36696   1.482  18.097   3.149 -0.2183  0.2531  0.2527
20888W        W36697  11.644   9.836   1.074 -0.0617  0.3010 -0.2579
20889W        W36698   5.752   1.180  12.357 -0.3403 -0.2506 -0.1187
20890W        W36699   6.007  18.657  13.054  0.0249 -0.1015  0.1930
20891W        W36700   6.756  13.827   1.515 -0.0704  0.2168  0.0222
20892W        W36701   6.482  14.888  11.829 -0.1479 -0.2346 -0.0938
20893W        W36702   3.566  17.046  13.166 -0.1091  0.3949  0.1771
20894W        W36703  18.487   9.516  11.735 -0.1528  0.0048 -0.1409
20895W        W36704   1.466   7.199  12.874 -0.1750 -0.0030  0.2487
20896W        W36705   6.244   2.856   2.378 -0.0360  0.1425 -0.2988
20897W        W36706   1.088   8.632   0.632 -0.1421 -0.1366 -0.2195
20898W        W36707   3.510  18.399   1.036 -0.1309  0.1887 -0.0709
20899W        W36708   2.521  12.838   1.402  0.0373  0.0726 -0.0509
20900W        W36709  11.030  14.353  13.394  0.1242 -0.0203  0.0627
20901W        W36710   6.485   1.850   4.651 -0.1363 -0.0377  0.0949
20902W        W36711  17.133  14.861   3.743 -0.3606 -0.1392 -0.1686
20903W        W36712  16.317   9.363  12.732 -0.1908  0.0848  0.2314
20904W        W36713   7.933  13.726  11.998 -0.1140 -0.0721 -0.2035
20905W        W36714   2.259  10.616  13.364  0.0455  0.5278 -0.2407
20906W        W36715  17.044  11.228   1.197 -0.0778 -0.0480 -0.1371
20907W        W36716   9.304  12.891   3.537  0.1191 -0.2947 -0.3215
20908W        W36717   2.898  15.368   2.628 -0.1505  0.1351  0.1864
20909W        W36718   2.742   1.788  11.562  0.0749  0.0438  0.1688
20910W        W36719   3.628   4.830   3.837 -0.0753  0.1280 -0.1613
20911W        W36720   8.910  10.440   0.169 -0.3842 -0.0644 -0.0826
20912W        W36721  13.728   5.800  13.918  0.1039 -0.1302  0.1375
20913W        W36722   8.324  16.183   1.663  0.0572  0.0450  0.1744
20914W        W36723   0.119   3.090  12.414  0.1083  0.0618  0.1586
20915W        W36724   2.760   4.090   0.995 -0.0987 -0.0576 -0.0598
20916W        W36725   3.919  12.769   3.691  0.1211  0.0118 -0.0158
20917W        W36726   3.691  12.717   3.157 -0.0761  0.0628 -0.2049
20918W        W36727   9.265  15.903   2.984  0.2659 -0.0680 -0.2588
20919W        W36728  13.874  18.240   5.725  0.0774  0.0445 -0.0764
20920W        W36729  18.554  17.211   2.899 -0.2744 -0.3194 -0.4452
20921W        W36730   0.663   5.280   4.496  0.2836  0.2582  0.2743
20922W        W36731  12.510   0.528   3.061 -0.0100 -0.0280 -0.0236
20923W        W36732   0.447   5.835   0.116  0.2480 -0.0151 -0.0025
20924W        W36733   2.300  11.449   4.267  0.1389 -0.0039  0.0946
20925W        W36734   5.395  15.860   1.966 -0.1659 -0.0812 -0.0975
20926W        W36735  14.868  10.477   1.350 -0.0293  0.5206 -0.0103
20927W        W36736   7.116  14.126   1.058 -0.3155 -0.0915  0.2556
20928W        W36737   4.410  10.051   1.928  0.1371 -0.2141  0.0689
20929W        W36738   2.471   4.262  15.029  0.0618  0.1203  0.1119
20930W        W36739  15.100   7.055  14.103 -0.1923  0.0852 -0.0284
20931W        W36740   0.768   9.420  15.052 -0.2225  0.1480  0.2896
20932W        W36741   0.656   1.353  11.212  0.1413 -0.1423 -0.0635
20933W        W36742  18.491  16.034   4.613 -0.1529  0.1653 -0.1015
20934W        W36743  12.892  10.797   5.290 -0.0882  0.0372 -0.2267
20935W        W36744   3.364  12.665   4.918  0.2889 -0.0280  0.2186
20936W        W36745   5.843  12.217   5.154  0.0360 -0.0524 -0.1906
20937W        W36746  17.996   6.599   2.707 -0.3077 -0.0102  0.0356
20938W        W36747   2.174   8.647   0.081  0.1761 -0.2910 -0.3080
20939W        W36748   6.563   4.413   4.383  0.1574  0.0321 -0.3418
20940W        W36749  14.637   5.610  12.738  0.1591 -0.0642 -0.3571
20941W        W36750  15.678   8.204   2.398 -0.1460  0.0740 -0.1227
20942W        W36751   5.658  13.471  13.922 -0.0370 -0.1049 -0.0480
20943W        W36752   0.680  15.100  11.253  0.1697 -0.1819 -0.0755
20944W        W36753  11.098   8.981   4.727 -0.0284  0.0669 -0.0889
20945W        W36754   7.779   6.187   4.293 -0.2601  0.3186 -0.2174
20946W        W36755  14.222  11.907   2.166 -0.0128  0.3151 -0.2138
20947W        W36756   4.200   5.807   2.658 -0.2820  0.1357  0.0853
20948W        W36757  10.477   4.586   2.135  0.1996 -0.2340  0.3007
20949W        W36758   9.872  16.876  13.962 -0.1846 -0.0685 -0.1359
20950W        W36759   0.102   6.897  13.094 -0.2270  0.0161  0.1133
20951W        W36760  10.406   7.431  10.427  0.1469 -0.0320 -0.0111
20952W        W36761   2.907   4.965  14.411  0.1267  0.0804 -0.2363
20953W        W36762   5.212  18.060  12.522 -0.1329  0.1249 -0.2182
20954W        W36763  12.160  10.331   4.478 -0.0057  0.2578 -0.0262
20955W        W36764   7.583  17.187  12.050  0.2258  0.0293  0.1792
20956W        W36765   8.490   5.744  15.274  0.3062  0.0603 -0.0972
20957W        W36766  15.910  12.535   2.676 -0.1691  0.0368 -0.0200
20958W        W36767   5.162  11.342   3.620 -0.1018 -0.0225 -0.4004
20959W        W36768   6.647  15.957  14.204  0.0748 -0.2033  0.1955
20960W        W36769  13.641   4.185   3.050 -0.0488 -0.0597  0.0666
20961W        W36770   1.832   3.713   1.598  0.1677  0.1275  0.1580
20962W        W36771  15.551  13.873   4.612 -0.2039 -0.0645  0.0295
20963W        W36772   7.981  14.230   3.524 -0.0542  0.0557 -0.5125
20964W        W36773  14.730   5.006  15.472 -0.0543 -0.2488 -0.1959
20965W        W36774  10.758  14.938   2.130  0.0396 -0.3271  0.4496
20966W        W36775   6.506  11.711   1.765  0.0767 -0.1025  0.0611
20967W        W36776  14.044   1.149   3.623 -0.2334 -0.4477  0.1664
20968W        W36777  14.762  15.245   4.713 -0.1324  0.0289  0.0176
20969W        W36778   1.726  10.204   3.091 -0.0353 -0.0640  0.0473
20970W        W36779   0.881  15.053  12.200 -0.2045 -0.0134 -0.1340
20971W        W36780   3.345  15.268  15.117 -0.1282 -0.2447 -0.0191
20972W        W36781   8.286  12.278  11.721 -0.4120 -0.0877  0.1743
20973W        W36782  13.680  13.540   1.091  0.2188  0.1615  0.0856
20974W        W36783   0.688  13.478  13.738  0.0214 -0.1858 -0.0090
20975W        W36784  13.530  10.228   0.242 -0.0275 -0.1396 -0.1793
20976W        W36785  11.962  18.298  15.160 -0.4050 -0.1467  0.0927
20977W        W36786   9.363  11.165  11.865 -0.3594 -0.0041  0.1305
20978W        W36787   7.426  11.262   5.025  0.2525  0.1773 -0.0316
20979W        W36788  11.675  11.779  15.084  0.2246  0.0001 -0.1183
20980W        W36789  16.469  16.102   5.021  0.2843  0.2651  0.0523
20981W        W36790  17.114   4.181   0.749 -0.0671  0.3516 -0.1051
20982W        W36791  14.005   4.991  14.457  0.2104 -0.1050 -0.1591
20983W        W36792  15.781   0.570   0.273 -0.2816  0.3075  0.2486
20984W        W36793  11.363   6.526  12.991 -0.2898 -0.1049 -0.1330
20985W        W36794   2.992   2.671   4.434  0.0805  0.3780 -0.1168
20986W        W36795   9.390  16.153   3.609 -0.1203 -0.0658 -0.0177
20987W        W36796  18.671  15.253   1.814  0.0163 -0.1096  0.2016
20988W        W36797   7.847   1.617  15.382 -0.1214  0.2594  0.1272
20989W        W36798   9.318  11.097  12.391  0.0658  0.1367 -0.1018
20990W        W36799  15.483  12.414  10.557  0.2559  0.0027  0.0035
20991W        W36800   8.024   2.884  14.007  0.0831  0.1284 -0.1765
20992W        W36801  11.522   5.688  11.454 -0.0647  0.2749  0.0116
20993W        W36802  14.159   5.553   4.460  0.0133 -0.1440  0.0739
20994W        W36803   5.744   7.480   1.654  0.3450  0.1967 -0.0396
20995W        W36804  17.412   5.080   3.893  0.0643  0.0526  0.1557
20996W        W36805   7.508   4.168   3.160  0.0990 -0.0906 -0.0051
20997W        W36806   7.491  10.048   0.190  0.0469  0.1381 -0.0336
20998W        W36807  16.935   5.324  13.639 -0.1246  0.0902  0.3235
20999W        W36808   9.190  11.404   1.908 -0.2067  0.1676 -0.3265
21000W        W36809   9.396   9.463  13.673 -0.0971  0.2620  0.0911
21001W        W36810  16.571   7.052   4.444 -0.2041  0.5895  0.2390
21002W        W36811   6.215   6.715  15.105 -0.1247 -0.1373 -0.2971
21003W        W36812   1.889  10.718   2.934 -0.2291 -0.0172  0.1472
21004W        W36813  10.550   3.294  12.972 -0.2345 -0.0088 -0.1776
21005W        W36814  11.175   6.739  14.106 -0.1574 -0.1277 -0.3618
21006W        W36815   4.443  18.421  10.751 -0.0443 -0.0808  0.1791
21007W        W36816   0.194   7.169   4.105 -0.0752  0.3124  0.1925
21008W        W36817   2.841   2.272   3.369  0.0259  0.0722 -0.0434
21009W        W36818  17.915   6.012  11.201 -0.0794  0.0794  0.0443
21010W        W36819   8.713   9.377   3.288 -0.2438 -0.3890 -0.0987
21011W        W36820   4.340   3.773  15.030 -0.0976  0.3988  0.1940
21012W        W36821  10.822   7.899   3.539 -0.0943 -0.0411  0.0495
21013W        W36822  16.962  15.611   0.673 -0.2972 -0.1808 -0.3006
21014W        W36823   3.586   5.842   3.252  0.2702 -0.0428 -0.0350
21015W        W36824   0.815  10.949   4.870  0.0959 -0.2460  0.0050
21016W        W36825   2.656   6.278  11.875 -0.2162  0.1867  0.0846
21017W        W36826  13.368  10.500  13.437 -0.1683  0.1609 -0.2554
21018W        W36827  16.507   7.196   2.582 -0.1336  0.4403 -0.1708
21019W        W36828   3.520  18.184   3.506 -0.1467  0.0783 -0.2658
21020W        W36829  12.936   4.723  14.571  0.1913 -0.0976  0.1143
21021W        W36830   5.191  15.501   1.189  0.1961  0.2659  0.2463
21022W        W36831   7.725  11.623   5.214  0.1402 -0.0150 -0.3263
21023W        W36832  14.553   9.417  13.879 -0.5231  0.2128 -0.1035
21024W        W36833  11.572   5.625   1.140 -0.0964  0.4790  0.1464
21025W        W36834   9.737   9.389  14.179 -0.1944  0.0752  0.0343
21026W        W36835  16.807  17.142   4.338 -0.1547  0.2282 -0.1114
21027W        W36836  15.001  18.048   1.663 -0.1122  0.1710 -0.0267
21028W        W36837  14.857  12.885   4.429  0.1828 -0.0487 -0.3938
21029W        W36838   9.365  14.632  12.261 -0.4702 -0.3866 -0.0879
21030W        W36839   4.358  15.887   3.079 -0.3239 -0.1785  0.2050
21031W        W36840   6.031  14.794   0.186  0.2392  0.1721  0.0200
21032W        W36841   8.676   1.472   0.465 -0.0946 -0.3552  0.0397
21033W        W36842  11.416  13.478   0.312 -0.0561 -0.1120 -0.1774
21034W        W36843  12.025   0.028  11.224 -0.0239  0.0034 -0.2171
21035W        W36844  11.499   2.839  12.166 -0.3078  0.2151  0.1860
21036W        W36845   1.997   1.352   3.636 -0.2284 -0.1608 -0.1051
21037W        W36846  18.576   6.182   0.117 -0.0605  0.3567 -0.1498
21038W        W36847  18.513   7.849   5.100 -0.1516  0.0904 -0.2792
21039W        W36848   7.549   8.392  10.691  0.0811  0.0476 -0.0854
21040W        W36849  14.883   8.436   2.165  0.4036  0.0428 -0.0527
21041W        W36850   6.774  15.415   5.130 -0.1337 -0.1902 -0.1366
21042W        W36851   0.234   8.556  11.624  0.1309 -0.1119 -0.1133
21043W        W36852   0.117   8.516   0.406  0.2839  0.4183  0.3136
21044W        W36853  18.340  12.737   5.241  0.0994  0.1723 -0.1768
21045W        W36854   5.879  10.861  10.389  0.2955  0.0825  0.3291
21046W        W36855   7.317   2.882  10.271  0.1255  0.1583  0.1587
21047W        W36856   1.963   9.026   0.411  0.4518  0.0840  0.1451
21048W        W36857  12.629  18.484   0.621  0.1471 -0.0147 -0.1675
21049W        W36858   2.623  16.701  12.833 -0.1265 -0.1597 -0.1766
21050W        W36859   9.716  10.756   3.618  0.0624 -0.2209  0.4141
21051W        W36860   2.015   8.157  13.533 -0.0012 -0.0159 -0.0302
21052W        W36861   0.247  10.542  14.716 -0.1092 -0.2323 -0.1227
21053W        W36862   4.648  14.770  13.132 -0.0677  0.0458  0.0993
21054W        W36863   8.502   0.049  15.386  0.4340  0.3173  0.0878
21055W        W36864   7.405   1.330  14.236 -0.2643  0.0559  0.0514
21056W        W36865   3.885  13.644  12.503 -0.0294  0.1149  0.2687
21057W        W36866  18.744   3.858   5.498  0.2019 -0.0071  0.1539
21058W        W36867  18.004  11.195  11.189 -0.0517 -0.3553  0.0648
21059W        W36868   2.581  13.876   3.255  0.3104 -0.0750 -0.0202
21060W        W36869   9.054  11.413  14.013  0.1152 -0.2441  0.0334
21061W        W36870  15.327  18.307   3.399 -0.0649 -0.0596 -0.2126
21062W        W36871  15.626  13.701   5.707 -0.0812  0.0993  0.2802
21063W        W36872   8.574  14.594  15.315 -0.2414  0.2902 -0.0048
21064W        W36873  10.985  17.491   2.250  0.0929 -0.2262 -0.3331
21065W        W36874   6.555  12.913  14.094  0.2258  0.0759 -0.0322
21066W        W36875   7.578  16.518   4.759  0.1682 -0.0963  0.0409
21067W        W36876  11.215  13.454   4.175  0.0036  0.1100 -0.0483
21068W        W36877   7.297   4.311  13.773  0.3603 -0.1553 -0.1951
21069W        W36878   4.136  12.130  13.940 -0.1147 -0.0354 -0.0886
21070W        W36879  12.619  13.232   4.000 -0.1180 -0.5617 -0.0380
21071W        W36880  16.558   8.165   9.490  0.1491  0.2335 -0.0225
21072W        W36881   2.154  11.724   3.082  0.1160 -0.0292  0.4077
21073W        W36882   7.379  18.214  13.294  0.4317  0.2054  0.1291
21074W        W36883   2.287  15.273   1.887 -0.2502 -0.3257  0.2074
21075W        W36884  12.730  16.638   3.936  0.0513  0.0082  0.1644
21076W        W36885   1.429   4.601  12.210 -0.2088 -0.0016 -0.3732
21077W        W36886   1.380  14.137   3.383 -0.3386 -0.0857  0.1472
21078W        W36887  15.266   0.195  15.169  0.0323  0.1025  0.3708
21079W        W36888   4.748  10.859  14.578  0.1424 -0.0893 -0.1400
21080W        W36889  10.177   2.562   0.123  0.0210 -0.3204  0.1770
21081W        W36890  17.557   7.019  13.749  0.1528 -0.0049 -0.3814
21082W        W36891   0.451   4.868  11.987  0.2892  0.2691  0.1880
21083W        W36892  17.087   7.310  11.203 -0.0482 -0.2929 -0.0836
21084W        W36893  12.594  18.226   1.047 -0.0763 -0.2165  0.0156
21085W        W36894  10.882   0.643   2.957  0.1066  0.0046  0.3160
21086W        W36895   8.220   8.632  12.620  0.1377  0.2072 -0.0923
21087W        W36896   5.095  13.380   1.374  0.0090 -0.0586 -0.1148
21088W        W36897   3.653   2.937  11.951  0.2500 -0.2755  0.3964
21089W        W36898   1.254  11.049   5.599  0.0902 -0.2649  0.0605
21090W        W36899   5.784  17.606   4.629  0.0479 -0.2470  0.3331
21091W        W36900   1.677  12.064   0.170 -0.1454  0.1994  0.0402
21092W        W36901   5.536  16.191  13.917 -0.0791 -0.2486  0.1875
21093W        W36902  13.046   5.813  13.143 -0.4446 -0.2090 -0.0293
21094W        W36903   6.652  17.252   2.441  0.2400 -0.0426 -0.3709
21095W        W36904   3.136  13.361  14.797 -0.3365 -0.0271  0.0433
21096W        W36905  18.675   2.670  12.285 -0.1656  0.0926  0.0262
21097W        W36906   4.093  13.984  12.096 -0.0294  0.1742  0.1381
21098W        W36907   1.924   6.762  12.970  0.0796 -0.0699  0.2700
21099W        W36908  15.334   3.013  10.713  0.0473 -0.1101 -0.1898
21100W        W36909   7.525   7.608   2.441 -0.1847  0.2313 -0.0375
21101W        W36910   2.865  15.019  11.832 -0.1005  0.1547 -0.2494
21102W        W36911   7.326   8.529   4.408  0.0935 -0.0782 -0.1401
21103W        W36912   5.104   2.038  13.383  0.4860 -0.1203  0.0944
21104W        W36913   1.027  12.108   1.516  0.3018 -0.0312 -0.3224
21105W        W36914  16.170   2.851   2.147  0.3555  0.1502 -0.2810
21106W        W36915  10.015  15.683  12.274  0.1604  0.2589 -0.2737
21107W        W36916  17.276  18.532  12.723  0.3630 -0.0675  0.0813
21108W        W36917   4.022   1.788   4.488 -0.2640 -0.1054  0.2280
21109W        W36918  16.513  18.278   0.731  0.2060 -0.2917 -0.0231
21110W        W36919  16.242  17.579   4.752 -0.4218  0.3609 -0.0809
21111W        W36920  12.679   0.048   5.252  0.0329 -0.2117  0.0623
21112W        W36921  18.030  13.163   3.024 -0.0197 -0.1188 -0.1839
21113W        W36922   5.564  16.551   1.826 -0.0455 -0.3151 -0.3606
21114W        W36923  11.503   6.650   1.547  0.3336 -0.2411  0.2791
21115W        W36924  13.912  14.941   3.359 -0.3871 -0.3221 -0.0510
21116W        W36925   2.882  17.726   5.589 -0.0411  0.2098 -0.0048
21117W        W36926  12.205   8.303  14.920 -0.0711  0.2644  0.0846
21118W        W36927   3.062   7.081   3.234  0.1442 -0.2543 -0.0569
21119W        W36928  12.374  13.335   3.515 -0.1059  0.2083  0.1555
21120W        W36929   1.473  14.117  15.109  0.2545  0.0380  0.1859
21121W        W36930   5.281   0.403   1.737  0.1186  0.1409  0.1667
21122W        W36931  12.807   2.832  14.625  0.1586  0.3852  0.0413
21123W        W36932  11.703   7.767  11.130 -0.3127 -0.0778 -0.0983
21124W        W36933  18.612   7.707   1.038  0.0284 -0.2140 -0.2127
21125W        W36934   7.906  15.159   2.440  0.0444  0.3365  0.1431
21126W        W36935  18.480   8.540  10.922  0.0368 -0.0585 -0.1108
21127W        W36936   3.907   6.323  15.265  0.1485 -0.0889 -0.2922
21128W        W36937  11.775   2.551   2.020 -0.3936  0.0236 -0.0447
21129W        W36938  13.427  17.986   1.233  0.0975  0.3909 -0.0571
21130W        W36939  12.257  12.548  10.724 -0.0253  0.0334  0.0700
21131W        W36940  18.028  15.739  12.727  0.1744  0.2611  0.0870
21132W        W36941  11.652   0.196  13.368 -0.1308  0.4585 -0.1736
21133W        W36942   7.828  11.980  14.434  0.2301 -0.0259 -0.2200
21134W        W36943   7.108  17.502   1.632  0.1399 -0.0630  0.0715
21135W        W36944   3.361  14.940   9.477 -0.1002 -0.2134  0.1855
21136W        W36945   9.602  16.794  12.954 -0.2028  0.2826  0.0454
21137W        W36946   6.764   5.542   1.604  0.1924 -0.0963 -0.0938
21138W        W36947  14.555  14.993  14.868  0.3767 -0.4140 -0.2171
21139W        W36948  15.573   9.827  11.792  0.1800  0.1145 -0.4264
21140W        W36949   1.989   1.945   0.648  0.1190 -0.0539 -0.0252
21141W        W36950   5.087  15.039   3.190 -0.6369 -0.3662  0.1960
21142W        W36951   4.877   0.940  10.493 -0.3905 -0.2858 -0.3388
21143W        W36952   3.750  12.913  13.044 -0.0276 -0.0065  0.0636
21144W        W36953  15.447   5.778   4.651  0.2210 -0.0211 -0.0046
21145W        W36954   1.725   7.662   1.802 -0.0308  0.0038  0.0023
21146W        W36955  16.751   3.967  11.877 -0.0803 -0.2788  0.1888
21147W        W36956   1.377   0.056  14.580 -0.0119 -0.0919  0.0791
21148W        W36957  13.675   1.525  13.701 -0.1715 -0.3083  0.0249
21149W        W36958   1.668   1.325  11.935  0.0077 -0.0934  0.0546
21150W        W36959  16.608  11.722  14.302 -0.6263 -0.0309 -0.0052
21151W        W36960  14.030  10.039  12.610  0.2263 -0.1716 -0.0073
21152W        W36961  12.573  15.036   3.370 -0.1254  0.3414  0.0481
21153W        W36962   1.106  16.883   5.165  0.0174  0.1515 -0.1540
21154W        W36963   3.096  13.397   2.684 -0.2313  0.0387  0.1964
21155W        W36964  12.423   7.934  13.014 -0.1223 -0.0972  0.1186
21156W        W36965   7.813   3.192   0.900  0.1842 -0.1099 -0.1204
21157W        W36966  15.074  17.171  12.055 -0.1227 -0.1406  0.1024
21158W        W36967  13.788   5.914   0.486 -0.0868  0.1252  0.1341
21159W        W36968  13.529  14.720  14.957  0.1632 -0.2516 -0.1009
21160W        W36969   1.371   5.474  13.164 -0.2695  0.1384 -0.0781
21161W        W36970  14.120   1.542   3.994  0.0664  0.0606  0.0235
21162W        W36971  15.434  17.176   1.579 -0.0316  0.3520 -0.1415
21163W        W36972   1.375  10.728   4.848 -0.0589  0.4246 -0.1865
21164W        W36973   3.783  10.000   0.605 -0.2700 -0.3932  0.0088
21165W        W36974  17.123  11.660   0.829  0.0887 -0.0053  0.0570
21166W        W36975   0.156   7.350   2.862  0.0914  0.0141 -0.1637
21167W        W36976  16.946   6.489   0.219 -0.0905  0.2394  0.0787
21168W        W36977  12.793   6.289   4.785 -0.1272 -0.2549 -0.1861
21169W        W36978   9.004   9.099  15.296 -0.0745  0.0825  0.1046
21170W        W36979   7.086   2.330  10.989 -0.0300 -0.2537 -0.3907
21171W        W36980  16.317  15.481  15.068  0.1771  0.1025  0.2089
21172W        W36981   0.442  16.246   5.124 -0.0366 -0.0346 -0.0859
21173W        W36982  17.060  15.957   1.048 -0.1477  0.1476 -0.0744
21174W        W36983   3.600   4.831   2.536  0.1181  0.2286 -0.2539
21175W        W36984   4.220  13.691   4.742 -0.1147  0.1743  0.1402
21176W        W36985   4.887   1.320   1.711  0.2564  0.0498 -0.0953
21177W        W36986   2.484   0.363  15.420 -0.1046 -0.1743 -0.2573
21178W        W36987   8.976  12.265  10.551  0.2003  0.1204 -0.2379
21179W        W36988   4.647   5.087   3.237 -0.0898  0.1754 -0.0530
21180W        W36989   4.586  15.370  14.206 -0.1802 -0.2676  0.4061
21181W        W36990   8.384   0.941  13.661 -0.0618 -0.1293 -0.1537
21182W        W36991  14.594  18.077  11.564  0.1503  0.3853  0.0877
21183W        W36992  11.040  14.397  11.187  0.4039 -0.2776 -0.3397
21184W        W36993  10.261  13.896   0.860  0.0093 -0.2545  0.0789
21185W        W36994  16.261  17.896   1.577  0.0242  0.4951  0.0071
21186W        W36995   0.829   7.946   4.083  0.1370  0.0495 -0.0689
21187W        W36996   6.995  13.541  11.441  0.2028  0.0322 -0.0126
21188W        W36997   9.080   7.935   2.478 -0.1735 -0.1386 -0.2155
21189W        W36998   3.944  11.706   3.470  0.2495 -0.2206 -0.0461
21190W        W36999  14.519  10.226  12.766  0.0926 -0.2751  0.0476
21191W        W37000  11.475   9.083  11.493  0.0485  0.3094 -0.3443
21192W        W37001   3.752   0.641  15.128 -0.0468  0.1487 -0.0112
21193W        W37002  12.767   4.669  10.608 -0.1452 -0.0534 -0.1148
21194W        W37003  12.211   0.971   2.500 -0.3493 -0.1453  0.0437
21195W        W37004  12.708  17.189   3.956 -0.0475 -0.3069 -0.2699
21196W        W37005   6.806  10.351  14.120  0.0259 -0.0294  0.1449
21197W        W37006  17.382   9.810   0.322  0.1145  0.0892 -0.2073
21198W        W37007   0.960  14.342   0.529  0.1821 -0.1977  0.0715
21199W        W37008  17.437   5.649  14.268 -0.1739  0.2805 -0.4105
21200W        W37009  15.508   1.399   4.831  0.1629 -0.1727 -0.2111
21201W        W37010   5.305   8.652  14.749 -0.0820  0.1147  0.2807
21202W        W37011   2.029  15.870  12.605 -0.0884  0.0258 -0.0571
21203W        W37012  13.700   4.265   4.213 -0.1668 -0.0898  0.4508
21204W        W37013  15.254  10.813   1.466  0.3472 -0.1957 -0.0472
21205W        W37014   7.234   9.714  15.007 -0.2574 -0.2347 -0.1653
21206W        W37015  15.588   7.141   1.901 -0.2562  0.0248 -0.1325
21207W        W37016  12.504  10.336  13.204  0.0700 -0.0590  0.2774
21208W        W37017   3.306  14.388   3.166 -0.5015 -0.1007  0.1493
21209W        W37018   4.287  10.535   4.040  0.1418  0.3556 -0.0198
21210W        W37019   0.877  18.051   1.405 -0.1931 -0.3419  0.4516
21211W        W37020   8.556   9.582   5.944  0.1295  0.1310  0.3617
21212W        W37021   5.743   6.935   1.822  0.0612  0.1655  0.0464
21213W        W37022   8.577  15.069  15.140  0.0420  0.2896  0.0201
21214W        W37023   8.863  18.480   1.375 -0.1511  0.2496  0.2131
21215W        W37024  17.633   4.591  14.437  0.0164 -0.0101  0.1781
21216W        W37025   3.490   7.394   1.730  0.2895 -0.0219 -0.1840
21217W        W37026   6.155  15.036  11.410  0.0920 -0.2717  0.0849
21218W        W37027   1.791   4.914   0.766 -0.2065 -0.1819  0.1990
21219W        W37028   0.761   0.412   0.148 -0.0137  0.0052  0.1728
21220W        W37029  16.469  18.394  11.424 -0.0493 -0.2636  0.2415
21221W        W37030  10.444   7.583   4.887  0.0401  0.3089 -0.0091
21222W        W37031  18.268   3.583  11.982 -0.1364 -0.2591 -0.0567
21223W        W37032  11.550   2.612  13.570  0.2198 -0.2416  0.0421
21224W        W37033   6.520  13.872  14.272  0.0222 -0.1659  0.0824
21225W        W37034   0.451  11.329  13.018  0.2653 -0.6435  0.2240
21226W        W37035  10.263   3.249   0.365 -0.0822  0.1717 -0.0727
21227W        W37036   7.847  11.324   2.198 -0.0974 -0.0544  0.0004
21228W        W37037  12.620  12.142   1.043  0.2206 -0.1618  0.0926
21229W        W37038  11.783   3.843  14.269  0.2651 -0.1072  0.3542
21230W        W37039  12.689   8.509   3.987 -0.1139 -0.2775  0.0147
21231W        W37040  14.750  12.614  14.095 -0.1062  0.5730  0.3653
21232W        W37041   0.722  10.055  11.275 -0.1012 -0.0330 -0.3108
21233W        W37042  14.867  16.060   2.457 -0.2487  0.1129  0.3748
21234W        W37043   1.815   1.780  11.743  0.1393 -0.1005 -0.1433
21235W        W37044   5.813  17.362  12.187 -0.0706 -0.1184 -0.1449
21236W        W37045  13.967  11.085   1.615  0.0732 -0.1178  0.0009
21237W        W37046  10.559   6.374   1.602 -0.3595  0.1496 -0.1991
21238W        W37047  11.019   5.070   5.723 -0.1085 -0.0396  0.2053
21239W        W37048   6.178   8.554   3.073 -0.0461 -0.1456  0.2348
21240W        W37049   0.909   4.523   4.853  0.0561  0.1126 -0.0348
21241W        W37050   2.169  16.402  13.249 -0.2193  0.0351  0.3079
21242W        W37051  11.754   6.237   4.631 -0.0281  0.0735  0.0155
21243W        W37052  18.466   8.549  11.436 -0.0438  0.2821 -0.0141
21244W        W37053   3.824  16.616   0.239 -0.0359  0.0286  0.1462
21245W        W37054   1.420  15.585   1.736 -0.2242  0.1474 -0.4199
21246W        W37055  15.938  14.397  13.403 -0.1018  0.2113  0.0024
21247W        W37056  11.668   2.327   4.652  0.1931 -0.2152 -0.4003
21248W        W37057  11.073  18.175  14.654  0.0476 -0.0477  0.0696
21249W        W37058   9.533   7.560   3.159 -0.0118 -0.2102 -0.0611
21250W        W37059  16.847  17.688  12.423  0.2321  0.0381  0.1241
21251W        W37060   4.038   9.338  13.902  0.1331 -0.0683 -0.1786
21252W        W37061  10.331   4.726   4.837 -0.2278  0.2048 -0.1432
21253W        W37062  17.521  13.140   3.248 -0.1561  0.0578 -0.0761
21254W        W37063   6.037   3.505  13.924 -0.0044 -0.2531 -0.0681
21255W        W37064   1.477   4.699   4.513  0.1703  0.0334  0.0690
21256W        W37065  15.918  18.295  12.478 -0.0793 -0.0059  0.2414
21257W        W37066  13.523   3.904  13.903  0.0229  0.0330  0.1073
21258W        W37067   1.250   7.764   1.522  0.0404 -0.1701  0.0894
21259W        W37068  12.831   6.396   1.679 -0.0360 -0.0072 -0.1441
21260W        W37069  15.179   4.691  13.408  0.0347 -0.1688 -0.1091
21261W        W37070   9.875  17.480   0.157 -0.1094  0.1321  0.1901
21262W        W37071   4.414  14.471   3.416 -0.0822  0.1042  0.1432
21263W        W37072   3.986   7.774   3.613 -0.1786 -0.2377 -0.2284
21264W        W37073   4.836   4.065   1.149  0.1387 -0.1729  0.2772
21265W        W37074   8.122   7.553  15.002  0.4879  0.2212  0.0196
21266W        W37075   7.167   1.731  10.746 -0.2049  0.0683  0.2593
21267W        W37076  11.344   0.580  11.408 -0.1336  0.0903 -0.1782
21268W        W37077  18.732   7.343  14.524 -0.1463 -0.2116  0.1080
21269W        W37078  10.212   9.877   3.405  0.1732 -0.0379 -0.4831
21270W        W37079   3.441   7.596  12.973  0.2110 -0.0130  0.1375
21271W        W37080  17.200  17.524   1.413  0.0617 -0.1920  0.0837
21272W        W37081   5.536  17.361  13.297  0.2114  0.4897  0.2075
21273W        W37082  18.728   9.186  12.101  0.0303 -0.1086  0.0231
21274W        W37083  14.432  15.367  12.704  0.2629  0.1845  0.0910
21275W        W37084   7.737   6.195  14.181 -0.1385 -0.1593  0.0460
21276W        W37085  12.146   1.042  14.246 -0.2555 -0.0244 -0.2720
21277W        W37086   0.172  13.359   3.017 -0.1128  0.0457  0.2233
21278W        W37087   3.144   9.963   0.370  0.1570 -0.1653 -0.2397
21279W        W37088   2.286  15.264   4.665  0.1649 -0.1719  0.3120
21280W        W37089   4.068   7.027  10.697  0.0816  0.1259 -0.0208
21281W        W37090   0.700  11.248   1.758 -0.5141 -0.1002 -0.1554
21282W        W37091   4.451   1.769  12.260  0.2623  0.1472 -0.0113
21283W        W37092   2.411   2.337  12.310  0.1641  0.3207 -0.1438
21284W        W37093   1.509   0.655  12.429  0.1976 -0.2560 -0.1806
21285W        W37094   4.686   7.198  14.399  0.1761  0.2123  0.2949
21286W        W37095   1.072   7.394   1.130 -0.0793  0.0887 -0.2317
21287W        W37096  17.270  14.849   2.379 -0.1549  0.2090  0.0783
21288W        W37097   0.253   9.089   2.796 -0.0380 -0.1317 -0.1339
21289W        W37098  11.217  11.667   0.886  0.2556  0.3014 -0.0889
21290W        W37099   3.768   0.499   0.706 -0.3891 -0.0075  0.4037
21291W        W37100   3.469  10.898  12.298  0.1302  0.0789  0.0504
21292W        W37101  15.485  11.190   0.081  0.1329  0.0941 -0.0967
21293W        W37102  13.758   3.639   1.632  0.3302 -0.0608 -0.4325
21294W        W37103  13.832  11.264   5.606 -0.2586 -0.0272 -0.0695
21295W        W37104  12.770  13.585   1.554  0.0685 -0.1129 -0.0512
21296W        W37105   9.342   9.983   3.356 -0.0338  0.3598 -0.0163
21297W        W37106   4.676  11.794   0.063  0.2551 -0.4479 -0.0222
21298W        W37107   8.482  13.432  14.113  0.0438 -0.1421  0.1143
21299W        W37108  11.349  10.395  11.471 -0.2780  0.3121  0.0862
21300W        W37109   7.292  16.716   1.055  0.7668 -0.0659 -0.0814
21301W        W37110  15.309   1.566  14.842 -0.0313 -0.1157 -0.0500
21302W        W37111  17.472   0.039   1.887  0.0009 -0.1855  0.0619
21303W        W37112   9.478   2.541   1.187  0.1436  0.0526 -0.1174
21304W        W37113  11.480   8.699   0.457 -0.1356 -0.0955  0.0848
21305W        W37114   3.666  11.635  13.189  0.2740 -0.0380 -0.0006
21306W        W37115  11.792  10.144   3.062 -0.1582 -0.0730  0.1387
21307W        W37116  14.286   2.998   5.069  0.3095  0.2610  0.3967
21308W        W37117   7.843   9.658  15.514 -0.0842  0.3136 -0.1482
21309W        W37118  15.947  12.513  11.340  0.1054 -0.5028 -0.0992
21310W        W37119   0.301   1.520  14.957 -0.2480 -0.0532 -0.0615
21311W        W37120  12.234  10.372  12.288  0.2758 -0.0104  0.2316
21312W        W37121  10.909   0.222   4.699  0.0607 -0.1533 -0.1932
21313W        W37122   6.121  17.575   4.248 -0.2909  0.0345  0.1062
21314W        W37123  14.555   3.818  10.796  0.0526 -0.0223  0.2009
21315W        W37124  12.552  15.456  13.521 -0.0916 -0.3487  0.1393
21316W        W37125  12.416  17.555   3.001 -0.2328  0.0810 -0.3605
21317W        W37126  17.850  13.212   1.781  0.1016  0.0891 -0.1148
21318W        W37127  13.022  16.508   1.062  0.2450  0.0880  0.0583
21319W        W37128  13.734   2.564  14.426  0.2803 -0.0450 -0.0131
21320W        W37129   3.830   7.482   1.282 -0.1586 -0.0700 -0.1648
21321W        W37130  12.330   8.700   1.911  0.0219  0.0762  0.3056
21322W        W37131   1.050  13.773   3.423  0.0198 -0.0615  0.2636
21323W        W37132  15.283   7.300  15.286  0.0796 -0.1695 -0.0670
21324W        W37133   9.135   7.350  11.146  0.1816 -0.2576  0.2195
21325W        W37134   7.801   7.961  14.997  0.0095 -0.2989 -0.0151
21326W        W37135  12.582   4.271   4.742 -0.2063 -0.0570  0.0057
21327W        W37136  14.247  14.546  11.994 -0.1257 -0.0786 -0.1123
21328W        W37137   6.469   7.481   3.745 -0.1499  0.0384  0.1174
21329W        W37138  15.994   5.677  14.487 -0.0249 -0.0381  0.1037
21330W        W37139   3.104   7.613   5.613  0.1981  0.3247  0.1569
21331W        W37140  18.020   3.406   2.925  0.2026 -0.3214 -0.3418
21332W        W37141   8.433  17.289  14.565  0.0322  0.3120 -0.0098
21333W        W37142   0.457   9.662  15.552 -0.3146 -0.1144 -0.3573
21334W        W37143  11.491  15.926  14.037 -0.1111  0.3218  0.1825
21335W        W37144   6.832  10.332  11.781  0.3038 -0.2031 -0.3313
21336W        W37145  18.021   0.233   0.228 -0.0579 -0.1626  0.0144
21337W        W37146  10.286   5.773   1.198  0.0863 -0.0276  0.1682
21338W        W37147  16.815   9.271   4.563 -0.1622 -0.0320 -0.1992
21339W        W37148   4.790  16.762   4.134 -0.0757 -0.2917  0.2348
21340W        W37149   3.395  13.922   0.726 -0.1711 -0.2008  0.4844
21341W        W37150   4.770   1.390   4.400 -0.1027 -0.4280 -0.1112
21342W        W37151   3.307  17.123  14.036 -0.1868  0.0490  0.2285
21343W        W37152  12.130   6.374  13.755 -0.2376  0.0256 -0.2903
21344W        W37153   7.212  16.598   0.080 -0.0805 -0.1152  0.4970
21345W        W37154  11.870  14.899   2.917  0.1570  0.0589  0.0336
21346W        W37155   2.491   9.000  11.313  0.0175  0.1139  0.0830
21347W        W37156   8.842  18.757  14.834 -0.0303 -0.1121  0.5871
21348W        W37157   1.914   6.117  10.849 -0.0424  0.1119 -0.0173
21349W        W37158  16.885   9.946   0.369  0.3512  0.2459 -0.1602
21350W        W37159  11.235   5.281  11.620  0.0452  0.1541 -0.0257
21351W        W37160  13.638  18.272  11.694 -0.0067  0.2854 -0.1893
21352W        W37161  17.421  11.105   0.242 -0.1187  0.3413 -0.2868
21353W        W37162   0.590   8.351  13.610 -0.1853  0.4383 -0.3462
21354W        W37163   7.066   9.511   5.456 -0.1144 -0.0746  0.1362
21355W        W37164   1.786   2.494  14.408 -0.2609  0.1324  0.0637
21356W        W37165   9.922   9.024  15.212  0.2518 -0.1953  0.3696
21357W        W37166   8.845  16.941   4.841 -0.2310 -0.1715 -0.3509
21358W        W37167   2.542   3.368   3.885 -0.2344 -0.0238 -0.0735
21359W        W37168  14.048   7.991   2.355 -0.0442 -0.1120 -0.0440
21360W        W37169  17.791  13.799   0.379 -0.4426 -0.3768  0.3822
21361W        W37170   5.158  15.760   5.402  0.1396  0.0239 -0.1249
21362W        W37171   3.160  16.029   3.555  0.0815 -0.3976  0.0985
21363W        W37172   9.636   6.661   4.728  0.3635 -0.1206 -0.1411
21364W        W37173  16.572  17.263   1.043  0.0143 -0.0252  0.0377
21365W        W37174  10.303   3.106  10.694 -0.1394 -0.0406  0.2082
21366W        W37175  17.975  13.495   0.682 -0.1165 -0.0887  0.2844
21367W        W37176   8.601   5.293  13.030 -0.3591 -0.1125 -0.0348
21368W        W37177   3.314  13.110  11.116  0.1675  0.1249 -0.2035
21369W        W37178  11.395   3.938   0.365  0.0961 -0.0400 -0.1515
21370W        W37179   2.677   2.055  10.474 -0.0927 -0.6254 -0.0239
21371W        W37180   6.791   0.898   2.538 -0.0612 -0.1380 -0.2739
21372W        W37181   9.395  14.708  11.387 -0.1909 -0.0070  0.0508
21373W        W37182   7.442  16.770   4.276 -0.2158  0.0197  0.0011
21374W        W37183  13.625  11.112   4.879  0.2202 -0.0192  0.1304
21375W        W37184   1.548  16.642  11.761  0.2478 -0.1078  0.0558
21376W        W37185   0.533   3.812   9.763 -0.0061 -0.0631  0.0481
21377W        W37186  12.582  12.092  13.814 -0.0575  0.0557 -0.1696
21378W        W37187   1.869   7.514  15.076  0.4461  0.1916  0.0232
21379W        W37188  15.207  12.568  12.514 -0.2254 -0.0573  0.2775
21380W        W37189   7.278  13.255  12.535  0.0279 -0.5278 -0.0215
21381W        W37190  10.031  11.286   1.634  0.2738 -0.1244  0.1624
21382W        W37191   3.606   8.281  15.498 -0.0320 -0.0564  0.1007
21383W        W37192  10.202  14.377   3.533 -0.1405  0.0664  0.1984
21384W        W37193   9.513   7.672   0.601  0.1725 -0.0383  0.0974
21385W        W37194   4.272  16.428  13.167  0.3631 -0.0673 -0.0884
21386W        W37195   6.480  15.597  12.766 -0.2522 -0.0539  0.0818
21387W        W37196   3.176  14.789  14.210 -0.0232 -0.0961  0.0767
21388W        W37197  13.335  15.346  12.071 -0.1933 -0.3513 -0.0801
21389W        W37198   0.958   0.798  12.308 -0.4558 -0.2965  0.5093
21390W        W37199   9.379  18.325   4.721  0.0878  0.0221  0.0769
21391W        W37200   1.359   0.084   3.270  0.2521  0.1218 -0.1277
21392W        W37201   4.981   6.057  14.738  0.0144  0.1057 -0.0067
21393W        W37202  10.727  12.722   3.207 -0.1212  0.0550 -0.0937
21394W        W37203   2.626   4.894  13.152 -0.1903  0.0055 -0.0863
21395W        W37204   5.833  16.311   3.158  0.3342  0.2353  0.0689
21396W        W37205   8.158  13.091  12.376 -0.1860 -0.0930 -0.1109
21397W        W37206  13.756   6.525  12.829  0.0023 -0.3037  0.0708
21398W        W37207   8.535   1.313   4.596  0.2130  0.2023 -0.2123
21399W        W37208   8.455   8.156  10.139  0.1450  0.0255 -0.3032
21400W        W37209   0.841   5.257  11.385 -0.1468 -0.2564  0.3182
21401W        W37210  18.666   8.057   0.623 -0.1939  0.0641 -0.0783
21402W        W37211  11.537  11.014   5.540  0.0007 -0.1414  0.0403
21403W        W37212  15.839  11.558   1.239  0.0025  0.3779  0.0019
21404W        W37213   9.966  15.856   3.910 -0.1751 -0.0647  0.1276
21405W        W37214  14.062  16.939  14.011 -0.1911  0.3354  0.1373
21406W        W37215   8.635  17.829  11.185 -0.0187 -0.1841 -0.1412
21407W        W37216   3.504  18.054  11.179  0.0955  0.2054  0.0490
21408W        W37217   9.857   7.522   2.038 -0.2502 -0.2662 -0.0918
21409W        W37218  14.067  13.488   0.223 -0.1340  0.3409  0.0162
21410W        W37219  18.144   8.189  12.604 -0.1316  0.0175  0.1280
21411W        W37220   9.050  15.351  12.907  0.1103  0.0632 -0.2320
21412W        W37221  18.202   5.148  13.441  0.1022 -0.2627  0.1308
21413W        W37222   0.896  10.906   0.724  0.4249  0.0151  0.2001
21414W        W37223   9.216   3.517  12.683  0.1598 -0.0507  0.2545
21415W        W37224  12.673  12.218  11.386  0.1249  0.0287  0.1335
21416W        W37225  12.133  11.390   1.836 -0.1763  0.1092 -0.3601
21417W        W37226   5.863  16.138   3.655  0.0586 -0.0603 -0.2640
21418W        W37227   9.900  17.715  14.882 -0.0066  0.1874 -0.1452
21419W        W37228  17.554  15.969   0.048  0.1333  0.0254  0.2105
21420W        W37229   2.073   3.343   3.448  0.0922  0.2342 -0.2898
21421W        W37230  12.975   8.189  15.244  0.1241 -0.0387 -0.0101
21422W        W37231   4.146   5.265   0.790  0.0369 -0.0172  0.0665
21423W        W37232  15.634  17.372   2.470 -0.3032 -0.1406  0.1976
21424W        W37233   1.547   1.256   0.941 -0.1566  0.0391  0.2432
21425W        W37234  15.036  12.764  11.330  0.0798  0.1439  0.1378
21426W        W37235   6.616  12.813   2.220 -0.0757 -0.0500  0.0621
21427W        W37236  11.584  11.277   1.762  0.1921 -0.0744 -0.1577
21428W        W37237   0.522   6.875  10.446 -0.1297 -0.0967  0.2223
21429W        W37238  15.489  15.516   0.261 -0.1976  0.1669  0.0038
21430W        W37239   5.091   8.434  15.248  0.0733 -0.0409  0.1897
21431W        W37240   8.713  17.898  12.536  0.4305 -0.1034  0.1637
21432W        W37241  11.008   3.440   4.133  0.1397 -0.1860  0.0654
21433W        W37242   3.652   3.516  13.658  0.0563  0.3090  0.0420
21434W        W37243  17.083   7.781   1.054  0.1763  0.1141 -0.1109
21435W        W37244   0.711   7.269  10.792  0.2240  0.1933  0.1602
21436W        W37245   7.689  16.314  11.149  0.2877 -0.1944  0.1355
21437W        W37246   3.853   2.685  14.098 -0.1789  0.2801 -0.0107
21438W        W37247   4.702  14.203  14.872  0.1976 -0.1302 -0.0809
21439W        W37248  11.856   1.087   4.495  0.1381  0.1453 -0.0728
21440W        W37249   5.071  13.147   2.635  0.0981  0.0775  0.0447
21441W        W37250  11.053  17.538  11.703 -0.0223  0.2918  0.1352
21442W        W37251  17.134  15.653  14.431 -0.2440 -0.1320  0.0176
21443W        W37252   5.799   9.487  11.596 -0.0861  0.1435  0.0168
21444W        W37253  13.216  11.801  12.471 -0.1184  0.1225  0.0865
21445W        W37254  17.082  11.551  13.909  0.1747  0.3947  0.0418
21446W        W37255  17.005  12.131   1.072  0.2127 -0.0723  0.1875
21447W        W37256  13.865   4.499  14.291  0.0666  0.0252  0.1850
21448W        W37257   1.393   1.664  13.885 -0.0334 -0.2478  0.1022
21449W        W37258  15.131   3.175   3.241  0.0051  0.0583 -0.4006
21450W        W37259   4.857  12.544  10.156  0.2072  0.3684  0.2628
21451W        W37260   8.956  14.512   5.099  0.1677  0.0441 -0.1473
21452W        W37261   1.358  12.182  10.519  0.3322 -0.2978 -0.0349
21453W        W37262  15.316  14.307   2.199  0.0865 -0.4742 -0.0504
21454W        W37263   1.984   3.985   4.845  0.0035  0.1071  0.3525
21455W        W37264  17.797   9.219   0.180  0.2906  0.2059 -0.1011
21456W        W37265  18.419   9.726   2.495 -0.0265 -0.1478  0.1432
21457W        W37266  12.834  14.403   4.939 -0.3182  0.0500 -0.1719
21458W        W37267  10.360  15.963   0.452  0.2057  0.1040  0.2529
21459W        W37268   9.779  12.876  11.754  0.2744 -0.4165 -0.0156
21460W        W37269   1.156   1.869   4.529 -0.1983  0.0087  0.1619
21461W        W37270   4.619   0.306   4.029  0.0256  0.3222 -0.2274
21462W        W37271   9.081   9.451  14.929 -0.1069  0.0879  0.0128
21463W        W37272  17.174   9.442   4.034  0.3449 -0.0732 -0.0781
21464W        W37273  11.305   1.175   4.326  0.1194  0.1597 -0.1357
21465W        W37274   4.785   8.909  13.146 -0.0636  0.0220  0.4235
21466W        W37275   3.606  12.637   4.085 -0.4303 -0.2000 -0.0482
21467W        W37276   3.792   4.856   1.110  0.0145  0.1398 -0.1147
21468W        W37277  14.730  17.438  14.059  0.1615 -0.0411 -0.0486
21469W        W37278  11.412  16.320   5.055 -0.0555  0.0912 -0.0562
21470W        W37279  11.163   7.451  14.735 -0.3840 -0.1315  0.2304
21471W        W37280   3.961   7.500   0.721  0.0373 -0.2043  0.1679
21472W        W37281  13.687  15.154  11.491  0.1399  0.2015  0.1279
21473W        W37282   2.421   8.184  14.445  0.0578  0.0236  0.1061
21474W        W37283   7.588  14.430  11.762 -0.2738 -0.2108 -0.0052
21475W        W37284  11.716   0.627  14.302 -0.0213  0.0252 -0.0040
21476W        W37285  11.461  11.917  15.510  0.1020  0.0487 -0.2334
21477W        W37286   8.536   0.122   3.953  0.1120 -0.2073  0.1261
21478W        W37287   7.783  16.482  13.741 -0.1991  0.1567 -0.1068
21479W        W37288   1.082   5.792   1.177  0.1190 -0.0378  0.0337
21480W        W37289   5.845   4.968   1.799 -0.0537 -0.0894 -0.3804
21481W        W37290   9.855  11.989  13.867  0.1083  0.0227  0.0065
21482W        W37291   0.537   4.825  13.756 -0.0605 -0.1072  0.0907
21483W        W37292   8.045  11.475  10.957 -0.1523  0.0428 -0.0534
21484W        W37293  17.845  12.342   0.022  0.0153 -0.4343  0.0915
21485W        W37294   7.885  16.072  10.179 -0.1402  0.0172  0.1862
21486W        W37295  10.703   7.808  10.305  0.0888  0.2629 -0.0374
21487W        W37296  12.394   2.069  14.177  0.2500 -0.3177  0.0173
21488W        W37297  15.411   1.074  11.538 -0.0561 -0.2979 -0.1002
21489W        W37298   4.730   5.539   4.847  0.0198  0.2305  0.1301
21490W        W37299   2.552  11.454  12.263 -0.0931 -0.0485  0.4066
21491W        W37300   9.328  11.953  10.360  0.0475  0.1850  0.0808
21492W        W37301  10.942  12.756   2.364  0.3069 -0.1015  0.0507
21493W        W37302  15.271  13.907   0.095  0.2599  0.1465  0.1416
21494W        W37303   0.951  10.318   1.042 -0.0998 -0.0056 -0.2992
21495W        W37304  14.782  10.671  12.367  0.2188  0.0645  0.1496
21496W        W37305   8.736  17.020   2.117 -0.0450 -0.2736 -0.4222
21497W        W37306   6.651   2.529  11.830 -0.0468 -0.0784 -0.0556
21498W        W37307   0.354   5.390   2.225 -0.1304 -0.0594 -0.0714
21499W        W37308   6.655  14.358  12.998 -0.4839  0.1846 -0.1377
21500W        W37309  11.715   4.618   1.950  0.0067 -0.0206  0.4203
21501W        W37310   3.925   3.601  11.420 -0.1144  0.1918  0.2479
21502W        W37311   0.308   7.345   2.335 -0.3545 -0.0237 -0.0317
21503W        W37312   0.597  15.175   3.955  0.4317 -0.0972  0.2923
21504W        W37313  10.686   9.425   4.028  0.0975 -0.0160  0.0306
21505W        W37314   8.634   5.029   2.580 -0.1179 -0.1696 -0.0305
21506W        W37315   4.893   0.626  13.134 -0.1179  0.1595  0.0465
21507W        W37316   0.144   1.065   0.266  0.0111  0.2204 -0.0156
21508W        W37317   6.191  17.236   2.194 -0.0523  0.0426 -0.0756
21509W        W37318   9.025  11.725   1.417  0.1645  0.0718  0.0922
21510W        W37319   8.135   8.282   2.222  0.2465 -0.0919 -0.0255
21511W        W37320   8.899   5.557  15.504  0.0203  0.2109 -0.3475
21512W        W37321   5.632   7.929   3.675 -0.1221  0.3107  0.0877
21513W        W37322   0.823   3.910  15.451 -0.1223 -0.3622 -0.1914
21514W        W37323   1.847   3.828  10.967  0.0493  0.0397 -0.0768
21515W        W37324  11.660   4.162   5.039 -0.2939  0.0763  0.2289
21516W        W37325  16.132   4.815  11.486 -0.2986  0.0363 -0.0174
21517W        W37326  17.650  16.535  12.138 -0.3704 -0.2447 -0.0139
21518W        W37327   3.832   2.665   0.030 -0.1637  0.0878  0.4234
21519W        W37328   0.469   0.190  11.579 -0.3324  0.2097  0.0604
21520W        W37329   9.647  11.015   3.228  0.1949  0.0592 -0.1670
21521W        W37330  18.675   8.367   2.114 -0.1217 -0.2543 -0.1057
21522W        W37331  12.840  10.838  12.509  0.2365  0.0953 -0.1475
21523W        W37332  15.082  10.573   0.449 -0.0217 -0.1097 -0.0262
21524W        W37333  18.674  17.300  11.377 -0.0590 -0.1567 -0.1313
21525W        W37334  11.731  13.559   4.350  0.0297  0.1285  0.1328
21526W        W37335   2.228   2.773   2.229  0.0817 -0.2957  0.1318
21527W        W37336  11.621  10.194  12.363  0.0716  0.0440 -0.1672
21528W        W37337   1.745   7.216  13.378  0.2860 -0.2925 -0.2664
21529W        W37338   5.353   1.759   9.229 -0.0482  0.3121 -0.1493
21530W        W37339  13.800  17.346   3.173  0.0797 -0.1672  0.5687
21531W        W37340   6.423   3.291  14.224  0.0320  0.0082 -0.0659
21532W        W37341   9.111   6.568   4.764  0.1694  0.2800 -0.2913
21533W        W37342  11.857   1.406   2.500 -0.3130  0.1002 -0.0224
21534W        W37343   0.788  13.804   5.369  0.2112  0.1775  0.0626
21535W        W37344  12.605   5.993  15.231 -0.1316 -0.1124 -0.0455
21536W        W37345  12.495   0.462  12.089 -0.0793 -0.0058  0.1712
21537W        W37346  13.796  15.632  14.744  0.0953 -0.1924 -0.0749
21538W        W37347  18.369  15.486   2.912  0.1590  0.0041 -0.0782
21539W        W37348  15.995   9.821   1.547 -0.0950 -0.5174 -0.0434
21540W        W37349  11.685   6.687  12.584  0.1083  0.2139  0.2427
21541W        W37350   5.262   9.562  11.579 -0.2043 -0.2204  0.0242
21542W        W37351   7.682   8.576  11.494  0.3152 -0.0627  0.0965
21543W        W37352  17.818   9.737  11.135 -0.1495  0.2614 -0.3986
21544W        W37353   5.126   0.014  11.377  0.1709 -0.0600 -0.1889
21545W        W37354   2.634   9.267   2.312  0.2567  0.2213 -0.1776
21546W        W37355  11.638   1.207   1.007 -0.1155 -0.0535 -0.2639
21547W        W37356  13.950   8.881  10.203  0.1027 -0.1733 -0.2064
21548W        W37357  11.202  12.035   2.769 -0.2295 -0.0521 -0.0850
21549W        W37358  11.896  10.300   3.623 -0.1698 -0.2070  0.1141
21550W        W37359  12.090   7.945   0.438 -0.1079 -0.1458  0.0609
21551W        W37360   5.898  14.879  13.942  0.0246  0.1307  0.2492
21552W        W37361  13.971  11.171   0.002  0.0722  0.2300 -0.0324
21553W        W37362   8.755   4.172  12.817 -0.0721  0.1657  0.4121
21554W        W37363  18.244  15.432  14.105 -0.2587 -0.0814 -0.1661
21555W        W37364  11.198  10.234   4.862 -0.1165 -0.2022  0.1118
21556W        W37365   5.718   0.051   2.818  0.0547 -0.1628  0.0909
21557W        W37366   6.314  18.406  12.669  0.1335  0.4116 -0.0500
21558W        W37367   6.547   2.895   5.464  0.3939  0.1015 -0.1168
21559W        W37368  16.031   8.468   1.441 -0.4765  0.1504 -0.3657
21560W        W37369  10.480  10.887   2.332  0.1872 -0.0516 -0.0917
21561W        W37370  17.936   8.603   3.292  0.0619  0.0451 -0.0060
21562W        W37371   4.152   2.962   2.456  0.3479  0.3632  0.2241
21563W        W37372  10.216   2.628   0.804 -0.1094 -0.3000 -0.0580
21564W        W37373   3.631   1.986   1.249 -0.0403 -0.0480  0.0723
21565W        W37374   3.554   0.892  14.099 -0.2259  0.1418 -0.1001
21566W        W37375  12.503  16.243  12.619 -0.2161  0.0922 -0.1563
21567W        W37376  11.881  16.189   5.237 -0.1766  0.2200  0.0702
21568W        W37377   1.373  11.122   3.618 -0.0243 -0.0110  0.0442
21569W        W37378   1.782  11.606  14.524 -0.3743  0.0629 -0.0736
21570W        W37379  18.597   3.802  11.218 -0.0072  0.0294  0.0455
21571W        W37380   4.363  16.621   0.197 -0.0873 -0.3575  0.2025
21572W        W37381  18.493   6.660   5.081 -0.2203 -0.0428 -0.0654
21573W        W37382  18.680  17.608   2.335 -0.1445  0.2602 -0.0070
21574W        W37383   3.580  17.366  11.040  0.2464  0.1585 -0.3630
21575W        W37384   3.091   9.358  15.512  0.0271 -0.0466 -0.1544
21576W        W37385  10.902   0.272  14.505 -0.1197 -0.1391  0.1929
21577W        W37386   4.930  17.473   2.023 -0.0698 -0.0032  0.0410
21578W        W37387  13.315  17.718  13.205 -0.5407 -0.2946 -0.2717
21579W        W37388   6.591   6.879   2.665  0.0720 -0.4840 -0.0325
21580W        W37389   1.871   5.611   4.729  0.1690 -0.2576 -0.2080
21581W        W37390  15.015  15.296  11.487  0.4104 -0.0739 -0.0015
21582W        W37391   7.813   9.246   3.910  0.1905  0.0543  0.0318
21583W        W37392   3.862   9.337   1.305 -0.1299 -0.1855 -0.0521
21584W        W37393  15.969   4.250  13.598  0.2933  0.1825 -0.3271
21585W        W37394  14.410  18.516  11.893  0.1990  0.1432 -0.1479
21586W        W37395  13.869  17.045   2.779 -0.2473  0.1311  0.1900
21587W        W37396   6.417  14.303  14.426  0.1033 -0.1019 -0.0798
21588W        W37397   5.021  11.915  11.762  0.1743  0.1509 -0.0555
21589W        W37398  11.514  11.681   0.475 -0.0393 -0.1890  0.1855
21590W        W37399  17.524   2.794   0.548  0.2987  0.4083  0.0898
21591W        W37400   4.694   1.030   2.276  0.1773 -0.2274  0.0653
21592W        W37401  12.767   5.309  11.273 -0.0169  0.1207  0.2387
21593W        W37402  12.795   3.975   2.424  0.4871  0.0803  0.3410
21594W        W37403   8.867  13.741  13.092  0.0296 -0.3422  0.0038
21595W        W37404   4.430   8.701   4.937  0.1048  0.0437  0.2170
21596W        W37405   4.955  10.411   3.266 -0.0632  0.0050  0.4199
21597W        W37406  12.667  10.041  12.410 -0.0663 -0.3599  0.1709
21598W        W37407  10.076   7.012  11.850  0.0845  0.3112 -0.1971
21599W        W37408  16.457   0.838  11.559 -0.2237  0.1927  0.0022
21600W        W37409   5.624  13.887  14.261  0.0754  0.0075 -0.0742
21601W        W37410  12.982   0.380  14.983  0.0304 -0.0200  0.1602
21602W        W37411   3.489   7.014  15.165 -0.5217 -0.2725  0.1230
21603W        W37412  15.632   9.275   2.492  0.1326 -0.2715  0.0333
21604W        W37413   3.695   6.589   0.839 -0.2118 -0.3471  0.2545
21605W        W37414   4.373  17.252   2.005  0.1190 -0.0401 -0.0927
21606W        W37415   9.751   4.606  13.391 -0.3697 -0.2822  0.0585
21607W        W37416  18.563  10.168   9.422  0.0813  0.2935 -0.0023
21608W        W37417   9.529   7.325  13.962 -0.1095  0.0921  0.4801
21609W        W37418   4.621  12.277   1.214  0.0538  0.1814 -0.1769
21610W        W37419  11.393  17.186   4.767  0.2693 -0.1369 -0.0874
21611W        W37420  10.237  10.117   9.701  0.4050  0.2113 -0.2605
21612W        W37421  14.614  16.127  15.213 -0.1018 -0.0858  0.3205
21613W        W37422   4.479  12.297  10.287 -0.2258 -0.0547 -0.2083
21614W        W37423   1.937   3.852   0.761  0.2592 -0.0185 -0.3673
21615W        W37424  12.340  17.210   5.959 -0.0571 -0.0143  0.0576
21616W        W37425  11.856  13.089   0.606 -0.0514 -0.2340 -0.0729
21617W        W37426   1.589  11.427   2.461  0.1269 -0.1288 -0.1702
21618W        W37427   2.523  17.533   5.055  0.1600  0.2000  0.1980
21619W        W37428  17.590   2.638   5.688 -0.3775  0.1618  0.0395
21620W        W37429   5.870   2.748  11.073 -0.1080 -0.0390 -0.1054
21621W        W37430   8.791  11.513   2.525 -0.2343 -0.0795 -0.3436
21622W        W37431   6.100   2.485   2.976  0.1323  0.1126  0.0261
21623W        W37432  11.967   0.749  11.380  0.3042  0.0376  0.3992
21624W        W37433   0.160   6.130  13.870  0.3111 -0.1184 -0.1840
21625W        W37434   9.492   2.204  15.076 -0.1656  0.1395 -0.1080
21626W        W37435   4.875   6.290   2.577  0.1642  0.0791  0.2303
21627W        W37436  11.833   8.815   2.940  0.0029  0.1447 -0.0920
21628W        W37437   5.697   6.862   0.377 -0.0848 -0.0645  0.2865
21629W        W37438  16.658   8.213   2.642  0.3245 -0.1554 -0.1480
21630W        W37439   1.325  11.703  14.813 -0.0021 -0.0176 -0.0370
21631W        W37440   0.404  11.729   4.934 -0.0986 -0.1616 -0.0368
21632W        W37441  18.379   5.619  13.161 -0.1250  0.1096  0.0537
21633W        W37442   4.695   7.546   4.006  0.1099 -0.0465 -0.1465
21634W        W37443   9.105   9.490   2.570 -0.1119 -0.0289 -0.2302
21635W        W37444   8.963  11.431  10.821 -0.2716  0.1104  0.1486
21636W        W37445   1.631   1.488  11.386  0.5587 -0.0502  0.0490
21637W        W37446   4.367   6.416  14.164  0.1516 -0.2251 -0.2359
21638W        W37447  14.108   6.277  14.571  0.2188  0.0794 -0.3496
21639W        W37448  14.536   6.901  12.972 -0.1664  0.1401 -0.1574
21640W        W37449   2.403   0.934  13.098 -0.1718 -0.0611 -0.4195
21641W        W37450  14.380  18.321   1.934 -0.2226  0.0580 -0.2618
21642W        W37451   8.184   1.745   2.077 -0.0309 -0.3509 -0.1021
21643W        W37452  18.069  14.113   3.263  0.0305 -0.1017  0.0643
21644W        W37453   2.481   1.545   2.909  0.1096  0.2345  0.2191
21645W        W37454  13.633  13.080  13.360  0.1013  0.1481  0.0031
21646W        W37455  13.847  12.097   4.672 -0.0170 -0.1057  0.1870
21647W        W37456  11.255   7.565  12.323 -0.3015  0.0678  0.0059
21648W        W37457  16.628   3.799  10.393 -0.2009  0.3048  0.1790
21649W        W37458  13.982   2.323   0.793  0.0351 -0.6188 -0.2295
21650W        W37459   8.607  12.017   1.527 -0.2827  0.2034 -0.0267
21651W        W37460  15.548   2.691   0.734  0.2701 -0.0510  0.2034
21652W        W37461  13.674   1.158  11.948 -0.0347  0.1682 -0.0378
21653W        W37462  13.224  13.417  15.052  0.1326  0.0165  0.0893
21654W        W37463  10.124  13.596  11.635  0.0129 -0.1022  0.0000
21655W        W37464   5.875  17.917  10.788  0.0814  0.0120  0.0869
21656W        W37465  14.758  15.006   0.385  0.1342  0.4034 -0.1207
21657W        W37466  11.342   3.034  13.608  0.3094 -0.5133 -0.3719
21658W        W37467  11.230   6.117  11.549  0.0124 -0.1781 -0.1201
21659W        W37468  10.845   9.738   3.398 -0.0599 -0.2821 -0.0948
21660W        W37469   0.615   7.107   4.404  0.3304 -0.0200  0.0406
21661W        W37470   0.013  14.956  14.567  0.1708  0.0033  0.2714
21662W        W37471   9.332   5.816  12.328 -0.4051 -0.0438  0.0358
21663W        W37472  15.892   2.845  13.393 -0.2286  0.1153 -0.0714
21664W        W37473   4.597   4.435   3.832 -0.2068 -0.0894  0.4002
21665W        W37474  18.271   3.754  12.964 -0.4673  0.0111 -0.0654
21666W        W37475   7.438  18.494   1.567  0.2691 -0.2054  0.4465
21667W        W37476   6.054  12.814   3.774 -0.3095  0.1404 -0.1865
21668W        W37477  18.500   1.151  11.072  0.1282  0.0974  0.0089
21669W        W37478   5.491   1.945  14.324  0.0247  0.0738 -0.0636
21670W        W37479  12.619   6.594   4.334 -0.1652 -0.0083  0.1685
21671W        W37480   0.635  11.418   0.835  0.2904  0.0532  0.2790
21672W        W37481  16.403   0.094   0.067 -0.3541  0.5772 -0.1651
21673W        W37482   2.713   2.535   9.569 -0.0990 -0.0468 -0.0944
21674W        W37483   8.331   2.033   0.102 -0.1100  0.0360  0.2394
21675W        W37484   1.684   8.736  11.276 -0.2282 -0.2212 -0.0649
21676W        W37485  16.860   0.105  14.156 -0.2413  0.1248 -0.1725
21677W        W37486  13.034  14.316   0.012 -0.1193 -0.0929 -0.0987
21678W        W37487   1.272   3.450   5.127 -0.0925 -0.0714 -0.1035
21679W        W37488   6.838   5.440   2.295 -0.4289  0.1871 -0.3282
21680W        W37489  15.763   9.224  15.322 -0.1264  0.2286  0.1819
21681W        W37490  11.111  18.195   4.882 -0.3312 -0.1149  0.0604
21682W        W37491   2.012  14.320  12.069 -0.3731 -0.1074 -0.3439
21683W        W37492  15.521   9.502  10.362 -0.0781 -0.2814  0.1395
21684W        W37493   4.252   2.034  10.863 -0.0633 -0.3391  0.2094
21685W        W37494   7.087  11.164  13.036  0.1466 -0.2464 -0.1463
21686W        W37495  14.347  17.923   4.431  0.1303  0.1020  0.1647
21687W        W37496  11.491  11.062  11.408 -0.2256  0.1050 -0.0463
21688W        W37497  16.562  18.597   5.640 -0.2275 -0.4093 -0.2894
21689W        W37498   1.395   2.295   2.445 -0.2503 -0.0954  0.0912
21690W        W37499  18.077   5.663  15.063  0.0665 -0.0228 -0.0072
21691W        W37500  17.485  13.153   3.721  0.0587 -0.0185  0.1010
21692W        W37501   9.398  10.902  12.990 -0.0076 -0.1508 -0.1246
21693W        W37502   3.960  13.602  11.374 -0.0231 -0.0050  0.1074
21694W        W37503   9.865   6.393  11.180  0.5676 -0.0500  0.1642
21695W        W37504  16.787  17.430  11.473 -0.0230 -0.4513 -0.0228
21696W        W37505   2.790  13.634  11.944 -0.3193  0.0284  0.1279
21697W        W37506  15.164  10.820  13.182  0.0923 -0.3973  0.3155
21698W        W37507  16.025   1.054  11.998 -0.2816 -0.1864  0.0647
21699W        W37508   8.212   5.162   3.547  0.3355 -0.2073  0.0963
21700W        W37509  13.243  11.779   0.195 -0.2325 -0.0702  0.4370
21701W        W37510  16.767  11.833  13.337 -0.1081 -0.3087  0.2223
21702W        W37511   9.593  15.799   2.055 -0.0260  0.3516  0.1978
21703W        W37512  15.696   9.691  12.281  0.2582 -0.1183 -0.5217
21704W        W37513  18.426  13.882   1.807  0.0826 -0.2197 -0.1147
21705W        W37514   8.731  16.893   1.044 -0.1524  0.0993 -0.0068
21706W        W37515  11.676   6.723   0.213  0.2489 -0.0244  0.2231
21707W        W37516   1.735  13.674  15.089  0.0765  0.0611 -0.3051
21708W        W37517  10.972  11.413   5.024 -0.0482 -0.2095  0.1364
21709W        W37518   2.439   3.813  14.916 -0.0632 -0.0403  0.0963
21710W        W37519   0.595   6.207   2.116 -0.1202 -0.0987  0.2066
21711W        W37520  10.487  17.782   3.326 -0.5062 -0.0942 -0.0101
21712W        W37521   8.464  10.329  13.932  0.0318 -0.4750 -0.0424
21713W        W37522   7.713  12.424   1.507  0.1952 -0.3923  0.1525
21714W        W37523  17.485  16.885  14.008 -0.4865  0.1414  0.0349
21715W        W37524  12.570  11.126  14.922 -0.1573  0.2020  0.0536
21716W        W37525  17.870  18.225  12.027  0.0673  0.0156  0.1103
21717W        W37526  15.777  16.391   1.292 -0.2766  0.1884  0.2219
21718W        W37527   7.697  11.823  13.586  0.1127  0.2086  0.3819
21719W        W37528   8.846   7.183   2.045  0.2628 -0.0083  0.2038
21720W        W37529   6.774   6.866   4.744 -0.2499  0.2058 -0.0096
21721W        W37530   0.136   7.490  12.449 -0.1592 -0.1453 -0.0430
21722W        W37531  18.546   1.736   1.752  0.1786 -0.0659  0.0214
21723W        W37532   8.991   1.245   4.349 -0.2280  0.1764  0.0789
21724W        W37533  11.974  16.641   5.139 -0.2927 -0.2236 -0.0914
21725W        W37534   9.259   9.973  14.247 -0.1904  0.2618  0.2138
21726W        W37535   0.253   7.925  12.683 -0.0258 -0.1514 -0.1255
21727W        W37536   8.975  15.937   0.745 -0.1013  0.2597  0.2590
21728W        W37537  13.605   7.062  14.689 -0.2262 -0.0727  0.0729
21729W        W37538   2.563   6.332  15.000  0.1575  0.0024  0.3285
21730W        W37539  10.536   6.235  10.606 -0.2813  0.0014  0.2849
21731W        W37540  14.826  13.726   2.485  0.0268 -0.1474 -0.1870
21732W        W37541  11.772  17.240  11.071 -0.0667 -0.0587 -0.3381
21733W        W37542  10.044   2.280   2.050  0.4232 -0.1430  0.0942
21734W        W37543  16.413   1.532   5.006 -0.1303 -0.5117  0.1206
21735W        W37544  14.846  10.442  13.151 -0.2753  0.4577  0.1081
21736W        W37545  16.095   8.034  10.408  0.0086  0.3218 -0.2767
21737W        W37546   2.204   7.836   3.543 -0.1946  0.1657 -0.0286
21738W        W37547  13.977   5.619  10.768  0.0080 -0.3059  0.3091
21739W        W37548   5.634  14.429  13.877 -0.0401 -0.3102  0.4115
21740W        W37549   4.858   6.256  12.658 -0.1324 -0.1274 -0.0184
21741W        W37550   9.463   3.739   0.537  0.2720  0.0172  0.1900
21742W        W37551  17.997  13.878   3.711  0.1922  0.1421 -0.1113
21743W        W37552   4.181   7.807  15.487 -0.0202 -0.0202  0.1346
21744W        W37553  13.429   7.675   4.829  0.1958 -0.1415 -0.3500
21745W        W37554   8.825   2.189   0.529 -0.3163 -0.0589 -0.0854
21746W        W37555   4.382   0.661  13.428  0.0690 -0.0232  0.2581
21747W        W37556  17.441  18.225   4.642  0.3565  0.0660 -0.0402
21748W        W37557   4.944   5.831   1.134  0.3595 -0.0157 -0.0274
21749W        W37558  15.559   2.287  11.703  0.2539  0.2220  0.1165
21750W        W37559   8.337   0.415  13.559  0.2253 -0.0713  0.2056
21751W        W37560  17.190   3.208  14.728 -0.2099  0.0592  0.0836
21752W        W37561   4.435   9.233  12.732 -0.2128  0.2775 -0.1483
21753W        W37562  12.802   2.951  15.073 -0.1976 -0.1610 -0.1404
21754W        W37563   5.488  18.244  13.563 -0.0016 -0.0904  0.1602
21755W        W37564   9.047  15.023  11.166 -0.0068  0.0414  0.0795
21756W        W37565   8.079  16.932   0.290  0.0604  0.0052  0.2310
21757W        W37566  12.903   5.672  15.034  0.1360 -0.1825 -0.2099
21758W        W37567  12.097   1.220   0.173  0.0936  0.1654 -0.0568
21759W        W37568   4.651  18.037   1.484  0.1457 -0.1389 -0.1464
21760W        W37569   9.084  17.848  14.260 -0.1610  0.1369  0.1029
21761W        W37570   3.535   0.576  10.512 -0.1127 -0.3009 -0.0919
21762W        W37571   5.447   9.218  13.839  0.0825 -0.0979 -0.2910
21763W        W37572   7.613  13.434  14.518 -0.0172  0.0831 -0.2952
21764W        W37573   9.806   4.775   6.323  0.1295 -0.2011 -0.0741
21765W        W37574  13.821   9.605   3.143 -0.0092 -0.0226  0.0062
21766W        W37575   6.095   2.301  10.966 -0.2774  0.0350 -0.1536
21767W        W37576  17.770   7.546   3.067 -0.0302  0.2026 -0.0854
21768W        W37577  13.642   5.828  12.889  0.1271 -0.0338  0.0080
21769W        W37578   4.354   4.855   5.644 -0.1143  0.0809  0.0535
21770W        W37579   5.167  14.620  10.710  0.4560 -0.1890 -0.0151
21771W        W37580   9.289  13.951  11.904  0.1533 -0.1048 -0.2965
21772W        W37581  10.955  12.193  13.024  0.3059 -0.0152  0.3526
21773W        W37582   9.079   2.523  15.105 -0.0757  0.2358  0.3671
21774W        W37583   4.713  11.347   3.880 -0.0940  0.0973  0.0400
21775W        W37584  17.427   9.909   1.146  0.4822  0.2553  0.0966
21776W        W37585   4.056  13.065   0.513  0.1925  0.0397 -0.0240
21777W        W37586  17.815   4.840   1.002  0.0121  0.0058 -0.2696
21778W        W37587   2.945  11.356   1.416 -0.1748  0.0097 -0.2727
21779W        W37588   1.630   5.121   0.211  0.0298  0.2375 -0.2301
21780W        W37589  10.032   5.247  14.340  0.0944 -0.0353  0.2466
21781W        W37590   4.309  13.707  12.851  0.0685  0.0308 -0.0822
21782W        W37591  15.467   4.016  13.637  0.0564  0.3299 -0.1373
21783W        W37592   9.986   8.188  13.538  0.3175 -0.0667  0.1395
21784W        W37593   4.746   9.932   4.477  0.2976 -0.1458  0.0918
21785W        W37594   2.029   3.170   0.095  0.0030 -0.1930  0.3754
21786W        W37595  11.400   5.166  13.417 -0.0921  0.0762  0.0849
21787W        W37596  16.712  16.571  11.678  0.0255  0.0882 -0.3620
21788W        W37597   8.071   8.069  12.514 -0.1395 -0.0572 -0.0790
21789W        W37598   4.099   7.913   5.550 -0.2617 -0.0813  0.3007
21790W        W37599   7.016   0.832   0.900  0.0336 -0.4526 -0.0823
21791W        W37600   9.263  18.674   0.098 -0.2794  0.1771 -0.2574
21792W        W37601  15.919   2.018  14.644  0.1494  0.1243 -0.1427
21793W        W37602   9.585  15.980  10.843  0.0463 -0.1456 -0.3903
21794W        W37603  15.710   3.917   1.466 -0.4568 -0.1298 -0.0372
21795W        W37604   0.280   1.027   1.158 -0.0385  0.0444 -0.0619
21796W        W37605   9.303   5.956  13.331 -0.1878 -0.0812  0.0132
21797W        W37606   4.719  14.824  15.042 -0.0243 -0.0884  0.2065
21798W        W37607   4.121   0.976   4.138 -0.1658  0.0574 -0.0217
21799W        W37608   5.944  11.602   5.090 -0.2434 -0.2353  0.2694
21800W        W37609  12.945   1.091   5.117 -0.0764 -0.2274 -0.0160
21801W        W37610   8.419  12.225   4.922 -0.1173 -0.1147 -0.0218
21802W        W37611  12.078   5.979   2.703 -0.0507  0.1236 -0.1217
21803W        W37612  17.625   3.200   5.298 -0.2250  0.4857  0.1663
21804W        W37613  16.518  17.916   5.214  0.2995 -0.0905 -0.2930
21805W        W37614  12.763  13.134   2.564  0.0255  0.1313  0.1431
21806W        W37615   6.040   6.652   4.143 -0.0257 -0.1751 -0.0366
21807W        W37616  11.550   4.478  12.116 -0.0480  0.0870  0.0609
21808W        W37617  11.332   0.363   4.999 -0.1465 -0.3595  0.0589
21809W        W37618  18.528   5.939   1.654 -0.0072  0.1370  0.0690
21810W        W37619   1.561  17.290   3.129  0.5047  0.2013 -0.1498
21811W        W37620  10.622  17.594  14.605  0.0753 -0.0687  0.1220
21812W        W37621   0.741   7.863  13.992 -0.0245  0.1590  0.1997
21813W        W37622   1.917  14.047   3.098  0.2635 -0.3087  0.4463
21814W        W37623  14.648  16.944  10.778 -0.1308  0.2086  0.1042
21815W        W37624   6.137   0.353   0.604  0.1498 -0.2835 -0.3281
21816W        W37625  18.664   8.198   3.913 -0.1655 -0.1229  0.0360
21817W        W37626   8.216  11.652   3.110  0.0729  0.4322  0.0676
21818W        W37627  13.018   0.847  13.800 -0.1893  0.0819  0.2165
21819W        W37628  14.183  17.649   3.556 -0.2041 -0.0071  0.4360
21820W        W37629  17.993   9.136   4.161  0.1647 -0.0064 -0.3131
21821W        W37630   5.226  10.259  15.401 -0.1476  0.1760  0.2684
21822W        W37631   7.800   6.146  11.595 -0.3540 -0.1306  0.0660
21823W        W37632  15.925  13.723   0.063 -0.0893 -0.2237  0.0801
21824W        W37633  16.474   3.157  12.090  0.0965  0.3085  0.1212
21825W        W37634   8.108   9.982  11.312  0.0349 -0.1479 -0.0909
21826W        W37635  11.264   6.702   2.244 -0.2466  0.1970 -0.2043
21827W        W37636  17.762   4.279   3.052  0.1610 -0.1991  0.1045
21828W        W37637  15.031   4.079   5.008  0.0329 -0.0738  0.0036
21829W        W37638  10.720   6.340  14.214 -0.2287  0.4014 -0.0192
21830W        W37639   2.998  10.798  14.009 -0.1507  0.0273 -0.2319
21831W        W37640   9.032   7.656  15.321  0.3302  0.1287  0.1555
21832W        W37641   7.673   5.304  15.281  0.1740 -0.0211  0.1130
21833W        W37642   3.578  17.725  14.574 -0.1590  0.1400 -0.5393
21834W        W37643   9.700   2.251   1.570  0.2154 -0.0428 -0.0450
21835W        W37644  15.059  11.543  10.873 -0.3024 -0.0663  0.2387
21836W        W37645   6.937  18.764   3.393 -0.4336  0.1692  0.1181
21837W        W37646  17.206  16.173  12.936 -0.1326 -0.2229 -0.1628
21838W        W37647   9.352   8.879   3.869  0.1651 -0.0133 -0.1399
21839W        W37648  17.600  17.254  13.441  0.0489 -0.2183 -0.1492
21840W        W37649  12.567   2.177  12.935  0.4144 -0.1729  0.0599
21841W        W37650   8.665   9.940  14.996  0.1255  0.2534  0.1263
21842W        W37651  11.875   9.739   3.553  0.0628 -0.1197  0.2802
21843W        W37652   1.118  15.349   2.617  0.0738  0.5088  0.4651
21844W        W37653   0.300   8.613  15.158  0.0002 -0.1087  0.6236
21845W        W37654   5.714   1.406  11.738 -0.3411  0.1658  0.2300
21846W        W37655   3.759  17.901   4.045 -0.1571  0.3517 -0.3184
21847W        W37656   8.277   7.950   5.150  0.0852 -0.1305 -0.0303
21848W        W37657  15.426  17.776   2.208  0.1270  0.1598  0.1206
21849W        W37658  16.448  15.442   1.386  0.2566  0.0045  0.1843
21850W        W37659  11.008  14.056   3.357 -0.2002 -0.1724 -0.0663
21851W        W37660   5.735   4.132   4.236 -0.2247  0.0727  0.2305
21852W        W37661  13.495   5.533  10.649 -0.2108 -0.0955  0.0482
21853W        W37662   0.373  12.040   2.274  0.0442 -0.0559 -0.0578
21854W        W37663  12.145  13.957  13.313 -0.3202 -0.1584  0.1325
21855W        W37664   8.685  15.547   0.890  0.2282 -0.1007 -0.1725
21856W        W37665  17.978   0.863  13.206 -0.0295 -0.1106  0.0773
21857W        W37666  18.637  18.174  12.466  0.1444 -0.0217 -0.0013
21858W        W37667   3.066   0.865   2.808 -0.1465 -0.1845 -0.0117
21859W        W37668   0.069  17.481   5.553 -0.0329  0.0650  0.3397
21860W        W37669   4.889  18.213  12.128  0.1272 -0.2517  0.0006
21861W        W37670   5.464  15.698  14.509 -0.1756 -0.4638 -0.0160
21862W        W37671  14.819  17.011  11.253  0.0676 -0.1218  0.1326
21863W        W37672   3.388  13.800   2.781  0.1368  0.0564 -0.2831
21864W        W37673  14.105  10.274   2.216  0.1044 -0.0247  0.1017
21865W        W37674  15.834  11.684  15.293  0.1219 -0.2851 -0.1227
21866W        W37675  17.461  13.791  13.935  0.0953 -0.0342  0.2115
21867W        W37676   6.230   2.647   0.223 -0.1435  0.0332  0.5018
21868W        W37677   2.037   8.367  13.980 -0.0473 -0.2654 -0.2132
21869W        W37678   7.958   1.220   3.018  0.0740 -0.0658 -0.1812
21870W        W37679   6.777   9.656   3.155 -0.0900 -0.3729 -0.0459
21871W        W37680  14.560  16.052  13.965  0.3267  0.3818 -0.1605
21872W        W37681  11.408   2.771   0.776  0.0124 -0.2605  0.1656
21873W        W37682   5.375  12.753  14.138  0.2724 -0.0621  0.0104
21874W        W37683  15.047  14.883  13.208  0.0915  0.2386 -0.0621
21875W        W37684   1.256  10.063  11.555 -0.3391  0.1054 -0.0360
21876W        W37685   2.157   9.412  14.587 -0.3402 -0.2335 -0.0394
21877W        W37686  13.105  17.114   1.440  0.2207 -0.4153  0.0323
21878W        W37687  12.828   4.198  11.138  0.1065 -0.2758  0.2057
21879W        W37688  13.615   4.857   5.059  0.1631  0.1358  0.2039
21880W        W37689  15.694  11.222  11.024 -0.1216 -0.2452  0.0697
21881W        W37690   4.350   5.325   2.792  0.0019 -0.1134 -0.1949
21882W        W37691   7.626   4.347  15.377  0.2430  0.1886  0.2080
21883W        W37692  17.481  10.069   3.602 -0.1260  0.0640  0.0764
21884W        W37693  17.216  15.168  15.477  0.0793  0.1167  0.0594
21885W        W37694   3.526  15.043   4.403 -0.0967 -0.1791 -0.1258
21886W        W37695   7.813  10.400  12.241  0.0394 -0.0214  0.0072
21887W        W37696  13.853   8.870  14.026 -0.1078  0.3860 -0.0055
21888W        W37697  10.163   2.476  12.541 -0.2885 -0.1422 -0.1610
21889W        W37698   7.801  17.955  13.201 -0.4752  0.0213 -0.4649
21890W        W37699  13.329   8.267   4.853 -0.0068  0.0352 -0.3877
21891W        W37700   0.700  14.434  15.262  0.3574 -0.1085  0.0661
21892W        W37701  16.229   9.640  14.210  0.1253  0.3285  0.2578
21893W        W37702   4.622  13.021  10.370  0.1715 -0.1747  0.1358
21894W        W37703   2.852   6.479   2.613 -0.0876  0.1092  0.0486
21895W        W37704  14.244  12.784   4.019 -0.0673  0.1777 -0.1006
21896W        W37705   2.862   8.296   2.393 -0.0333 -0.0670  0.1303
21897W        W37706  12.789   9.534  15.069 -0.0196  0.4497 -0.1578
21898W        W37707   4.533   2.882  11.790  0.0165  0.1432  0.0024
21899W        W37708   1.583   9.118  11.041  0.2588  0.1262 -0.4745
21900W        W37709  14.218   6.149  14.101 -0.1351  0.3107  0.1034
21901W        W37710  16.197  16.703  13.846  0.2593 -0.0826  0.2024
21902W        W37711   3.499  11.566   0.728  0.1204  0.1933 -0.0821
21903W        W37712   2.314   2.519  13.259 -0.1469  0.2452  0.2324
21904W        W37713   0.413  10.053  12.984 -0.3332  0.1959 -0.3804
21905W        W37714  12.078  18.648   2.248 -0.3516 -0.0372  0.1098
21906W        W37715   5.635   6.397   5.891 -0.3418 -0.1943 -0.0427
21907W        W37716  16.756   6.766   2.430 -0.2698 -0.1736 -0.0911
21908W        W37717   3.286  11.726  12.229 -0.0233  0.0112 -0.0420
21909W        W37718   9.475  11.809   2.232  0.1867 -0.1667 -0.1738
21910W        W37719   9.344  18.082  13.575 -0.2237  0.0330 -0.1845
21911W        W37720  11.013  16.801  15.157  0.1091 -0.0955 -0.2936
21912W        W37721   6.707  11.461   0.229  0.2133 -0.1210  0.0600
21913W        W37722  11.200  15.819   5.192  0.0340 -0.2013  0.0341
21914W        W37723  10.169  10.130   1.536 -0.2411 -0.1866 -0.0848
21915W        W37724  14.626   0.970  15.072 -0.1923 -0.2285 -0.0299
21916W        W37725  16.365  14.225  13.141  0.0410 -0.0468 -0.1170
21917W        W37726  15.428   3.893  14.447 -0.2282 -0.1655 -0.0810
21918W        W37727  14.832   6.318   4.852  0.0338  0.0684 -0.1648
21919W        W37728  17.553  12.148  14.471 -0.0368  0.0496 -0.3185
21920W        W37729   8.282   6.805  14.524  0.1794 -0.1187 -0.0777
21921W        W37730  16.018   7.258  11.103  0.1108  0.2588 -0.1385
21922W        W37731   5.672  11.031  15.525  0.1260  0.2463 -0.0282
21923W        W37732  10.756   1.197   4.243  0.2220  0.0513  0.1389
21924W        W37733  12.367   2.148   2.396  0.2972  0.1737  0.2159
21925W        W37734   9.848   4.255   3.502 -0.0045  0.1699 -0.1312
21926W        W37735   4.318   8.795  12.534  0.2539 -0.0931  0.6103
21927W        W37736  18.180   1.418   0.165 -0.0621  0.0054  0.0060
21928W        W37737  14.144   0.624  10.826 -0.2103  0.0431  0.0746
21929W        W37738   2.874   2.074  12.445 -0.3312 -0.0491  0.1278
21930W        W37739  14.946   4.088  10.756  0.2039  0.0080  0.0444
21931W        W37740   7.553  16.228   2.912  0.1773  0.1403 -0.0966
21932W        W37741  14.895   9.162   0.614  0.1988 -0.2810 -0.0716
21933W        W37742   0.816   7.770   3.097 -0.1929 -0.0267 -0.1334
21934W        W37743   2.593  12.807  13.837 -0.0191 -0.1278 -0.4099
21935W        W37744   6.099   4.483   4.135 -0.2272 -0.1904  0.1474
21936W        W37745   2.421   0.099   1.151  0.1581  0.1212  0.0003
21937W        W37746  10.383  18.664  12.984  0.0527 -0.1456 -0.0883
21938W        W37747  11.869   1.837   4.691  0.1691  0.1988  0.1282
21939W        W37748  12.726   7.174   1.387 -0.2160 -0.1114 -0.0039
21940W        W37749   4.454   1.805   4.239 -0.1549 -0.1200 -0.1941
21941W        W37750  14.984   3.813   1.086  0.1885  0.2338  0.0131
21942W        W37751   2.280   4.308   3.956  0.0757  0.0478  0.0194
21943W        W37752   4.589  11.209  11.048 -0.0357  0.1602  0.2196
21944W        W37753  13.869  17.860  11.468 -0.2092 -0.0981 -0.3434
21945W        W37754   9.710   1.336   3.606 -0.1886 -0.1193 -0.0320
21946W        W37755  10.273   9.236   0.012 -0.1883  0.2557  0.3832
21947W        W37756  13.187  16.628  12.881  0.1235  0.2445 -0.2194
21948W        W37757   4.376   6.069  10.236  0.0031  0.0221 -0.1613
21949W        W37758   5.756   6.131   0.920  0.1350  0.2959 -0.0371
21950W        W37759  15.414  13.163   5.832  0.0364 -0.1647  0.0689
21951W        W37760   1.131  10.343   1.555  0.0247 -0.1327  0.1437
21952W        W37761   7.585  11.921   3.552 -0.3732  0.1960  0.4238
21953W        W37762  11.602  11.201  12.387  0.0562 -0.0066  0.1759
21954W        W37763  11.934  11.806  12.945 -0.0881 -0.3085 -0.1940
21955W        W37764  14.719   4.395   2.802 -0.3173 -0.1748  0.0317
21956W        W37765   0.121  10.537   0.559  0.1302  0.1261 -0.2729
21957W        W37766   5.955  12.633  13.529 -0.2745  0.1324 -0.4749
21958W        W37767   3.800  16.076   2.751  0.1384 -0.2975 -0.0543
21959W        W37768  11.656  17.810  13.885 -0.2688 -0.2082  0.1443
21960W        W37769   0.571  10.374   9.844 -0.2172  0.0975  0.1124
21961W        W37770   6.969  11.645   3.782  0.0036 -0.1064 -0.1679
21962W        W37771  12.684   4.326  12.880  0.0648  0.1848  0.0819
21963W        W37772  13.306   9.697   4.155  0.3452 -0.1740 -0.1514
21964W        W37773  17.866   3.227   0.574  0.0216  0.1471 -0.1957
21965W        W37774   0.701  17.763   3.293 -0.0668 -0.0388 -0.4206
21966W        W37775  17.186   7.783  10.853  0.0580 -0.0290 -0.2005
21967W        W37776   3.905  10.351  14.103 -0.0774 -0.2067 -0.0401
21968W        W37777  12.854   8.327  14.771  0.0647  0.1132  0.0538
21969W        W37778   1.167  17.695   3.112 -0.0801 -0.0926  0.0741
21970W        W37779   0.842  15.056   2.319  0.0942 -0.3851 -0.0852
21971W        W37780   3.142   9.845  12.878 -0.2516 -0.0876  0.0479
21972W        W37781   9.342  11.175   3.580  0.0066 -0.1368 -0.1546
21973W        W37782   7.691  17.108   5.605 -0.2480  0.1329  0.0644
21974W        W37783   5.483  11.689   2.191  0.0710 -0.1241 -0.1045
21975W        W37784  14.821  17.772  15.446  0.2334  0.3157  0.0024
21976W        W37785  15.069   9.120  13.069 -0.2853 -0.4064  0.3997
21977W        W37786  13.859   6.700  13.959 -0.0091 -0.0769  0.2876
21978W        W37787   9.980   3.387   2.068  0.0664 -0.0841  0.1533
21979W        W37788   4.849  14.385   0.560 -0.0636 -0.3863 -0.2168
21980W        W37789  12.826   0.101  11.864  0.1369 -0.2348  0.1189
21981W        W37790   8.316  17.852   3.369 -0.1186  0.0718 -0.1968
21982W        W37791   5.110   9.417  11.107  0.0742  0.3823  0.0973
21983W        W37792  11.321  13.944  11.046  0.3024 -0.0848 -0.2196
21984W        W37793   1.064  13.261   1.143 -0.0725 -0.4278  0.0374
21985W        W37794   7.322   2.449  15.124 -0.0465  0.2838 -0.1064
21986W        W37795  13.070  10.361  15.042  0.1626  0.0923  0.0371
21987W        W37796  13.462  14.750   6.026 -0.0156  0.3363  0.0909
21988W        W37797  14.142  18.777   1.922  0.0357 -0.0014  0.1028
21989W        W37798   1.115   4.085  12.960 -0.0882  0.3027 -0.1756
21990W        W37799  13.759   6.859  11.429  0.1830 -0.0989 -0.0270
21991W        W37800  16.341  12.763   2.465 -0.4250 -0.2845  0.1415
21992W        W37801   9.357   3.590  11.517 -0.0632  0.1163  0.2235
21993W        W37802   1.406   5.930  13.329  0.2605 -0.0062  0.2883
21994W        W37803  14.112  15.797  11.490 -0.0505  0.1794  0.0658
21995W        W37804   8.110   8.684   6.150 -0.0710  0.1468 -0.1335
21996W        W37805   2.733   1.782  13.076  0.0742  0.2313 -0.0720
21997W        W37806  12.252   9.896  11.616 -0.4199 -0.1803  0.3541
21998W        W37807  15.189  12.922   3.970  0.1401  0.3765 -0.1290
21999W        W37808   8.224  11.770  13.621 -0.2285 -0.2653 -0.2466
22000W        W37809   2.310  18.131   1.281 -0.0933  0.2063 -0.1005
22001W        W37810  13.043  17.550   0.601  0.2188  0.3362  0.3657
22002W        W37811  13.518  13.486  14.515  0.0408  0.2776 -0.2767
22003W        W37812  10.400   7.830  13.711  0.1770  0.2357  0.3143
22004W        W37813  17.932  15.570  15.083  0.2022 -0.3116  0.1726
22005W        W37814   6.750   0.352   2.654  0.0012 -0.0002  0.1420
22006W        W37815   8.888   7.120   1.524 -0.1139  0.0961 -0.2215
22007W        W37816  10.959  10.702   0.801 -0.0399 -0.0615 -0.0216
22008W        W37817  15.217  11.441  11.777 -0.0806  0.2059 -0.0678
22009W        W37818  10.543  16.929   5.376 -0.3336  0.0680 -0.0553
22010W        W37819   1.226  14.719  12.393  0.1811  0.0315 -0.2064
22011W        W37820  13.313  12.130  11.179  0.3244  0.1434 -0.4969
22012W        W37821  13.032  12.242   2.459  0.1295  0.0797 -0.0450
22013W        W37822  10.368  17.853   4.825  0.1821  0.2336  0.0553
22014W        W37823   9.656   1.483   0.384  0.0972  0.1508  0.1869
22015W        W37824  13.190  14.254   4.572 -0.2088 -0.1221  0.2480
22016W        W37825  12.208  15.191   0.579  0.0145 -0.0182  0.2076
22017W        W37826   4.139  16.922  13.930  0.3784 -0.1695 -0.1021
22018W        W37827  10.020  14.991  11.675 -0.1056 -0.4578  0.0427
22019W        W37828   8.466  13.318   1.594  0.1211 -0.0161  0.0174
22020W        W37829   7.651  17.543   4.909  0.3350  0.5245 -0.0561
22021W        W37830   8.622  13.759   0.043 -0.0175  0.1030  0.2370
22022W        W37831   8.228  16.839   1.169  0.3276 -0.3482 -0.2017
22023W        W37832  17.948   0.968  14.488 -0.0300 -0.0907  0.1809
22024W        W37833  13.153  11.919   4.817  0.0482 -0.1917 -0.2846
22025W        W37834  15.625   9.840   2.323 -0.0344  0.1305 -0.2139
22026W        W37835   1.923  13.292   0.807 -0.2209 -0.0277  0.0354
22027W        W37836  15.801   3.080  12.590 -0.2436  0.1463 -0.1476
22028W        W37837   0.685  14.142   1.399  0.1358 -0.1038  0.0025
22029W        W37838   4.952  13.941   3.505  0.0597  0.0190  0.0003
22030W        W37839   6.725   1.801  14.177  0.0049  0.2071  0.0140
22031W        W37840   6.211  12.433   2.878  0.0931 -0.0752  0.2411
22032W        W37841   8.072  13.970   0.881  0.0861 -0.0665 -0.0662
22033W        W37842   5.153  10.481   1.855 -0.0280 -0.1035 -0.0740
22034W        W37843   1.305  10.531   0.768 -0.1633 -0.0391 -0.0489
22035W        W37844  14.795  14.756  14.481  0.1278 -0.2728  0.0229
22036W        W37845  13.038  11.510   3.825 -0.0559  0.0301 -0.2761
22037W        W37846  10.149  12.546  15.046  0.1395 -0.0190  0.2986
22038W        W37847  15.674  16.416  14.588 -0.0517 -0.1196  0.0542
22039W        W37848  16.401   4.654   5.143  0.2389 -0.0235  0.3966
22040W        W37849   9.199   3.860  15.290 -0.1773  0.1583  0.2219
22041W        W37850  12.535  13.598  13.051  0.0858  0.2717 -0.0897
22042W        W37851  13.906   8.228  12.088  0.1563 -0.1281  0.0535
22043W        W37852   9.932   7.529   4.416 -0.1759  0.1151 -0.0350
22044W        W37853  18.675   9.860  10.644 -0.0629  0.0037 -0.2975
22045W        W37854   0.229  17.639  11.300 -0.0387 -0.1575  0.0983
22046W        W37855  14.198   9.147  12.225 -0.3359  0.0917  0.0014
22047W        W37856   4.330   6.289  13.083 -0.0103 -0.0483 -0.0523
22048W        W37857   3.976   7.153  15.194 -0.0603 -0.2725 -0.0246
22049W        W37858   3.867   7.335   2.152  0.1482 -0.0335  0.0037
22050W        W37859   9.728  15.648   3.045 -0.1295  0.1399 -0.1075
22051W        W37860   7.463  11.698   2.140 -0.2283  0.1392 -0.0425
22052W        W37861  11.228  18.221   3.848 -0.0720 -0.3402 -0.1752
22053W        W37862   6.772   9.974  14.911  0.4253 -0.4376 -0.1669
22054W        W37863   7.899   8.667   0.487 -0.1345  0.2976 -0.0615
22055W        W37864   5.887   3.339   3.202  0.1349  0.2675 -0.0084
22056W        W37865  13.872  18.446  10.735 -0.0842  0.2011 -0.2354
22057W        W37866  13.382   7.281   2.215 -0.0660 -0.2206 -0.2386
22058W        W37867  13.211  18.611   3.031  0.0202 -0.1495 -0.0159
22059W        W37868   0.023   4.986  13.608 -0.0189 -0.0736 -0.0837
22060W        W37869  18.187   8.175  14.890  0.0074  0.0356 -0.0755
22061W        W37870  16.333   0.302  13.997 -0.1039 -0.2519 -0.1204
22062W        W37871  14.695   9.224  10.492  0.0509  0.2782 -0.0897
22063W        W37872  17.294   9.943   4.106  0.0419 -0.0861 -0.1801
22064W        W37873   1.171  16.877  13.040  0.1186  0.0344  0.0172
22065W        W37874   9.161  17.189   2.234  0.1037  0.3512 -0.0949
22066W        W37875   5.942   2.634  12.265  0.0575  0.2634  0.1657
22067W        W37876   1.360  11.790   4.060 -0.0555  0.0310 -0.1956
22068W        W37877   5.053  16.540  11.538  0.2329 -0.3443 -0.1758
22069W        W37878   8.375  13.688  11.708 -0.2616 -0.1522  0.2748
22070W        W37879  14.410   6.017  10.725 -0.1217  0.2180  0.0953
22071W        W37880   7.486   9.246   3.080 -0.0683  0.4017  0.0606
22072W        W37881   8.244  12.095  14.670  0.0671 -0.0130 -0.1266
22073W        W37882  16.191   3.966   2.869 -0.0939 -0.1528  0.2278
22074W        W37883   1.648   7.181   0.663  0.1705 -0.2603 -0.1702
22075W        W37884  12.575   3.709  12.726 -0.4255 -0.2398  0.1920
22076W        W37885   5.114   3.296   2.516  0.1976 -0.0191 -0.0015
22077W        W37886   7.681  10.633   0.515  0.1630  0.0533  0.1301
22078W        W37887   1.013   3.055   2.992  0.0784 -0.2616 -0.3971
22079W        W37888   5.378   0.519   3.462 -0.0362 -0.2093  0.0500
22080W        W37889   7.999  13.963  13.444 -0.1403  0.0406  0.0159
22081W        W37890   5.581   4.176  10.519 -0.1022 -0.2304  0.1081
22082W        W37891   9.715  17.601  13.629 -0.2023  0.2718 -0.1293
22083W        W37892   4.790  14.334  11.994  0.2051 -0.0925  0.3632
22084W        W37893  15.186  13.633   1.689 -0.1376 -0.1545 -0.1225
22085W        W37894   3.730  12.442  12.806  0.0272  0.0582 -0.1012
22086W        W37895  18.455   3.727   9.659  0.0178 -0.0242 -0.0806
22087W        W37896   9.715   0.473  14.962  0.1591  0.1286  0.3524
22088W        W37897   5.777   8.650  14.052  0.1184 -0.0466 -0.1033
22089W        W37898   0.444  15.062   2.616  0.0126  0.1800 -0.0366
22090W        W37899  18.523  16.194  14.031 -0.1447  0.0267  0.1842
22091W        W37900   3.999  14.097   3.565  0.0410  0.1518  0.2943
22092W        W37901  11.269   2.754  14.042 -0.0203  0.1277 -0.0126
22093W        W37902   6.963  17.668   3.842 -0.0196  0.3049  0.1127
22094W        W37903   3.159  18.325   1.663 -0.0002 -0.2130 -0.0628
22095W        W37904  18.377  14.620  14.914  0.0183 -0.0900 -0.2339
22096W        W37905  14.215   9.985   3.112  0.1959  0.1064  0.1529
22097W        W37906  13.405   4.822  12.336 -0.0022 -0.0282  0.1882
22098W        W37907   6.334  12.147  14.547  0.1627  0.0127  0.1188
22099W        W37908  10.323  18.266  13.980  0.0524  0.0969  0.0614
22100W        W37909  11.182   7.570  13.494 -0.0142 -0.3348  0.2194
22101W        W37910  17.449  17.920  15.122 -0.1299 -0.1597  0.2875
22102W        W37911   0.783   8.610   1.035 -0.0005  0.2259 -0.0948
22103W        W37912  18.376   6.097  14.011  0.0318 -0.1733  0.3465
22104W        W37913  14.303  15.118   3.887  0.0615 -0.0629 -0.2116
22105W        W37914  14.804   4.484  11.156 -0.1590 -0.1037  0.0660
22106W        W37915  17.714  15.041  11.100  0.0289  0.1218  0.4657
22107W        W37916  12.992  17.764  15.513  0.3134  0.2776 -0.0227
22108W        W37917  17.479  18.504   9.939  0.2427 -0.0046 -0.2593
22109W        W37918  17.743   4.208   2.482 -0.5593 -0.2391  0.1318
22110W        W37919   0.209  15.473  14.966  0.1173 -0.1906  0.0796
22111W        W37920   8.535  14.750   4.908 -0.0618 -0.0192  0.3050
22112W        W37921   3.235  10.374  13.617  0.0141 -0.0844  0.1596
22113W        W37922   4.236  13.053  13.338  0.2769 -0.1439 -0.1006
22114W        W37923   4.124   8.527   1.968  0.0820 -0.1819 -0.0060
22115W        W37924   6.998  11.218   3.083 -0.0555 -0.2144  0.0298
22116W        W37925   4.575   4.464   2.072  0.3201  0.0961  0.0016
22117W        W37926  18.146   1.630  14.412  0.0296  0.1329 -0.1295
22118W        W37927  11.557   5.667  14.398 -0.1346 -0.0079 -0.0570
22119W        W37928   7.307  18.149  11.067 -0.0022  0.2697  0.0015
22120W        W37929   1.450  15.377  11.519  0.0674  0.0021  0.1048
22121W        W37930   2.327   9.675   2.205  0.1763  0.1230  0.1563
22122W        W37931   2.763   7.710   4.267  0.0888 -0.1858  0.0044
22123W        W37932   7.612  15.576  13.365  0.0411 -0.0649  0.0524
22124W        W37933   6.851  10.836  14.423  0.2410 -0.1100  0.1534
22125W        W37934   5.725   5.910  14.107 -0.1715  0.0461 -0.0712
22126W        W37935  10.919   9.577  12.138 -0.1637  0.2324 -0.2214
22127W        W37936  15.992   7.030   2.467 -0.2614 -0.0284  0.0314
22128W        W37937  13.269   8.310   3.148 -0.2419  0.0102  0.0287
22129W        W37938   3.958  10.823  13.958 -0.0626  0.1484  0.0853
22130W        W37939  14.345   4.544  14.634  0.3916  0.0304  0.1823
22131W        W37940   1.045  17.986   3.554  0.1652  0.1896 -0.0592
22132W        W37941   8.954  10.853  12.127  0.0700  0.2260  0.0570
22133W        W37942   4.007  15.323   4.416 -0.4496 -0.0957 -0.0585
22134W        W37943  11.539  12.604   1.564 -0.0275  0.1116  0.1783
22135W        W37944  12.909   0.097   0.841 -0.0288 -0.2300  0.2702
22136W        W37945  16.657  17.069   1.969 -0.2885  0.0044  0.3570
22137W        W37946  17.370   4.092   0.061  0.1982 -0.1339  0.0797
22138W        W37947   3.057   7.672   3.880 -0.1032 -0.0009 -0.3113
22139W        W37948  11.549   9.894  14.656 -0.0627 -0.1906  0.1456
22140W        W37949   9.832   6.317  14.098 -0.1951  0.2259 -0.2666
22141W        W37950   8.378  15.194   5.139  0.1928 -0.1323  0.1534
22142W        W37951   8.453   2.504  14.037 -0.0037  0.0492  0.1485
22143W        W37952   0.260  10.359  11.342 -0.2492 -0.1924 -0.1633
22144W        W37953  16.409  13.623   3.328  0.1108 -0.0708 -0.0096
22145W        W37954   4.877  18.399   1.780  0.0390  0.0333  0.2794
22146W        W37955   8.885  18.292  14.109  0.1814 -0.0303 -0.1045
22147W        W37956  11.547  15.900   3.721  0.2168  0.3326  0.0932
22148W        W37957  16.566  11.291  11.495 -0.0877 -0.0444 -0.1536
22149W        W37958   1.178  16.499   3.711  0.1303  0.1996 -0.3215
22150W        W37959  15.266  11.313  11.309  0.0732 -0.2457  0.1267
22151W        W37960  17.248  14.962  11.674 -0.0190 -0.0320  0.3121
22152W        W37961  15.806   9.248  12.440 -0.0550  0.0669  0.0843
22153W        W37962   4.896  12.793   1.539 -0.0521  0.0790 -0.2078
22154W        W37963   8.761   0.820   4.791  0.1845 -0.1498 -0.1442
22155W        W37964   4.774   9.956   3.509 -0.1654  0.1374  0.0527
22156W        W37965   2.524  14.657  14.198 -0.1030 -0.0138 -0.1230
22157W        W37966   3.659   0.133   2.997  0.2570  0.1007 -0.1775
22158W        W37967   6.398  17.084   0.001 -0.2200  0.0219  0.1787
22159W        W37968  17.291  10.914   4.892 -0.0569 -0.2151 -0.1143
22160W        W37969  14.136  18.205  13.570 -0.1557 -0.2847  0.2068
22161W        W37970   5.146   2.362   2.654 -0.0343  0.1525  0.1394
22162W        W37971   1.215   7.204  12.415  0.4654 -0.1124  0.1736
22163W        W37972   9.402   5.382   0.749 -0.0646 -0.0182  0.0337
22164W        W37973  12.412  10.067  11.115 -0.0888  0.1066 -0.1251
22165W        W37974  12.438   4.305  15.309  0.1014 -0.3259  0.1709
22166W        W37975   8.743   6.519   5.648  0.0326 -0.0467  0.3132
22167W        W37976   3.021  15.651  11.745 -0.0711 -0.1070  0.0054
22168W        W37977   2.587  17.674   0.191  0.2442  0.1616 -0.1038
22169W        W37978  10.030  17.437  10.501 -0.1620 -0.0184  0.2285
22170W        W37979   7.005  16.341   3.795 -0.0781  0.0082  0.0215
22171W        W37980   9.066  18.420  11.744 -0.0208 -0.1572 -0.2007
22172W        W37981  17.983  17.141   1.224  0.0754 -0.3194 -0.2214
22173W        W37982  18.542  14.938   3.328 -0.0970 -0.1591 -0.0999
22174W        W37983   3.727  17.301  14.226  0.2404 -0.0947  0.0514
22175W        W37984  10.831  11.583  13.347  0.3090  0.1121  0.0703
22176W        W37985   3.369   2.716   2.716  0.0058 -0.0443  0.0787
22177W        W37986  11.430  14.588   2.689 -0.2370  0.1290  0.4457
22178W        W37987  13.646  11.377   3.064 -0.1470 -0.2128 -0.0012
22179W        W37988   6.900  14.867   0.665 -0.0733 -0.2466  0.0653
22180W        W37989  13.947  10.376  12.157 -0.1978  0.1944 -0.1888
22181W        W37990   4.293  13.797   1.253 -0.0251  0.0146 -0.2369
22182W        W37991  12.395  18.294  14.513 -0.1474  0.3270  0.0680
22183W        W37992  11.242  16.255  13.744 -0.0670  0.1656  0.1563
22184W        W37993  12.113  10.848   4.493 -0.1330  0.1966 -0.0946
22185W        W37994   0.275  14.697  11.626 -0.0020  0.1081 -0.1138
22186W        W37995   2.198  13.896  12.389 -0.0128 -0.0128  0.1008
22187W        W37996   6.576  17.853   2.962 -0.0732  0.0006  0.2601
22188W        W37997  14.226   5.021  14.872  0.0512  0.2851 -0.2203
22189W        W37998   9.995   9.739   0.230  0.1051 -0.1273 -0.2023
22190W        W37999  17.135   5.482   1.699 -0.1008  0.1585 -0.1360
22191W        W38000   4.712   6.351   2.021 -0.0404  0.0741  0.1720
22192W        W38001   4.165  10.961   0.605 -0.2899  0.3862  0.2853
22193W        W38002  14.487  17.798   2.776 -0.0564  0.0406 -0.0816
22194W        W38003  15.100  12.028  12.763 -0.0158  0.0762  0.3824
22195W        W38004  15.802  14.529   3.378 -0.4061 -0.2621 -0.2948
22196W        W38005   8.104   1.604   4.796  0.0461 -0.2862 -0.1065
22197W        W38006  18.404  11.899   4.136  0.1598 -0.0294 -0.2912
22198W        W38007   3.338   8.050  12.770 -0.0163  0.0214 -0.1324
22199W        W38008  13.522  11.453   5.245  0.0788  0.3236 -0.0537
22200W        W38009  17.222   7.239   1.895 -0.2529  0.0071  0.1991
22201W        W38010   2.460  13.606   0.114  0.1051 -0.3169  0.0095
22202W        W38011   4.479  18.757   9.351  0.1154  0.0584  0.2196
22203W        W38012  14.896   8.668   5.510 -0.1586  0.0368  0.3961
22204W        W38013  16.054   1.864   4.264  0.0918 -0.0556  0.0558
22205W        W38014  17.420   0.995  11.120 -0.1746 -0.0787  0.0804
22206W        W38015   8.038   1.476  14.223 -0.1138  0.0336 -0.1597
22207W        W38016   8.526  13.164  14.787  0.3239 -0.0436 -0.0818
22208W        W38017  17.674  11.070  10.804  0.0329 -0.1977  0.1255
22209W        W38018  13.775  13.481   3.046  0.2343 -0.0977  0.2040
22210W        W38019  11.849   7.250  10.957 -0.0733  0.1022 -0.2027
22211W        W38020   6.434   8.747  10.940  0.2497 -0.1059  0.0760
22212W        W38021   7.883  15.318  10.013 -0.2195  0.2110  0.0416
22213W        W38022  14.462   3.535   0.091  0.0054 -0.1513  0.2497
22214W        W38023  10.823   5.442   1.860  0.0299 -0.0060 -0.1049
22215W        W38024  13.890  13.734  14.635 -0.0040  0.1138 -0.0798
22216W        W38025   3.534  15.426  13.723  0.3930  0.1518 -0.1198
22217W        W38026   9.552   2.594  13.614 -0.0604 -0.0358  0.2286
22218W        W38027   3.168   9.849   2.712 -0.4787 -0.0342 -0.4214
22219W        W38028  14.953   4.565   4.992  0.1969  0.2736 -0.0200
22220W        W38029  10.318   0.918   2.951 -0.1710  0.1783  0.0681
22221W        W38030  11.070   6.493  14.603 -0.4630  0.1070 -0.0200
22222W        W38031   7.323  14.248   4.639 -0.0705  0.0218 -0.1367
22223W        W38032   3.719  13.120  12.461 -0.3977  0.2380 -0.1511
22224W        W38033  16.490  10.885  15.473 -0.1129 -0.0028 -0.1940
22225W        W38034  15.786   0.352   3.284  0.0198 -0.0973 -0.1099
22226W        W38035  12.602   9.740   4.290 -0.1053 -0.0183  0.0995
22227W        W38036  12.210   0.826   0.470  0.1052  0.0291 -0.2272
22228W        W38037   6.281  11.433   3.101  0.1607 -0.0543  0.1410
22229W        W38038  15.893   0.120  13.015 -0.3338 -0.0938 -0.5512
22230W        W38039   7.814  17.136   4.098 -0.1438 -0.1943 -0.0489
22231W        W38040  10.816   5.333   4.899 -0.4420  0.0491 -0.0503
22232W        W38041  18.253  10.688  14.126 -0.4204 -0.2789 -0.1524
22233W        W38042   1.771   1.697   5.330 -0.0009  0.0200 -0.2581
22234W        W38043   3.836   0.177  13.791 -0.1184 -0.0736 -0.4172
22235W        W38044   8.831  11.475   0.150 -0.1043 -0.1806 -0.0564
22236W        W38045   2.461   6.308   2.884 -0.0855 -0.0179  0.1998
22237W        W38046   7.880  18.483   1.383  0.4554  0.0395  0.3097
22238W        W38047   8.019  10.719  14.845  0.1031  0.1821 -0.2412
22239W        W38048  10.956  18.735   5.721  0.0890  0.0475 -0.0792
22240W        W38049  12.756  15.472   4.992 -0.1801 -0.1724 -0.1615
22241W        W38050   0.682  16.085  11.182 -0.1071  0.2354  0.2456
22242W        W38051   1.052   5.212   1.966  0.0532  0.2003  0.0874
22243W        W38052  14.069  10.384   0.601  0.3156 -0.0745 -0.1312
22244W        W38053   9.077  15.175   1.339 -0.4110 -0.1023  0.2809
22245W        W38054   1.114  15.154  13.301 -0.0136  0.4480 -0.0980
22246W        W38055  11.268   2.728  12.590 -0.0705  0.0906  0.1434
22247W        W38056   7.626  17.188   1.747  0.0790  0.0764  0.1282
22248W        W38057   6.966  11.202  11.411  0.3743  0.3546 -0.1007
22249W        W38058   8.505   0.553  12.368 -0.1759  0.1824  0.0202
22250W        W38059  10.188  10.900  15.170  0.0564 -0.1587  0.1606
22251W        W38060  13.047   8.527  11.964 -0.0393  0.2497  0.1753
22252W        W38061   5.555   4.947  11.463  0.0649  0.2613 -0.2254
22253W        W38062   3.189  15.620  14.761 -0.0303 -0.1006 -0.2995
22254W        W38063   7.704   1.839  14.136  0.0539 -0.3473 -0.1031
22255W        W38064  13.417   6.281  13.166  0.2944  0.1282  0.2805
22256W        W38065   3.144  18.346  14.186 -0.2698 -0.0888 -0.1555
22257W        W38066  12.290  11.296  14.098 -0.5980 -0.1021 -0.1316
22258W        W38067  18.409  15.063   4.362  0.3805  0.1340  0.1443
22259W        W38068   3.048   2.467   2.343  0.1034 -0.0567  0.1231
22260W        W38069   0.916   7.374  12.991 -0.1279 -0.4431 -0.0258
22261W        W38070   1.247  15.864   1.234  0.1584  0.3929 -0.0128
22262W        W38071   4.530   3.634   0.290  0.2069 -0.1317 -0.3303
22263W        W38072  13.190  11.000  13.424 -0.1399 -0.3806 -0.0689
22264W        W38073  17.791  12.261   1.328 -0.1604  0.3397  0.0197
22265W        W38074  17.076   7.779  15.196  0.0877 -0.0855  0.1499
22266W        W38075  13.350  10.593   3.612 -0.1205  0.1295 -0.2136
22267W        W38076  12.044  16.728  12.173  0.1297  0.1916  0.3564
22268W        W38077  14.368  14.050  11.940  0.1921 -0.1873 -0.0736
22269W        W38078  11.215  16.746   2.878  0.1977  0.0180  0.1965
22270W        W38079  14.354  17.036   5.239 -0.0706 -0.1812 -0.1275
22271W        W38080  13.624   5.407  14.194  0.2145  0.2714 -0.1197
22272W        W38081   4.835   8.613  14.877 -0.1196  0.2832  0.0685
22273W        W38082  14.099  13.342   2.650  0.0855  0.0484 -0.3618
22274W        W38083   0.481  11.363   2.681  0.2614 -0.0878 -0.0944
22275W        W38084  14.080   7.239  12.632  0.2300 -0.1120 -0.3983
22276W        W38085  10.568   0.730  12.532  0.0092 -0.0532 -0.1934
22277W        W38086   4.608   2.082   0.454 -0.2563 -0.2132  0.1977
22278W        W38087   3.872   2.885   1.320 -0.1528  0.1518  0.0132
22279W        W38088   5.082   5.996  11.994  0.0318 -0.0129  0.2612
22280W        W38089  13.665  11.496   0.720  0.1657 -0.0028 -0.2192
22281W        W38090  12.059  16.705   3.314 -0.1495 -0.3142  0.4618
22282W        W38091  14.417   1.398  13.969  0.2724 -0.0330  0.0531
22283W        W38092   1.922   1.138   5.353 -0.3327  0.0575  0.2436
22284W        W38093   4.505   9.683   5.800 -0.1849  0.0505  0.1914
22285W        W38094  11.826   0.500  12.536  0.0404 -0.1566 -0.1209
22286W        W38095  12.425  17.286  13.583  0.0993  0.0368  0.3284
22287W        W38096   4.635   6.302  11.854 -0.0209 -0.0408  0.1344
22288W        W38097   4.106   3.839  11.936  0.2136 -0.2033  0.2460
22289W        W38098  14.455  14.168   3.799  0.0711  0.2077 -0.1797
22290W        W38099  12.547   9.676   2.556  0.3321  0.1568 -0.2166
22291W        W38100   4.791   1.379  11.366 -0.0503  0.2010 -0.1574
22292W        W38101   7.578   6.090  15.365 -0.1414  0.1528  0.2311
22293W        W38102   7.083  11.308  14.054  0.1652 -0.0422  0.2066
22294W        W38103   7.088   8.126   0.968  0.3759  0.0624  0.1864
22295W        W38104  10.855  16.779  14.591 -0.0820 -0.0012 -0.1367
22296W        W38105   8.023  16.233   3.136 -0.1599  0.1732  0.0633
22297W        W38106   9.951  11.487   0.376  0.2657 -0.2537 -0.0021
22298W        W38107   9.734  16.482  11.150  0.1440  0.4730  0.3106
22299W        W38108  16.634  17.200   4.814 -0.0172 -0.0749  0.1819
22300W        W38109   5.261   4.231   4.267  0.0994  0.2036 -0.0475
22301W        W38110   6.165   0.335   2.799 -0.0292  0.0188  0.0280
22302W        W38111   9.554   9.835   2.699  0.1818 -0.2596  0.2355
22303W        W38112  11.698  17.703   1.751  0.0854  0.1162 -0.0189
22304W        W38113  17.906  15.694   3.070 -0.2270 -0.1286 -0.2063
22305W        W38114  16.794   1.084   2.545 -0.1658 -0.1488 -0.0555
22306W        W38115   9.023  12.067   2.285 -0.1299  0.2471  0.4435
22307W        W38116  15.349  14.322   3.179  0.0039  0.3291  0.1443
22308W        W38117   6.021  15.294   3.989  0.0924  0.0005 -0.1246
22309W        W38118  10.507  18.149  14.432 -0.2070 -0.0546 -0.2792
22310W        W38119   1.651   7.128  11.591  0.3609  0.0199 -0.0912
22311W        W38120  18.443   1.979   2.218  0.0647 -0.0575  0.0290
22312W        W38121   7.823  11.824   0.943 -0.0577  0.2881  0.0203
22313W        W38122   5.358   4.085   0.956  0.1781 -0.3166 -0.3267
22314W        W38123  10.130   2.757   5.232 -0.2233 -0.2434  0.1918
22315W        W38124  17.087  15.850  14.861 -0.1868 -0.4453  0.0450
22316W        W38125  13.572  15.770   1.600 -0.1807 -0.4587 -0.1267
22317W        W38126   6.084   1.963  11.813 -0.0117  0.2142 -0.1397
22318W        W38127  10.725  14.537  12.733  0.2765  0.2877  0.1166
22319W        W38128   4.836  18.722   0.419  0.1462  0.0089  0.0841
22320W        W38129  15.601   4.664   0.302  0.3010 -0.0357 -0.1250
22321W        W38130  11.103  18.323   1.990  0.1325  0.1859 -0.4938
22322W        W38131   2.922   0.502  12.707  0.3438 -0.1122  0.1355
22323W        W38132  10.900  17.637   1.411  0.1633  0.1624  0.2606
22324W        W38133   1.460   5.886   1.920 -0.2528  0.2909 -0.0139
22325W        W38134  18.756  13.124   1.488  0.0631  0.0827 -0.4929
22326W        W38135   1.254   0.900  15.076  0.0001  0.3062  0.0127
22327W        W38136   6.887  17.894   0.374 -0.0648 -0.1829 -0.0712
22328W        W38137  16.153   0.297   1.109 -0.1978  0.0944  0.1179
22329W        W38138   9.051   1.561   1.079 -0.1092 -0.0573  0.4240
22330W        W38139   8.538  11.928  13.022 -0.2954 -0.0133  0.0010
22331W        W38140   0.312   8.109  14.100  0.0989  0.1353 -0.2315
22332W        W38141  15.114   2.316  14.388  0.1125 -0.2717 -0.3462
22333W        W38142   3.400  16.486  14.561  0.2425  0.3186  0.0151
22334W        W38143  10.681  18.769   5.066  0.1393  0.3879 -0.0532
22335W        W38144   6.506  14.237   0.621 -0.0085  0.3438 -0.2195
22336W        W38145   6.721  18.409   4.609  0.2455 -0.0165 -0.0586
22337W        W38146   5.040  16.064  14.586  0.1589 -0.0346  0.1262
22338W        W38147  10.181  14.952   4.973 -0.0687  0.0137 -0.0035
22339W        W38148   5.537   1.493   0.668  0.1919  0.0269  0.2238
22340W        W38149   8.937   6.236   3.207  0.0690 -0.1682  0.1833
22341W        W38150  13.523   5.883   5.331 -0.2056 -0.0041 -0.0164
22342W        W38151  13.838  12.542  13.982  0.0168  0.1673  0.1649
22343W        W38152  10.096  11.689  14.174 -0.0132  0.1230  0.1303
22344W        W38153  18.584  12.257   3.600 -0.0187  0.0982  0.1101
22345W        W38154   0.857   9.913  12.782 -0.3661  0.0122 -0.1812
22346W        W38155   6.927  13.648  13.550  0.0536 -0.1644  0.0654
22347W        W38156  17.994   9.257   5.070 -0.2695 -0.1885  0.0726
22348W        W38157  16.969  17.448  15.553 -0.2526 -0.0241  0.0527
22349W        W38158  14.569   7.467   4.698 -0.2336 -0.0438  0.0840
22350W        W38159  18.660   4.255  10.925  0.2006  0.0944  0.0304
22351W        W38160   5.421  16.736   3.990 -0.1801  0.0380 -0.2190
22352W        W38161   0.876   4.704  11.416 -0.0659 -0.2981  0.1000
22353W        W38162   4.162   3.252  11.617 -0.3909 -0.0654  0.1782
22354W        W38163  11.415   8.475  13.542  0.1347 -0.0105  0.3265
22355W        W38164   6.868  12.215  10.638  0.3583  0.0784 -0.1860
22356W        W38165   5.544   3.137   4.161 -0.0706 -0.0290 -0.0050
22357W        W38166  11.330   8.362  10.871  0.1420 -0.1933  0.1919
22358W        W38167   3.629   6.491  11.347 -0.3404  0.0666  0.0950
22359W        W38168   8.492   3.038  12.191  0.2160 -0.3396 -0.0160
22360W        W38169   8.612   5.671   0.922 -0.0915  0.1234  0.2481
22361W        W38170  15.458   7.766   1.568  0.3403  0.0549  0.1923
22362W        W38171   8.691   8.616  12.906 -0.1256  0.1053 -0.2017
22363W        W38172   6.967  18.662  12.344  0.0714 -0.1099  0.0185
22364W        W38173   5.641   1.594   3.158 -0.0144  0.5485  0.0147
22365W        W38174  10.660  13.307  13.140 -0.1329  0.1092  0.0053
22366W        W38175  17.530   1.544   5.275  0.3541 -0.0013 -0.0280
22367W        W38176  12.538  18.403  13.897  0.1700  0.0489  0.1279
22368W        W38177   9.882   1.341  14.744  0.0374  0.2107 -0.0103
22369W        W38178  10.192   1.666  12.681 -0.0566  0.3027 -0.0957
22370W        W38179  16.249   9.272   4.730  0.0569 -0.2630  0.0790
22371W        W38180   4.101   8.312  15.553 -0.0436  0.1955  0.4352
22372W        W38181   5.559   6.975   9.924 -0.1305  0.0138 -0.1066
22373W        W38182   3.922   8.550   2.478 -0.0985 -0.1077  0.1139
22374W        W38183   1.877  17.602   5.441 -0.0816  0.1116 -0.0128
22375W        W38184  17.352  11.672  10.492  0.1602 -0.2761  0.1570
22376W        W38185   7.139   0.369  13.605 -0.0587 -0.0182  0.1148
22377W        W38186  15.579  14.715   2.361 -0.0879  0.4164 -0.1830
22378W        W38187   0.762  14.102  11.456 -0.3441  0.2938  0.0687
22379W        W38188  12.233  13.445  15.121 -0.3796  0.3193  0.1126
22380W        W38189   5.402   0.311  15.097  0.0704 -0.2716 -0.2263
22381W        W38190  16.844   9.541   3.126  0.1390  0.0774  0.2923
22382W        W38191  18.180  12.130  13.265 -0.0168 -0.1709  0.1995
22383W        W38192   1.711   7.822  15.417 -0.0297  0.0298  0.0145
22384W        W38193   5.989   8.492   0.126 -0.1244 -0.1345 -0.0481
22385W        W38194   0.039  11.081   1.416 -0.0545 -0.1987 -0.1685
22386W        W38195   2.297  14.112   4.172 -0.1227  0.0351 -0.0661
22387W        W38196  15.288   4.813   4.200 -0.0916  0.1039  0.2080
22388W        W38197   1.928   3.977  14.937  0.0444  0.2095 -0.3666
22389W        W38198  10.878   5.934  14.567  0.0049 -0.1086  0.0308
22390W        W38199   7.805  12.443  11.670  0.0387  0.1535  0.1188
22391W        W38200  14.265   5.361  11.053  0.0135  0.0017  0.0973
22392W        W38201   7.348   3.667  14.279  0.0791 -0.1672 -0.1931
22393W        W38202   8.270  11.221  15.058  0.2069 -0.1873  0.2873
22394W        W38203   2.890   2.046   1.971 -0.3117 -0.1166 -0.1722
22395W        W38204  14.917  15.864   3.046  0.0609 -0.0089 -0.1105
22396W        W38205   9.873   7.665  14.000  0.2290 -0.0081 -0.0246
22397W        W38206   5.836  15.138  13.113  0.0200  0.0724 -0.1139
22398W        W38207   9.126   5.842  10.883 -0.2121 -0.1081 -0.1022
22399W        W38208  10.408  13.672   2.297 -0.1967  0.3508  0.1220
22400W        W38209   0.766  10.018   1.450  0.2492  0.1265  0.1904
22401W        W38210  15.711  13.653   0.894  0.0204 -0.2310 -0.0656
22402W        W38211  15.235   8.392  13.324 -0.2380 -0.0051 -0.1305
22403W        W38212   0.523   0.600  10.768  0.0086  0.0010  0.0614
22404W        W38213   7.263  11.544  11.322 -0.2425 -0.1011  0.0572
22405W        W38214   8.043  18.572   0.018  0.2418 -0.0276 -0.1487
22406W        W38215  15.559  16.504  11.785  0.0933  0.0129 -0.0222
22407W        W38216  16.220  14.612   3.819  0.1998  0.3053  0.1729
22408W        W38217  15.268   4.301   3.010 -0.0594  0.2011  0.2594
22409W        W38218  18.621   0.276  14.287  0.2151  0.0125 -0.0392
22410W        W38219  11.768   1.419  12.584 -0.3776  0.0964 -0.0269
22411W        W38220  15.558  10.111   1.916  0.0535 -0.1231 -0.0269
22412W        W38221  14.616   4.806  11.790 -0.0643  0.1067  0.3578
22413W        W38222   7.454  10.106  14.740 -0.1354 -0.2292 -0.0680
22414W        W38223  15.569  16.785   3.284  0.1322  0.2804  0.1535
22415W        W38224   8.421  18.447   4.100  0.0231  0.0287 -0.1083
22416W        W38225   7.783   7.839   0.754 -0.1382  0.0934  0.0693
22417W        W38226  10.057   1.353   6.152 -0.0036  0.1650 -0.1627
22418W        W38227  12.480   3.257  14.513 -0.1608  0.1034  0.0159
22419W        W38228   1.357  15.704   2.988  0.0683 -0.1051 -0.0021
22420W        W38229  10.654   3.060   4.352 -0.0600  0.0013  0.1276
22421W        W38230   8.036   3.362  12.976 -0.4240 -0.0966  0.1638
22422W        W38231   8.480   2.540  12.292  0.1389 -0.4237  0.3828
22423W        W38232  16.993   3.674   4.547 -0.3812  0.3591  0.2898
22424W        W38233   6.211  16.601   2.971  0.2956  0.0538 -0.0470
22425W        W38234   1.428   7.245  14.381 -0.2749  0.0592 -0.3817
22426W        W38235   9.846  10.703   2.870 -0.0241 -0.1406  0.0476
22427W        W38236   8.971   1.646   4.661  0.1229 -0.0808  0.0359
22428W        W38237   6.942   9.280  12.631 -0.3171  0.3681 -0.3444
22429W        W38238  13.488  15.199  14.674 -0.2460 -0.0234 -0.1187
22430W        W38239   3.989   3.412   2.447  0.1139 -0.2203  0.1126
22431W        W38240   1.421  16.685  12.289 -0.0095  0.2135  0.1936
22432W        W38241  12.704   3.802   4.661 -0.0460 -0.1361  0.4714
22433W        W38242   5.998   9.774   1.715 -0.2603  0.2636 -0.3912
22434W        W38243  12.812   4.747  13.669 -0.0695  0.1039 -0.0817
22435W        W38244  16.341  17.347   3.713  0.2248 -0.3339  0.1600
22436W        W38245  11.073  15.667  11.820 -0.1396  0.2255  0.3229
22437W        W38246   9.176  14.891   0.575  0.0680 -0.0884 -0.3183
22438W        W38247   3.538   6.008   2.033  0.3403 -0.0286 -0.2079
22439W        W38248  17.522   0.330   1.187  0.2154  0.3302  0.1309
22440W        W38249  12.079  17.997   3.911  0.0953 -0.0944 -0.2583
22441W        W38250  18.577  10.055   4.915 -0.1851  0.0263  0.2790
22442W        W38251   6.625  12.269   3.124  0.0659  0.1660  0.1982
22443W        W38252  10.764  17.923   1.928  0.1244  0.2407  0.2096
22444W        W38253   3.992   0.340  14.679 -0.3134  0.0717 -0.1055
22445W        W38254  12.254  13.809   2.225 -0.3684 -0.2338  0.3670
22446W        W38255  10.668  14.034  11.173 -0.0452 -0.2514  0.1814
22447W        W38256   4.683   6.561  14.790  0.0543 -0.0761 -0.0089
22448W        W38257   3.710   8.208   0.515 -0.1169  0.1006 -0.1232
22449W        W38258  13.394   0.172  15.227 -0.2276 -0.2860 -0.0778
22450W        W38259   5.091   6.407  11.645  0.0502  0.3520 -0.2774
22451W        W38260  10.467  18.691  10.790  0.1140 -0.0720 -0.0215
22452W        W38261   7.563   1.895   1.056  0.3103  0.2220  0.0226
22453W        W38262  16.471  17.878  12.776 -0.3018  0.3126  0.1417
22454W        W38263  17.450  12.943   4.652  0.0640  0.0354 -0.3316
22455W        W38264   0.575   0.879  10.176 -0.0254 -0.1397  0.1145
22456W        W38265  10.108  16.852   5.122 -0.2068  0.1867  0.1043
22457W        W38266   1.221  11.952   1.963  0.0858 -0.0738 -0.0062
22458W        W38267  15.483   7.858  15.277  0.1707 -0.0438  0.1016
22459W        W38268  13.692   6.205   1.344 -0.2666 -0.1019  0.0988
22460W        W38269  13.348   8.658  14.161 -0.2798  0.2242  0.1610
22461W        W38270   6.826   5.921  11.532  0.1061  0.0003 -0.0129
22462W        W38271  12.767  16.703  12.376  0.0611 -0.2799  0.0465
22463W        W38272  10.095   3.076   1.635 -0.0671  0.0939  0.1318
22464W        W38273   7.210   0.042  11.800 -0.2560 -0.0823  0.1015
22465W        W38274   3.090  12.550  14.149  0.0253 -0.2610 -0.0434
22466W        W38275   0.514  17.366   3.567 -0.0731  0.0670  0.1228
22467W        W38276   5.186  14.215   3.137 -0.0190  0.1458 -0.0863
22468W        W38277  13.889   4.783   0.170 -0.2721  0.1044 -0.2643
22469W        W38278  14.553   7.504   4.153  0.0748 -0.1761  0.0148
22470W        W38279   8.492   7.339   1.266  0.0720  0.1638 -0.0292
22471W        W38280   2.732   7.565   5.305 -0.1615  0.1736  0.0854
22472W        W38281   2.706  16.377   1.694 -0.1473 -0.2125  0.1744
22473W        W38282  14.585  18.103   4.914 -0.3108 -0.3595  0.0068
22474W        W38283  16.811   6.824   1.838  0.2340 -0.0945 -0.1050
22475W        W38284   6.634   2.947  15.056 -0.1118 -0.1219  0.1175
22476W        W38285  12.822   6.396   2.190 -0.0335  0.1390 -0.0148
22477W        W38286   5.355  16.235  11.722  0.0038 -0.1918 -0.1654
22478W        W38287   1.923  15.334  14.324 -0.1069  0.2416 -0.3331
22479W        W38288  10.109   1.220   1.197 -0.2561 -0.0796 -0.0417
22480W        W38289   2.745   7.654   2.132 -0.2596 -0.2557  0.0155
22481W        W38290  10.550   0.727  14.551 -0.0603 -0.1206 -0.1065
22482W        W38291  12.694   4.333   3.238  0.0004  0.0105 -0.1224
22483W        W38292  17.877  11.604  11.911 -0.0104  0.0692 -0.1714
22484W        W38293   7.125   6.748   2.389  0.4160  0.0346 -0.0161
22485W        W38294  14.847   6.810  13.400  0.0324 -0.0554  0.2793
22486W        W38295   6.018  13.240   3.282  0.2372 -0.0427  0.1714
22487W        W38296  18.567   0.490   9.935 -0.1770 -0.0754 -0.0110
22488W        W38297  18.692   2.404  14.772 -0.1723 -0.0417 -0.1682
22489W        W38298   2.492   9.422   2.748  0.1464  0.2560 -0.6116
22490W        W38299  13.647   5.154  11.538 -0.0370  0.0354 -0.0996
22491W        W38300   5.707   9.776  14.693  0.2274  0.0347  0.0681
22492W        W38301   8.866  14.538  13.706  0.0063  0.0927  0.1394
22493W        W38302  17.341  13.979   0.703  0.0924  0.1592  0.2446
22494W        W38303   4.312  14.072  13.196 -0.2234 -0.0160  0.2541
22495W        W38304   0.574  14.857   4.978 -0.0913  0.1444 -0.0361
22496W        W38305  17.205   9.780  10.415  0.3306  0.0970  0.3619
22497W        W38306   5.322  18.423   4.373  0.0121  0.0840  0.0756
22498W        W38307   7.110   0.922   3.468 -0.0374  0.1937 -0.2656
22499W        W38308  13.063   7.769   2.445 -0.1866  0.1474  0.1897
22500W        W38309   7.081  15.999  13.859 -0.2745  0.1078 -0.1125
22501W        W38310  13.214   6.331   3.079  0.0431  0.0908 -0.0813
22502W        W38311  12.216   7.613  11.050 -0.2045 -0.0010 -0.2230
22503W        W38312  18.594  12.377  14.096  0.2839  0.1504 -0.0208
22504W        W38313  11.024  12.979  13.061 -0.5100  0.0026  0.1826
22505W        W38314   7.710   4.514  11.851  0.1402  0.3275 -0.0962
22506W        W38315   5.697  14.458   1.102 -0.1882  0.1101  0.0634
22507W        W38316   0.208  16.183  14.206 -0.0534 -0.1885  0.2531
22508W        W38317  18.094   4.985  12.935 -0.0678  0.0208 -0.1619
22509W        W38318  10.947   5.152  11.096  0.0248 -0.2547  0.0711
22510W        W38319  16.895  11.067  11.146  0.1959  0.1542 -0.1843
22511W        W38320  17.587  11.920   9.676  0.0977 -0.1954 -0.0784
22512W        W38321   8.293   4.855   5.082  0.1130  0.2314 -0.2547
22513W        W38322  11.049   9.812  11.495 -0.1761  0.2624  0.0104
22514W        W38323   2.104  18.126  14.641 -0.1851 -0.2036  0.1216
22515W        W38324   1.495   4.216  11.653  0.0620  0.1322 -0.2921
22516W        W38325  12.727  14.228  12.170  0.0941 -0.0310  0.3694
22517W        W38326  17.283   2.088  14.671  0.0505 -0.3066 -0.1033
22518W        W38327   5.816  11.984  11.544 -0.4999 -0.0250  0.2067
22519W        W38328  15.231   9.081   1.550 -0.0983  0.0290 -0.0845
22520W        W38329   9.434   1.358   4.503  0.0367  0.1971 -0.0928
22521W        W38330  11.397   7.824   1.498 -0.0591 -0.1428  0.1526
22522W        W38331   7.258   4.802   1.710 -0.0689 -0.0801  0.2236
22523W        W38332   4.452  14.813   1.933  0.1103 -0.0812 -0.0309
22524W        W38333   3.013  17.778   0.470  0.2838  0.2320  0.1159
22525W        W38334   0.754   6.493  12.736 -0.0122  0.1598 -0.1922
22526W        W38335   5.341  14.102   1.795 -0.0073 -0.1671  0.4328
22527W        W38336  13.474  16.140   1.978 -0.0690 -0.1128 -0.0197
22528W        W38337  14.822   5.533  15.283  0.3051 -0.1776 -0.0769
22529W        W38338   4.047   5.752   3.495 -0.2847  0.3802 -0.2151
22530W        W38339   7.598  11.528   3.837  0.2675  0.3190 -0.1966
22531W        W38340  10.649  16.491  15.328 -0.2164 -0.1166  0.2844
22532W        W38341   8.201   7.267   4.748  0.1769  0.1991  0.0990
22533W        W38342   7.802  10.237   2.846  0.2010  0.2252 -0.2586
22534W        W38343   0.606  17.814  13.934 -0.2057 -0.0423 -0.1138
22535W        W38344  10.380  17.768  14.137  0.1977 -0.3159  0.1366
22536W        W38345  15.786  13.360   4.044  0.1772 -0.2493 -0.3242
22537W        W38346  12.318  14.024  10.839 -0.0990  0.2513 -0.0001
22538W        W38347  12.811   4.632   0.003  0.4292 -0.1234 -0.1430
22539W        W38348  14.179  16.275  11.464  0.0102 -0.1143  0.0221
22540W        W38349   6.376  16.276   3.839  0.0191  0.0555  0.0832
22541W        W38350  14.767   8.375  12.360  0.0218  0.0134 -0.1527
22542W        W38351   0.956   8.059   5.917  0.2264  0.1079 -0.0518
22543W        W38352   5.620   8.765   4.224  0.0725 -0.2555 -0.2283
22544W        W38353   6.094   8.197  15.340  0.0920 -0.3351  0.0588
22545W        W38354  13.402  14.492   5.578  0.3163  0.0305  0.1148
22546W        W38355   2.294  16.813  12.466 -0.0158  0.1205 -0.1763
22547W        W38356  13.092   9.556   3.692 -0.2374 -0.0233 -0.1362
22548W        W38357  10.251   3.362   1.193  0.0134 -0.1906  0.0867
22549W        W38358  14.254   6.936  12.156  0.0005 -0.0443  0.1696
22550W        W38359   0.716  12.520  13.100 -0.1876 -0.0771 -0.3380
22551W        W38360   0.152   2.460  14.187 -0.1045  0.0331 -0.1219
22552W        W38361   3.502   9.517   3.537 -0.3517 -0.2073  0.1738
22553W        W38362   6.630   6.921   1.343  0.0649  0.2184 -0.1442
22554W        W38363   3.159  11.017  13.565 -0.3006  0.2022  0.2775
22555W        W38364  12.983  10.841  14.798 -0.0175 -0.1302 -0.0431
22556W        W38365  17.230   2.719  13.411 -0.1845  0.1195  0.5044
22557W        W38366   3.144   2.592   0.503  0.0755 -0.1146  0.0463
22558W        W38367  13.137  18.558  12.197  0.0762 -0.2088  0.0678
22559W        W38368  17.511   2.284  13.404 -0.1645  0.2720  0.2779
22560W        W38369   8.998  12.294   1.548  0.0287  0.1991  0.1800
22561W        W38370  13.729  12.583   4.412  0.0202  0.1085 -0.0935
22562W        W38371  17.840  18.536   4.460  0.0244 -0.1231 -0.1465
22563W        W38372   8.716  18.456   0.707  0.1985 -0.3607 -0.1234
22564W        W38373   2.585   6.611  14.022 -0.1011 -0.4573  0.0826
22565W        W38374  15.182  16.914  10.673 -0.0403 -0.0151 -0.1167
22566W        W38375  11.206  16.122   4.575 -0.0232 -0.0737  0.0617
22567W        W38376   4.454   7.791  14.464  0.2378  0.2192  0.1184
22568W        W38377  16.933   4.023  12.335  0.0403  0.2702  0.0199
22569W        W38378  15.475  15.536  14.342 -0.2236  0.2149  0.3876
22570W        W38379   2.007   3.173  12.565 -0.0445 -0.1632  0.3380
22571W        W38380   2.595   6.314   3.384 -0.0736 -0.2775  0.0010
22572W        W38381   6.775  10.955   2.577  0.0215 -0.1414 -0.0772
22573W        W38382  13.967   8.149  14.576 -0.0092 -0.1222  0.1027
22574W        W38383   3.137   8.048  10.582  0.3472  0.0085  0.1547
22575W        W38384   4.255  18.244  12.929 -0.0139  0.6029  0.0168
22576W        W38385  14.583   6.131  12.641 -0.0478  0.2666 -0.0509
22577W        W38386  13.262  17.493   5.714 -0.0347 -0.2348 -0.1148
22578W        W38387  15.637  10.074   4.592  0.0366 -0.0385 -0.0071
22579W        W38388  17.938   9.261  14.133 -0.2013 -0.2435  0.0603
22580W        W38389   8.822  13.258   4.825  0.2713  0.1041  0.2574
22581W        W38390  10.376  10.593   9.620  0.3224 -0.3128 -0.1465
22582W        W38391  16.421  10.631   4.568  0.0901  0.1211 -0.1216
22583W        W38392  18.522  11.920   3.156  0.2256  0.1926  0.0683
22584W        W38393   3.209   0.566   1.182 -0.0806 -0.1618  0.2589
22585W        W38394   2.858   5.588   3.678  0.2615 -0.0575  0.2134
22586W        W38395  10.469   4.940  14.365 -0.1850  0.1062 -0.1373
22587W        W38396   9.888   7.420  14.397  0.0120  0.3734 -0.1275
22588W        W38397  10.746  10.131   0.109 -0.0106  0.5467  0.0754
22589W        W38398   6.538   4.275   1.424  0.0929 -0.2661  0.1394
22590W        W38399  14.261   3.811   5.583  0.1014 -0.2064 -0.0783
22591W        W38400   8.193  17.158   0.769 -0.0152  0.3080  0.0887
22592W        W38401  14.618   5.420  11.462 -0.1182  0.1455 -0.0120
22593W        W38402   9.307   6.346  15.391  0.0697 -0.1220  0.0776
22594W        W38403   3.624   4.979  10.490  0.0537 -0.0617  0.0144
22595W        W38404   7.946  14.228  12.043  0.0216  0.2842 -0.5091
22596W        W38405  11.036  14.949   1.375 -0.1356 -0.1939 -0.0667
22597W        W38406  11.908   5.646   3.932  0.1315  0.0696 -0.4308
22598W        W38407  13.073   4.585  10.984 -0.2614  0.1922 -0.0104
22599W        W38408  17.390  13.332   1.525  0.2828  0.0603 -0.1066
22600W        W38409  14.545   6.673   0.822 -0.0864  0.3298  0.1779
22601W        W38410   3.314  13.919  13.104  0.0985 -0.1037 -0.1605
22602W        W38411   1.433   3.932   3.516  0.0321  0.2439  0.0223
22603W        W38412   2.966   7.571  13.079  0.0149  0.0100 -0.1387
22604W        W38413   4.567   9.222   0.485  0.1481  0.2265  0.3483
22605W        W38414  13.164  12.359   3.056 -0.0036  0.2474 -0.0756
22606W        W38415  10.172  14.347   5.179 -0.0871 -0.1219 -0.1396
22607W        W38416  14.227  16.583   1.467  0.3099 -0.1436 -0.3660
22608W        W38417  16.856   0.319   0.307  0.0332  0.1070 -0.0782
22609W        W38418  11.030  15.364  15.393 -0.0071 -0.1375 -0.1221
22610W        W38419  13.865  12.428   0.563 -0.2999  0.1232  0.1117
22611W        W38420  13.087  16.814   4.694  0.0610  0.0871  0.0214
22612W        W38421   2.690   9.414   1.130 -0.0943  0.1951 -0.2110
22613W        W38422  13.292   6.561  12.475  0.1361  0.0023 -0.0990
22614W        W38423  18.021  15.942   5.413 -0.0719  0.0072 -0.0446
22615W        W38424  10.987  14.354   5.140 -0.0046  0.1267  0.0970
22616W        W38425   8.883   1.828  11.292 -0.1252 -0.0967  0.1574
22617W        W38426  10.404   5.956  14.121 -0.0086 -0.1025 -0.3812
22618W        W38427   2.990   2.763   0.991  0.3216 -0.1421 -0.0595
22619W        W38428  15.098  17.277  13.262  0.3474  0.1655 -0.0335
22620W        W38429  13.782  13.552   3.555 -0.0524  0.1749  0.2192
22621W        W38430   2.777   4.711   4.620  0.1366 -0.0574 -0.3550
22622W        W38431  11.332   9.150   1.464 -0.3904  0.0351 -0.0888
22623W        W38432   4.985  14.371   2.705  0.1049 -0.0562  0.2464
22624W        W38433  16.948   1.969  14.063  0.0633  0.2227  0.2039
22625W        W38434   3.405  15.979  15.530  0.0024 -0.0185 -0.0003
22626W        W38435   4.941  14.342  12.479 -0.0077 -0.0680 -0.1619
22627W        W38436  12.784  16.146   0.852 -0.1565 -0.0764  0.0039
22628W        W38437   3.493   9.174  14.203  0.0362 -0.0237  0.0597
22629W        W38438  15.087   2.713   2.052  0.0544  0.0817 -0.0192
22630W        W38439   3.705   1.288  14.464  0.0412  0.2777 -0.0950
22631W        W38440  12.541  18.423   3.850 -0.3097  0.0945 -0.1293
22632W        W38441  10.183  14.033   2.608  0.0526  0.0125  0.0858
22633W        W38442  13.435   8.307   0.002 -0.0862  0.1588  0.1310
22634W        W38443  10.570  10.491  11.640  0.0416  0.1070  0.0647
22635W        W38444   8.940   8.084  13.394  0.1692 -0.0973 -0.0211
22636W        W38445  11.076   8.311   3.186 -0.1132  0.3377  0.0970
22637W        W38446  13.892   7.831  15.032  0.0632  0.0776  0.2011
22638W        W38447  18.235  16.761  11.510 -0.0179 -0.1004  0.2457
22639W        W38448   3.085  16.499   3.331  0.3181 -0.0208 -0.0567
22640W        W38449   4.480  15.286  14.889  0.0769  0.0426 -0.1075
22641W        W38450  14.842   0.120  13.640  0.1159 -0.0251 -0.0342
22642W        W38451  12.821  14.598   1.104 -0.0939 -0.0256 -0.1671
22643W        W38452  16.855   3.879   3.581 -0.2746 -0.0374  0.0544
22644W        W38453   3.037  11.681  11.831 -0.2159  0.0875 -0.1373
22645W        W38454   3.298   0.697   0.708  0.2240 -0.1320  0.0740
22646W        W38455   3.276   4.612  13.088 -0.0003 -0.0109  0.1653
22647W        W38456  16.695   0.402  14.487  0.0376 -0.3579  0.0867
22648W        W38457   3.533  13.888  13.615 -0.1036  0.4288  0.0124
22649W        W38458   7.826   5.947  12.614  0.0638  0.2009 -0.0407
22650W        W38459  13.944   1.418  12.675  0.2586  0.0147  0.2396
22651W        W38460   5.595   8.330   1.912 -0.1402 -0.0893 -0.2991
22652W        W38461  12.200  14.109  14.360 -0.0773  0.0960 -0.2506
22653W        W38462   8.051  10.505   4.349 -0.1024 -0.1231  0.1487
22654W        W38463  13.140   6.369  11.129  0.2976 -0.0410  0.0020
22655W        W38464   5.320   4.024  13.438 -0.0032 -0.1492 -0.2705
22656W        W38465   4.229   9.163   0.103  0.0739 -0.0033 -0.2161
22657W        W38466   1.150   8.440   3.984 -0.3431 -0.3711 -0.0921
22658W        W38467   5.953   7.840   4.787 -0.1835 -0.1991 -0.1394
22659W        W38468   6.548  18.329   0.093 -0.2262  0.0108  0.2257
22660W        W38469   8.007  17.003  12.250 -0.2324 -0.2386  0.0893
22661W        W38470   5.224  17.813  10.241  0.1885 -0.0942 -0.0135
22662W        W38471   5.656   3.859   0.207 -0.1584 -0.0268 -0.0832
22663W        W38472   2.040   5.905   5.789 -0.1130 -0.3152 -0.3085
22664W        W38473   0.761   0.853   4.777  0.0768  0.1820 -0.2317
22665W        W38474  16.443   2.458   0.637 -0.0120  0.2006  0.1108
22666W        W38475   5.778   1.910   3.629 -0.0438 -0.0520  0.2406
22667W        W38476   4.213  14.657  11.368 -0.0014 -0.2486 -0.1759
22668W        W38477   4.240  15.930   2.577 -0.0529  0.2229  0.1960
22669W        W38478  16.085  14.568  15.256 -0.2060  0.1491 -0.0891
22670W        W38479  15.735  18.676   3.558 -0.0275 -0.2137 -0.1083
22671W        W38480   6.113   2.989  13.913  0.0721 -0.3513 -0.1614
22672W        W38481   3.395   1.973   2.342  0.1594  0.0346 -0.0062
22673W        W38482   8.278   8.682  14.208  0.0146 -0.1657  0.0680
22674W        W38483   8.677  13.704   3.436 -0.0902  0.0913  0.1504
22675W        W38484  17.967   9.949  13.286 -0.3739 -0.0663  0.3545
22676W        W38485  12.499   2.728   1.241  0.0324 -0.0197  0.0869
22677W        W38486  17.410   1.930   3.435 -0.1525  0.0689  0.1539
22678W        W38487  16.345  10.636   3.312 -0.3204  0.0349  0.2125
22679W        W38488   3.809   1.968   0.794 -0.0120  0.1036 -0.3779
22680W        W38489  14.871  16.703  15.148 -0.0770 -0.3573 -0.0399
22681W        W38490   5.328   0.355  13.398 -0.0725  0.2181 -0.0012
22682W        W38491   6.966   1.702   4.575 -0.2208  0.0257  0.0961
22683W        W38492  11.207   5.206   0.152  0.0769 -0.1279 -0.0867
22684W        W38493   3.505  17.520  10.532 -0.0120  0.3326 -0.1328
22685W        W38494  16.035   2.027   1.812  0.2987 -0.1755 -0.0116
22686W        W38495   9.287   5.278  14.775  0.1640  0.0696  0.2508
22687W        W38496  10.511   8.915  11.873  0.1476 -0.0530 -0.1503
22688W        W38497   3.107  14.792  15.219  0.1717  0.3768  0.2585
22689W        W38498  14.555  12.490  13.103  0.0765 -0.2235  0.1010
22690W        W38499  10.033  16.485  12.160 -0.1467  0.0471  0.1484
22691W        W38500  13.085  11.318  14.450 -0.0787  0.1154  0.0997
22692W        W38501   6.620   8.023  12.822  0.2101  0.2513  0.1597
22693W        W38502   1.561  15.611  13.662  0.1442 -0.0496 -0.3091
22694W        W38503   6.980  13.390   0.610  0.0706 -0.0945  0.2809
22695W        W38504   3.281   8.525  12.885 -0.1225 -0.3479 -0.1607
22696W        W38505   3.022  18.009  14.983 -0.1221 -0.0119 -0.0803
22697W        W38506   0.728  16.504   0.428  0.2411  0.2095 -0.0107
22698W        W38507   1.867  15.498   0.757 -0.0239 -0.0035 -0.0285
22699W        W38508   6.022   5.022   3.305  0.1545 -0.4017 -0.0917
22700W        W38509   1.804   0.976  10.315 -0.0445 -0.1243 -0.1176
22701W        W38510  11.630   2.954   4.341 -0.0172  0.2593  0.1505
22702W        W38511  14.886   6.397  11.605 -0.0090  0.0518  0.0731
22703W        W38512  12.121   8.202   1.994 -0.1489  0.0047 -0.3387
22704W        W38513  11.525   6.336  15.437  0.0838 -0.0016  0.3370
22705W        W38514   4.031   9.116  13.325 -0.0272  0.1902 -0.5116
22706W        W38515   5.063   9.708  14.735  0.0455  0.1226 -0.1186
22707W        W38516   4.242  10.196   2.824  0.1279 -0.0507 -0.0436
22708W        W38517  14.256   4.547   4.348 -0.0722  0.0127 -0.0214
22709W        W38518  10.892  15.058   0.190  0.0477  0.1746 -0.2576
22710W        W38519  14.406   3.001  11.289  0.0587 -0.0245  0.1562
22711W        W38520   7.578   5.937  13.480 -0.3781 -0.2929  0.2317
22712W        W38521   6.795  11.521   4.350 -0.1723  0.1214 -0.0701
22713W        W38522  16.153  17.711  15.077  0.1551 -0.1041  0.0132
22714W        W38523  11.292  15.380   5.457  0.2216 -0.2798 -0.1194
22715W        W38524  13.138  14.310   2.483  0.1801 -0.2295 -0.2605
22716W        W38525   9.873   5.633  12.657  0.4472 -0.1115  0.1505
22717W        W38526   5.304  11.925  13.458  0.1310 -0.2215 -0.0291
22718W        W38527   3.487   7.897   1.353 -0.1102 -0.0159 -0.0334
22719W        W38528  15.659   9.014   4.303  0.2415 -0.1481 -0.4196
22720W        W38529   9.042  10.244   3.009  0.0751  0.2814 -0.1001
22721W        W38530   4.327  14.678  10.580 -0.0893  0.2334 -0.1061
22722W        W38531   4.076  16.084  12.813 -0.1464  0.1977 -0.1593
22723W        W38532  14.674   7.287   2.149  0.3177 -0.0097  0.1202
22724W        W38533  10.747  18.288  13.109 -0.0897  0.2887  0.0666
22725W        W38534   1.037  16.799  13.853  0.1603  0.0207 -0.0706
22726W        W38535  15.364  16.896  13.340  0.1403  0.1314  0.2914
22727W        W38536   2.156   3.454  13.057 -0.0833  0.1473 -0.0422
22728W        W38537   0.732  15.392   1.623 -0.0052 -0.1724  0.0891
22729W        W38538   8.351   9.017   3.054 -0.0083 -0.0860 -0.1952
22730W        W38539  12.188  18.395  13.439 -0.1464 -0.1466  0.0100
22731W        W38540   2.449   3.485  15.377 -0.1421 -0.0895 -0.0627
22732W        W38541   4.804   8.889  12.619  0.2160  0.0302 -0.2301
22733W        W38542  17.307  13.010  13.880 -0.1794 -0.4067 -0.2251
22734W        W38543   7.756  18.156   2.713 -0.1847 -0.1728 -0.1700
22735W        W38544  16.029  12.891  12.581 -0.1513 -0.1623 -0.0256
22736W        W38545  16.554   2.496   3.624 -0.3278  0.0231 -0.1663
22737W        W38546   1.437  16.099  13.678 -0.1369 -0.0062 -0.4324
22738W        W38547  16.411   3.709  13.150  0.1794 -0.3808  0.1081
22739W        W38548  18.573   5.431  10.778  0.1732 -0.1985  0.2372
22740W        W38549  15.826   2.186  10.726 -0.3921  0.0632  0.0212
22741W        W38550  11.280   5.700  15.208 -0.2011  0.1301  0.0532
22742W        W38551   8.940  14.290   0.876 -0.1743  0.4142 -0.1810
22743W        W38552   8.791  13.675  13.704 -0.1476  0.0606 -0.1961
22744W        W38553  10.822   6.358   4.934 -0.2139 -0.2721  0.1048
22745W        W38554   7.413   4.731   1.172  0.0367 -0.1188 -0.1300
22746W        W38555   4.608   1.883   1.874 -0.0301  0.1085 -0.1236
22747W        W38556   8.800   8.013  14.132  0.0746  0.2089 -0.0136
22748W        W38557  18.385   6.995  14.156  0.3051 -0.0434  0.0511
22749W        W38558  11.803   2.742   5.265 -0.0934  0.2208 -0.0527
22750W        W38559   5.266   4.088   1.926 -0.1746  0.1228 -0.1056
22751W        W38560   4.155  18.113   1.777  0.3155 -0.1683 -0.0033
22752W        W38561  13.004   3.121   0.674  0.0130  0.0238 -0.0731
22753W        W38562   8.818  15.417   4.827  0.2037 -0.0690 -0.0397
22754W        W38563  10.499  16.272   4.077  0.2350  0.3246  0.1138
22755W        W38564  18.513   5.207  13.913 -0.2115  0.0412  0.0898
22756W        W38565   3.954  15.196  11.466 -0.0464  0.1903  0.1314
22757W        W38566   0.155  16.565   2.206 -0.0603 -0.2759 -0.5593
22758W        W38567   7.156   6.306  13.995  0.0318  0.1003  0.2027
22759W        W38568  16.009  11.877  14.233 -0.1429  0.0071  0.1921
22760W        W38569   0.616  13.423  13.000  0.0195  0.1088  0.1939
22761W        W38570  18.329   3.851   3.821 -0.1039  0.0166  0.0437
22762W        W38571  16.361   8.424  15.010  0.2325 -0.1217  0.1024
22763W        W38572  10.913   4.145  12.931 -0.0415 -0.3981  0.2322
22764W        W38573   9.767  16.999   1.512  0.2032 -0.0141  0.2334
22765W        W38574   4.221   6.877   5.208  0.0332 -0.1717  0.4574
22766W        W38575   6.743   6.875  11.531 -0.0936  0.1116  0.1909
22767W        W38576   9.985   2.910  13.033 -0.1348 -0.2183  0.1487
22768W        W38577  16.377   9.729  14.650 -0.1672  0.1561  0.1722
22769W        W38578   0.923   6.345   1.132  0.2043  0.1707  0.3885
22770W        W38579   7.699  17.525   0.665  0.0712 -0.0267  0.0360
22771W        W38580  11.720   8.723  10.951  0.3069 -0.0024 -0.1540
22772W        W38581  16.559   9.767   0.875  0.1768  0.0238  0.0967
22773W        W38582   6.454  17.374   2.881 -0.0974 -0.1378  0.0661
22774W        W38583   2.652  17.081   4.902  0.1625 -0.1676 -0.1172
22775W        W38584  16.388   0.245   4.105 -0.2626 -0.2880  0.0687
22776W        W38585   8.615  12.108   3.913  0.0637  0.0449 -0.3814
22777W        W38586  18.584  16.751  14.197  0.0656 -0.1053 -0.1759
22778W        W38587   1.483   3.524  11.154  0.1280  0.0043 -0.2019
22779W        W38588   8.714   1.119   5.165 -0.3093  0.0830 -0.2232
22780W        W38589   5.738  17.215  14.323  0.3638 -0.2040  0.0124
22781W        W38590   5.895   6.245  15.465 -0.1221  0.0507 -0.1060
22782W        W38591  11.600  12.114  13.783 -0.0435 -0.1704 -0.0830
22783W        W38592   0.705  17.685   3.950 -0.0267 -0.0936  0.0509
22784W        W38593   6.042   8.543   1.036  0.1708  0.0313  0.1055
22785W        W38594   8.946  17.828   0.658  0.0089  0.3029 -0.0899
22786W        W38595   8.297   1.493  13.182  0.1103  0.0995  0.1353
22787W        W38596  18.380  18.148  12.026  0.0561 -0.1026  0.1383
22788W        W38597  15.836  14.312   3.937 -0.0301 -0.3286 -0.1924
22789W        W38598   0.284   6.680   3.884 -0.1832  0.0964  0.3792
22790W        W38599   3.282   2.777  12.259  0.1958  0.0821 -0.0169
22791W        W38600  12.251  16.679  12.598  0.0236  0.0497 -0.0484
22792W        W38601  16.238   7.810   3.284  0.1837  0.1805  0.1697
22793W        W38602  13.170   2.704   5.679  0.1953 -0.2325 -0.0421
22794W        W38603   1.172  10.945  11.766 -0.1164  0.0202  0.3015
22795W        W38604  12.700   1.619   0.249 -0.1539  0.1838  0.1903
22796W        W38605   1.320   4.886  15.053  0.0588 -0.2145 -0.2894
22797W        W38606   2.912   3.986  13.205  0.1325 -0.2210 -0.1099
22798W        W38607   1.776   3.412   0.592  0.2204 -0.0383  0.1099
22799W        W38608  17.670  10.973   0.631  0.1436  0.4871 -0.0314
22800W        W38609  11.891   0.170  10.161 -0.1487  0.1359  0.1621
22801W        W38610   8.007   9.190  11.840  0.0471  0.2240  0.4455
22802W        W38611  15.986  16.285  11.756  0.1888  0.1316  0.0083
22803W        W38612  14.430   5.131  12.969 -0.0649 -0.1730  0.2986
22804W        W38613   6.583   9.639  11.012  0.1756  0.0815 -0.0471
22805W        W38614   6.931   2.240   3.909  0.0125  0.1163 -0.0273
22806W        W38615  18.618  15.617  13.467  0.3195 -0.2588  0.1588
22807W        W38616   2.068  18.409  14.248  0.1501  0.0501 -0.3060
22808W        W38617  15.294   5.538   0.635 -0.1469  0.0363  0.0683
22809W        W38618   8.710  17.332   4.587  0.1609 -0.0086 -0.2400
22810W        W38619   2.634   3.947   4.093  0.2483  0.0729 -0.2740
22811W        W38620   4.394  17.613   1.227  0.4119 -0.0604 -0.0712
22812W        W38621   4.607   4.676   0.413  0.5022 -0.0803 -0.1895
22813W        W38622   6.203   2.233   4.386 -0.1398 -0.1291  0.0907
22814W        W38623  15.769  14.099  15.349  0.2317 -0.0713  0.0820
22815W        W38624   6.035  15.564   0.414  0.0418 -0.3897 -0.0359
22816W        W38625   9.863  12.577   1.047 -0.2868  0.0449 -0.2410
22817W        W38626  14.138  12.297   4.250 -0.1838 -0.1351  0.1928
22818W        W38627  13.256  15.070   4.282  0.2367 -0.1346 -0.0650
22819W        W38628   6.773  12.301   0.332 -0.2413  0.2443 -0.0161
22820W        W38629   5.664  17.887   1.645 -0.0709  0.1331 -0.0585
22821W        W38630   7.596   8.911  13.948 -0.1270 -0.0033  0.0046
22822W        W38631   8.204  11.076   1.337 -0.0797 -0.3066 -0.0740
22823W        W38632  12.556  17.303   5.379  0.3095  0.0870 -0.0510
22824W        W38633  10.635  16.971   1.051  0.1299 -0.1115  0.1405
22825W        W38634   0.419  14.823  13.854  0.1461  0.0136 -0.1220
22826W        W38635   9.619   0.725   0.493  0.3362 -0.2973 -0.1095
22827W        W38636   9.362   6.430  11.093 -0.0630  0.0884  0.4545
22828W        W38637   7.998   6.948  13.770 -0.0296  0.3044 -0.0037
22829W        W38638  17.151   5.028  12.054 -0.0397 -0.0101 -0.1685
22830W        W38639  17.554  17.263  12.038  0.1867 -0.3900 -0.0084
22831W        W38640   9.270   8.491   0.083  0.0937 -0.0272  0.2078
22832W        W38641  12.819  14.609   3.198  0.1180  0.3687  0.0865
22833W        W38642  17.221   2.695  11.574  0.2150 -0.1012 -0.1656
22834W        W38643  14.925   8.592  13.809  0.0519  0.2875 -0.1073
22835W        W38644  15.427   1.862  13.725 -0.0983 -0.2012  0.4429
22836W        W38645  11.831   5.111   2.332  0.2895  0.0088  0.0139
22837W        W38646   2.403  11.158  10.592  0.2242 -0.0605 -0.1305
22838W        W38647   0.334  16.822   3.621 -0.0995  0.4676 -0.1569
22839W        W38648   7.314   1.034   0.488 -0.2616 -0.1609 -0.2020
22840W        W38649   6.734  10.594   0.720  0.1777  0.0414  0.0858
22841W        W38650  14.672  18.176   2.495 -0.0955 -0.0964 -0.0025
22842W        W38651   0.292   6.445  14.291  0.1388  0.2221 -0.3443
22843W        W38652  16.255  16.486   1.496  0.1992 -0.1152  0.1029
22844W        W38653   3.050   6.682   1.142 -0.1227  0.0422  0.0199
22845W        W38654   3.044   5.319  11.510 -0.1025  0.0707 -0.2933
22846W        W38655  11.774  12.449   2.386 -0.2253 -0.1808 -0.3821
22847W        W38656   8.185   4.011  11.253  0.3480  0.0718 -0.1050
22848W        W38657   6.733  18.072  14.142 -0.0296  0.1843  0.0984
22849W        W38658   1.637  15.175  10.912  0.0499 -0.1285 -0.0014
22850W        W38659  14.973  16.884   1.364 -0.1622 -0.2321  0.1716
22851W        W38660  14.309   5.858   0.685  0.2079 -0.2142 -0.0059
22852W        W38661   9.187  13.408   1.396  0.2987 -0.1327 -0.3239
22853W        W38662  10.819   5.041  14.711 -0.4125  0.3538  0.0362
22854W        W38663   0.735   3.410   4.286 -0.2355 -0.0448 -0.2688
22855W        W38664   7.678  15.967   0.101 -0.1876 -0.3124  0.0252
22856W        W38665   7.744   4.085  12.410  0.3717  0.0903  0.0904
22857W        W38666   3.014   8.407   5.520  0.1964 -0.2794 -0.3157
22858W        W38667   2.140   2.057  15.198 -0.0898 -0.0240 -0.0467
22859W        W38668  10.273   0.349   3.485  0.1567  0.1208  0.2011
22860W        W38669   6.317   5.914  12.470  0.0069  0.2657  0.1597
22861W        W38670   5.270   1.801   0.260  0.0717 -0.0921  0.0416
22862W        W38671   2.251   7.367   4.466 -0.0988 -0.3033  0.0016
22863W        W38672  11.968   5.386  12.271 -0.0691  0.2286 -0.2621
22864W        W38673  15.071   2.642  13.902  0.4022 -0.2244  0.0028
22865W        W38674   2.536   9.486   4.855 -0.2542 -0.0479  0.2808
22866W        W38675   8.003  11.797   3.835  0.1102 -0.0860 -0.0938
22867W        W38676   0.755  13.619   4.418  0.0453  0.0510 -0.0443
22868W        W38677   2.745   4.570  12.269 -0.1242 -0.2221 -0.2246
22869W        W38678   2.112  12.636  14.223  0.0590  0.1687  0.1201
22870W        W38679  13.416  12.277   0.373 -0.2491  0.4899  0.1934
22871W        W38680   0.779  18.559  11.389 -0.0338  0.3547  0.4239
22872W        W38681  18.162  16.455   1.647 -0.0566 -0.4184 -0.0528
22873W        W38682   0.139  13.468  14.751  0.1630  0.1659 -0.3094
22874W        W38683   8.259  12.162   1.220  0.1971  0.1234  0.0257
22875W        W38684  16.290   2.345   2.161 -0.1483 -0.1418 -0.2649
22876W        W38685  15.458  10.739  15.471  0.0579 -0.1295 -0.1219
22877W        W38686   6.205  14.833   3.788  0.1690 -0.0504  0.0195
22878W        W38687  15.688  11.329   0.819 -0.1156  0.1113  0.1740
22879W        W38688   4.574   8.096   5.578 -0.2451  0.0458 -0.0546
22880W        W38689   4.876  13.465   3.510  0.0087 -0.0782  0.0467
22881W        W38690  18.665  17.403   9.782 -0.0538  0.2171  0.1618
22882W        W38691  11.325  11.350  14.114 -0.1902 -0.0448 -0.0583
22883W        W38692   5.021   5.517  11.229 -0.0854 -0.2016 -0.2558
22884W        W38693  11.754   0.591   0.721 -0.0784  0.1648 -0.1077
22885W        W38694  15.046   0.228   2.257  0.0304  0.2816 -0.1375
22886W        W38695   6.920  10.308   0.250  0.1800 -0.0565 -0.1213
22887W        W38696  10.975  11.640   1.456 -0.1056 -0.1380 -0.0629
22888W        W38697   1.559   8.032   2.768  0.1268 -0.2487  0.2494
22889W        W38698  15.182  16.042   5.936 -0.1031  0.0222 -0.0397
22890W        W38699  18.032   7.466   1.028 -0.1461 -0.0924  0.1144
22891W        W38700   7.424  12.332  13.814 -0.1678 -0.1388 -0.1214
22892W        W38701  13.890   0.113   4.250 -0.1437  0.2474  0.0310
22893W        W38702   8.345   6.574   5.303  0.0122  0.1430  0.3070
22894W        W38703  18.244  10.218   4.204 -0.2443  0.3507  0.1161
22895W        W38704   8.877   6.056   1.219 -0.1741 -0.3063  0.3359
22896W        W38705  17.545  17.876   5.040  0.2038 -0.0649 -0.0417
22897W        W38706   0.483   7.413   3.240  0.2094  0.1611  0.0134
22898W        W38707  18.717  15.164   5.734  0.0159  0.1668  0.1834
22899W        W38708  10.723  11.131   2.917  0.1828 -0.3431 -0.1237
22900W        W38709  17.150   0.349  15.357  0.1354  0.0611 -0.0064
22901W        W38710   6.800   0.284   0.787  0.2676 -0.0020  0.1100
22902W        W38711   8.425   7.085  14.101 -0.1420  0.1837  0.3026
22903W        W38712   8.227  10.168   3.672 -0.0693 -0.1585  0.3201
22904W        W38713   7.453   4.177  11.557  0.3340  0.2103  0.0412
22905W        W38714   4.949   0.110  14.966 -0.3377  0.3286  0.4527
22906W        W38715   8.377  11.848   0.846 -0.4661 -0.1035 -0.2448
22907W        W38716  15.057  18.591  15.362  0.0845  0.1854  0.0480
22908W        W38717  12.370  10.811   2.494 -0.1216 -0.5637 -0.1366
22909W        W38718  13.425   7.249  10.756 -0.2553  0.1021 -0.0657
22910W        W38719   8.065  10.105  13.655 -0.2099 -0.1703  0.0649
22911W        W38720   9.780   8.216   1.370  0.0860  0.1886  0.2156
22912W        W38721  18.607  16.545   0.587 -0.0595  0.0974 -0.0717
22913W        W38722  13.259   5.848  11.311 -0.2946  0.2097  0.0994
22914W        W38723   3.534   5.862  10.811 -0.0190  0.1276  0.0176
22915W        W38724  16.469   2.609   1.213  0.2642 -0.0253  0.1327
22916W        W38725   7.662  10.407   1.015 -0.0082  0.1722 -0.2177
22917W        W38726  17.080  13.831  10.700 -0.0814  0.2060 -0.0619
22918W        W38727  13.214   3.280   3.279 -0.2229  0.2869 -0.0547
22919W        W38728  13.005   0.248   4.945  0.1460 -0.1103 -0.3232
22920W        W38729   5.015  17.636   3.885 -0.2410 -0.1126  0.0099
22921W        W38730  12.781  14.990   2.397  0.0295 -0.0399  0.2698
22922W        W38731  11.912   7.539   3.160  0.2128  0.2399  0.1058
22923W        W38732   9.440  16.252  15.526  0.1144  0.0458  0.2069
22924W        W38733   4.902  12.617   2.428 -0.4262 -0.2925  0.6128
22925W        W38734  12.978  17.037   5.363  0.3300  0.0276 -0.1662
22926W        W38735  17.832  10.868  13.220  0.0859  0.0789  0.1788
22927W        W38736   4.451   3.641   5.645 -0.1476 -0.0151 -0.0757
22928W        W38737  14.978   7.594  12.105 -0.4633  0.1141  0.0421
22929W        W38738  17.661   8.905  13.891  0.1010 -0.2408 -0.0352
22930W        W38739   5.165   4.045  12.521  0.0471  0.0227 -0.4116
22931W        W38740  10.959   8.437  13.303 -0.2004  0.1932  0.0341
22932W        W38741  10.004   4.794   3.623  0.1415  0.2758 -0.0507
22933W        W38742  18.376  13.331  14.777  0.0729  0.3555  0.3524
22934W        W38743   4.169   7.845  13.999 -0.1278  0.3798  0.1006
22935W        W38744   1.660  16.737  13.202 -0.0687  0.0260 -0.0135
22936W        W38745   6.046   5.228  14.735  0.2098  0.1624  0.1070
22937W        W38746  14.717  16.388  10.666 -0.1074 -0.0380 -0.0497
22938W        W38747   7.073  14.226   0.089  0.1494  0.1011  0.0154
22939W        W38748   7.518   4.777   6.252  0.3287 -0.4011  0.0951
22940W        W38749  17.420  13.264  11.321 -0.0478 -0.2988 -0.1496
22941W        W38750   5.034  18.732  13.500 -0.2799 -0.3764 -0.4291
22942W        W38751  10.539   9.066   0.607  0.0798 -0.1706  0.0303
22943W        W38752   9.125  13.611   1.938 -0.0253  0.0578 -0.1203
22944W        W38753  17.614  17.813   4.162  0.1291 -0.2194  0.0811
22945W        W38754  12.840  11.780  14.347 -0.2558 -0.1435  0.0932
22946W        W38755  13.155  16.313  15.312  0.1139 -0.0520 -0.0637
22947W        W38756   8.128  17.051  11.112 -0.1389 -0.0436  0.2662
22948W        W38757  16.921   7.333  12.736 -0.3242 -0.2700  0.3734
22949W        W38758  12.149  13.969  15.552  0.1677  0.1767  0.1215
22950W        W38759   9.333   5.393   2.129 -0.0376  0.2084  0.1067
22951W        W38760  12.193   1.435   0.695  0.0328  0.0221  0.1910
22952W        W38761  15.033   8.271  10.611  0.2360  0.0288 -0.1033
22953W        W38762   7.780   4.647   2.472  0.0513  0.2172  0.2332
22954W        W38763  15.035   3.393   0.818  0.1740  0.1173 -0.2362
22955W        W38764   3.929   9.505  11.300  0.1526 -0.0428  0.0494
22956W        W38765   8.239  10.137   2.249  0.2982  0.2552  0.0257
22957W        W38766   7.140  10.774  11.677 -0.1185  0.1620 -0.0170
22958W        W38767  11.220   7.472   4.409 -0.0545  0.0058 -0.0802
22959W        W38768  15.160   8.216   0.978  0.0364 -0.2383 -0.0820
22960W        W38769   1.105   8.875   2.201  0.3062  0.1692 -0.1124
22961W        W38770  17.157  12.914   2.121  0.0800 -0.2399 -0.0931
22962W        W38771  13.511   7.428  15.071 -0.0338  0.0710  0.0046
22963W        W38772   4.194  11.398   0.815  0.2239  0.0987  0.2039
22964W        W38773  11.222  15.455   3.007 -0.2225  0.0243 -0.1744
22965W        W38774   6.914   2.630  14.709  0.1768 -0.0608  0.2128
22966W        W38775   5.093  13.132   4.600 -0.0663 -0.2334  0.2273
22967W        W38776  11.058   0.611   3.510  0.0819 -0.0685  0.0949
22968W        W38777   4.115  14.265  10.756  0.1666 -0.5352 -0.3507
22969W        W38778  16.193  18.087   1.037  0.0810  0.2185  0.1613
22970W        W38779  10.366  15.487   2.288 -0.4034 -0.0439 -0.0409
22971W        W38780   8.730   9.902   3.467  0.2551 -0.3612  0.0989
22972W        W38781   2.191   5.737  14.369  0.2773  0.1197  0.2435
22973W        W38782  18.389  12.727  13.042  0.1396  0.0192 -0.1031
22974W        W38783   5.931  15.573  12.801  0.1781 -0.0994 -0.1115
22975W        W38784   2.700   7.112   9.590  0.1304 -0.0720 -0.1500
22976W        W38785   1.809   0.557  14.238  0.0031  0.1824  0.1387
22977W        W38786   4.356   6.613  12.673 -0.1874  0.2263  0.1458
22978W        W38787   8.625   4.295  15.204  0.0761 -0.1351  0.0285
22979W        W38788   1.939  14.399   5.262 -0.2316  0.1548 -0.0064
22980W        W38789   2.023  12.577  10.558  0.2898  0.0091  0.0788
22981W        W38790   2.219  12.761   5.346 -0.0151 -0.4555  0.1634
22982W        W38791   8.116   1.214  15.382 -0.4307  0.0523  0.2166
22983W        W38792  14.747   0.413   3.169 -0.2256  0.0719 -0.0271
22984W        W38793  16.387   1.069   1.855  0.2155  0.0021  0.1378
22985W        W38794  14.807   0.316   5.598  0.1445 -0.3294  0.0333
22986W        W38795   2.270   4.379  12.272  0.1768 -0.0089  0.0946
22987W        W38796  14.610   6.270   3.994 -0.2879  0.0114  0.1354
22988W        W38797   8.936  14.724  15.015 -0.0996  0.1252  0.2286
22989W        W38798   5.839   4.570  11.295  0.1125 -0.1265  0.4090
22990W        W38799   9.880   7.524  11.753 -0.0958  0.2537  0.1052
22991W        W38800  15.838   1.065  12.446  0.1784 -0.2430 -0.1609
22992W        W38801   9.449   6.757  12.081 -0.0158  0.1684  0.2367
22993W        W38802  17.176   4.924  13.503 -0.2411  0.1194 -0.1900
22994W        W38803   2.369  16.363  11.909 -0.2918 -0.2290  0.0164
22995W        W38804   1.807  10.983   0.557 -0.3517  0.0395  0.3141
22996W        W38805  14.501   8.802  11.668 -0.0372 -0.0832  0.2954
22997W        W38806   5.614  11.851  13.906  0.1558  0.0943  0.3142
22998W        W38807  14.987  11.120  12.224  0.1869  0.0040  0.0072
22999W        W38808   9.254  17.812  12.510  0.0842 -0.2346  0.0177
23000W        W38809  16.714   8.671  10.819  0.2307 -0.0612  0.1513
23001W        W38810  13.549  15.249   3.499  0.0228 -0.0617  0.0738
23002W        W38811  14.993   1.715   3.351 -0.1600  0.3097  0.0571
23003W        W38812  16.261  16.429  12.334 -0.1870 -0.0298 -0.3577
23004W        W38813  11.248   3.213  12.602 -0.1361  0.2815  0.2064
23005W        W38814  14.549   2.594   0.592  0.1581  0.1211  0.2561
23006W        W38815  18.705  15.921  10.884 -0.0954 -0.2439 -0.1806
23007W        W38816  16.965   0.499   3.492 -0.0633 -0.1586 -0.2207
23008W        W38817   8.357  17.275  13.633 -0.0401 -0.0509  0.1389
23009W        W38818  15.827  14.288  14.465 -0.0374 -0.1500 -0.1165
23010W        W38819   7.702  15.736  11.208  0.0161 -0.1457  0.2513
23011W        W38820   7.351   5.485   3.881  0.1789 -0.0193  0.0518
23012W        W38821   7.957  15.803  14.405 -0.0047  0.3189  0.2459
23013W        W38822   0.416   7.103   4.932 -0.0802  0.0175  0.3598
23014W        W38823  14.684   1.588   4.097 -0.0527  0.3576 -0.1492
23015W        W38824  15.540   9.306  12.959  0.0909  0.3359  0.4334
23016W        W38825  17.443  13.863  15.051 -0.2139  0.0487  0.2589
23017W        W38826   4.409  14.668   1.222 -0.0861 -0.0996 -0.1525
23018W        W38827   5.453  12.064   3.000 -0.1897 -0.2036  0.2733
23019W        W38828   0.958   2.014  14.513  0.0168 -0.1786 -0.3559
23020W        W38829  10.676   9.943  10.927 -0.0369 -0.0082 -0.1860
23021W        W38830   4.505   6.793   5.618 -0.2449  0.0999  0.0412
23022W        W38831   4.090   1.259   3.692  0.2474  0.1635 -0.0468
23023W        W38832  12.898   1.960   2.229 -0.1303  0.3421 -0.0120
23024W        W38833  17.848  16.624   0.172  0.0397 -0.1096  0.1926
23025W        W38834  16.438  17.946   4.388 -0.0885  0.1495 -0.1242
23026W        W38835  13.022  10.205   3.114  0.1657 -0.1605 -0.3332
23027W        W38836  10.432   9.310  12.198  0.0957  0.2928 -0.2404
23028W        W38837   9.361  10.571  14.612 -0.0681  0.3031  0.2929
23029W        W38838  13.048  12.877   3.100  0.1769 -0.0275  0.0778
23030W        W38839   5.680  14.051  11.949 -0.2016  0.0781 -0.1810
23031W        W38840   1.217   1.156   0.241 -0.0553  0.2007  0.1679
23032W        W38841   3.923   8.746  12.253  0.0781  0.2946  0.0472
23033W        W38842  12.349  11.781   3.333  0.1818 -0.5703 -0.1057
23034W        W38843   2.987   9.846  11.961 -0.1246  0.0038 -0.1624
23035W        W38844  10.146  18.159   2.855 -0.0507 -0.4110 -0.3089
23036W        W38845   7.628   9.066  11.478  0.3414  0.0468  0.3480
23037W        W38846   5.119   7.088   3.923  0.1495 -0.2995  0.3351
23038W        W38847   4.951   6.440   5.835 -0.4950 -0.1704 -0.3433
23039W        W38848   0.924   0.025  15.112 -0.0554 -0.1414 -0.2087
23040W        W38849   2.011   1.388   3.088 -0.1045  0.1507 -0.1333
23041W        W38850   0.093   8.158  13.597 -0.0830 -0.1087  0.2466
23042W        W38851   0.771  11.336   4.501  0.1426  0.1906  0.0181
23043W        W38852  16.483  12.436   2.118 -0.1066 -0.3375  0.0261
23044W        W38853   8.594  16.366   0.875  0.4077  0.1632  0.3236
23045W        W38854   3.718   4.192  10.876 -0.1423  0.0592  0.0395
23046W        W38855   7.072  16.307  12.782  0.2228  0.0116  0.1359
23047W        W38856  15.750   3.605  10.183  0.2653  0.0684  0.5389
23048W        W38857   1.448   9.133  11.552 -0.1458 -0.2253 -0.1198
23049W        W38858  12.270  17.694   1.753  0.3180  0.1441 -0.2149
23050W        W38859   5.181   5.714   5.252 -0.0693 -0.1061 -0.2636
23051W        W38860  18.737  15.317   0.747  0.2118  0.1710 -0.2401
23052W        W38861   8.319   5.251   4.052  0.2731  0.1765  0.0146
23053W        W38862  12.162   4.285  14.450  0.4115  0.0303  0.0127
23054W        W38863   9.719  11.065   0.141 -0.1309  0.0734 -0.2542
23055W        W38864   2.185  14.233   4.883  0.3645  0.3019  0.2049
23056W        W38865   6.322   9.233  14.301  0.2203 -0.0312  0.2011
23057W        W38866  11.604   1.219  15.471  0.2907  0.2379  0.0494
23058W        W38867  15.210   0.975   3.947  0.1770  0.3886  0.0139
23059W        W38868  16.242   3.850  13.847 -0.0806 -0.2904 -0.0729
23060W        W38869   5.806   4.390   1.101  0.1075  0.0062  0.2184
23061W        W38870   6.121  13.122   1.087 -0.1711  0.0752 -0.2676
23062W        W38871   7.155   1.327   1.891 -0.1268  0.0940 -0.4262
23063W        W38872   6.010   6.270  11.108 -0.0039 -0.2533 -0.1670
23064W        W38873   1.229  16.666  14.889  0.0552  0.1242 -0.2164
23065W        W38874  14.829   8.169   5.311 -0.1489 -0.0753  0.2963
23066W        W38875  12.721   5.433   1.997  0.2415 -0.0076  0.0533
23067W        W38876  10.931  10.636   4.831 -0.2391 -0.0006  0.0098
23068W        W38877  17.386   4.504   1.526  0.4603  0.3498  0.3948
23069W        W38878   4.804   4.034   3.984 -0.0085 -0.2488 -0.3611
23070W        W38879  10.457  18.705   1.184  0.6225  0.0551  0.0009
23071W        W38880   6.077  14.357  14.840  0.2524 -0.0652 -0.0995
23072W        W38881   5.563   7.461   3.461  0.1193 -0.2869 -0.2031
23073W        W38882   9.151  12.784   1.483 -0.1746 -0.4350 -0.4011
23074W        W38883   3.569  16.285  15.040 -0.3083 -0.1545  0.0329
23075W        W38884   2.247   1.775  10.512 -0.1477  0.1457 -0.0927
23076W        W38885   2.829  11.015   3.420  0.1568  0.0913  0.0794
23077W        W38886  11.220  18.592  14.403 -0.0631 -0.1032 -0.1029
23078W        W38887   2.357  17.839  14.924  0.3015 -0.2582 -0.0260
23079W        W38888  12.694   6.666  14.110 -0.3120  0.1399 -0.3239
23080W        W38889  11.405   9.823   3.350 -0.2803 -0.0952 -0.0452
23081W        W38890   1.932  18.745  12.775  0.0137  0.0360 -0.0938
23082W        W38891   8.188   1.787   5.373 -0.1373  0.2684 -0.2939
23083W        W38892   9.547   4.154  14.218  0.0096 -0.0517 -0.4247
23084W        W38893  16.904   9.938  13.049  0.0108  0.0815  0.0849
23085W        W38894  10.262  17.839  13.537 -0.0239  0.1224  0.0478
23086W        W38895   6.800  17.777  12.311 -0.0169 -0.0499 -0.0492
23087W        W38896   8.943   9.660   0.326  0.1269  0.0203  0.4154
23088W        W38897  12.753  12.669  15.367 -0.1465  0.0471 -0.0899
23089W        W38898  15.917   1.966   1.294  0.3005  0.2123 -0.2874
23090W        W38899   3.174   7.352   4.247  0.3074  0.1742  0.0599
23091W        W38900   1.874   0.941   2.204 -0.1247 -0.0838 -0.1216
23092W        W38901   5.349  15.229   1.581 -0.3347 -0.0884  0.1181
23093W        W38902  10.034  10.654   2.409  0.1872  0.2770 -0.0200
23094W        W38903  14.008   2.490  12.837  0.1768 -0.1133 -0.0634
23095W        W38904   6.971  18.541  11.340  0.0818  0.1854 -0.1381
23096W        W38905  10.015  16.855  10.760 -0.0336 -0.5251  0.0947
23097W        W38906   2.257  10.534   1.480 -0.2527 -0.1026  0.2460
23098W        W38907  12.343  11.659   0.836  0.0700  0.3159  0.0052
23099W        W38908  15.334  10.237  15.058  0.2005  0.3870  0.2251
23100W        W38909   2.659   8.101  11.071  0.0321  0.0527  0.0806
23101W        W38910  17.633  14.745  12.900 -0.0395 -0.0816 -0.2576
23102W        W38911   0.838  15.040   0.162  0.1801  0.0914  0.3683
23103W        W38912   5.039   6.927  13.247  0.2196 -0.2085  0.2276
23104W        W38913   4.397   2.607   4.864  0.1823 -0.1975  0.0872
23105W        W38914   5.066   1.026   4.563 -0.1402  0.0171 -0.1355
23106W        W38915   4.679   4.400   3.031 -0.0412 -0.0381  0.1615
23107W        W38916   5.893  14.136  10.399 -0.2729 -0.0003  0.3595
23108W        W38917  10.842  10.709   4.218 -0.0291 -0.2123 -0.0258
23109W        W38918  12.110  13.211  11.434 -0.1621  0.1001 -0.0898
23110W        W38919   2.401  14.020  10.988  0.1359  0.1207  0.1126
23111W        W38920   8.968  17.675   1.174  0.2169 -0.1030  0.0441
23112W        W38921   2.696   9.000   3.708  0.0753 -0.0253  0.2249
23113W        W38922  15.209  13.131  13.042 -0.0411  0.3585  0.0698
23114W        W38923  11.760   9.079   3.874 -0.2137 -0.3829 -0.0414
23115W        W38924   1.597   4.793  12.698  0.1443  0.2178 -0.1137
23116W        W38925   5.033  15.008  12.861 -0.0594 -0.1203 -0.2832
23117W        W38926  14.320  13.915  13.336  0.0214 -0.0195 -0.0780
23118W        W38927  14.073   0.378   3.287  0.1269  0.3168  0.2005
23119W        W38928  10.907  10.908  10.750 -0.1860  0.0953  0.0920
23120W        W38929   7.612  13.271   2.663 -0.0567  0.1133  0.1650
23121W        W38930   3.966   1.539  12.325  0.0035  0.0411  0.0061
23122W        W38931  18.648   0.234  12.976  0.1346 -0.4484 -0.0080
23123W        W38932   2.734   2.793  11.390 -0.1596  0.0699 -0.0827
23124W        W38933  17.997  13.899  12.129 -0.2061 -0.1742  0.0596
23125W        W38934   5.071   2.595  12.696  0.1735  0.2448  0.2126
23126W        W38935   8.321  18.640  12.899 -0.2510  0.2483  0.1153
23127W        W38936  12.593  18.748  14.684 -0.2144  0.0707  0.0088
23128W        W38937   3.637  10.891   1.401  0.2933 -0.1128 -0.0348
23129W        W38938  13.244  10.797   2.326 -0.0754 -0.2977  0.2959
23130W        W38939   2.652  16.623   0.397 -0.2466 -0.1628  0.1138
23131W        W38940  14.811   7.404  11.165 -0.2416 -0.0639  0.2108
23132W        W38941  10.865  13.177  11.082 -0.1838 -0.0139 -0.1187
23133W        W38942   2.597  11.672  14.920 -0.1851 -0.0800 -0.1667
23134W        W38943  10.814  17.205   4.029 -0.1574  0.0940 -0.0597
23135W        W38944  14.039   8.551   0.568  0.1100 -0.0964 -0.1028
23136W        W38945   5.613  12.416   4.090  0.0870 -0.1810  0.1660
23137W        W38946  14.900   9.753  12.964 -0.2667 -0.0570  0.1788
23138W        W38947  10.160  15.233   1.909 -0.1766  0.4180 -0.1723
23139W        W38948  18.370  11.796  11.916  0.4889 -0.1394 -0.0144
23140W        W38949   2.726  14.301  11.262 -0.3588  0.0407  0.3873
23141W        W38950  11.243   9.079  14.519 -0.1223 -0.0605 -0.1907
23142W        W38951   1.797   1.672   1.065  0.1569  0.0776  0.0661
23143W        W38952  14.725   7.365  15.410 -0.1435  0.1157 -0.0263
23144W        W38953  11.105   8.334   5.296 -0.2775 -0.0830  0.0369
23145W        W38954   3.960  16.995  12.238  0.0003  0.1330 -0.0324
23146W        W38955   4.197   4.627  11.112 -0.1505  0.1127  0.0327
23147W        W38956  13.689  18.369   5.180 -0.1638 -0.3244 -0.1062
23148W        W38957  17.678   2.456  15.506  0.2244 -0.0317  0.2754
23149W        W38958   0.696   1.141   2.572  0.0140 -0.0473 -0.2749
23150W        W38959  11.494  15.134   4.528  0.3664  0.1271 -0.1041
23151W        W38960  11.038  11.026   1.803  0.1627  0.2455  0.1726
23152W        W38961   0.418   1.822   5.001  0.0131  0.1346 -0.0543
23153W        W38962   8.442  17.656  11.651 -0.2483 -0.2560 -0.1715
23154W        W38963  18.022   3.307  12.398  0.0994 -0.3969 -0.0744
23155W        W38964   3.363  18.294   5.182 -0.2703  0.0734  0.2720
23156W        W38965  12.031   4.731   0.400 -0.2729  0.2437 -0.0767
23157W        W38966   3.056  18.160  11.340  0.1950 -0.2794 -0.2271
23158W        W38967   5.305   7.258   4.317  0.0529 -0.1396  0.1488
23159W        W38968  12.223  18.706   5.121 -0.0296 -0.3914  0.2244
23160W        W38969  17.221   5.646   4.400 -0.1468 -0.0303 -0.1224
23161W        W38970   0.123   7.282   0.969 -0.2188 -0.0317  0.2096
23162W        W38971   0.533   4.300   0.567  0.0696  0.2246 -0.1120
23163W        W38972   8.354   3.896  14.557 -0.2240 -0.0435  0.1414
23164W        W38973  11.483   5.131   1.849 -0.0438  0.1997  0.3485
23165W        W38974   6.983   5.636  14.407 -0.1283 -0.0728 -0.0713
23166W        W38975   5.219  14.151  11.686 -0.1776 -0.0739 -0.3307
23167W        W38976  18.309  14.483   1.874 -0.1622 -0.1089  0.1305
23168W        W38977  17.543   6.522   2.367  0.1536 -0.0006  0.2013
23169W        W38978  15.442  16.838   5.426  0.0541  0.1884  0.0859
23170W        W38979   9.370  10.225  12.227  0.0782  0.1224 -0.1774
23171W        W38980   5.783   4.226  13.133 -0.2290 -0.1537  0.4333
23172W        W38981   2.014   8.803   2.142  0.1553  0.0659  0.1892
23173W        W38982   3.546  14.812  12.227 -0.2906 -0.0512  0.1764
23174W        W38983  17.042  14.524  11.435  0.2327  0.0010 -0.1328
23175W        W38984  17.771  16.098  12.432  0.0558  0.0230 -0.0768
23176W        W38985  17.011  12.930   5.449 -0.0217 -0.0947  0.2054
23177W        W38986  17.962  11.049   1.347 -0.2578 -0.1351 -0.2990
23178W        W38987  10.968  14.513  11.923 -0.3474 -0.0652 -0.0033
23179W        W38988   7.422   4.650  13.317  0.0677 -0.2189 -0.1618
23180W        W38989   9.916  10.840   5.392  0.1937  0.1200  0.1625
23181W        W38990   1.939   6.237   1.478  0.0028  0.1029 -0.0916
23182W        W38991  12.489  14.488  13.990 -0.0188  0.0253  0.0673
23183W        W38992   1.285  11.482  10.784  0.0338 -0.1054  0.0317
23184W        W38993  18.023  12.437   0.627  0.0167 -0.3135  0.1149
23185W        W38994  11.069  17.948  15.186  0.1402 -0.0163 -0.2147
23186W        W38995   1.442   5.305   3.397  0.1322  0.3053  0.1692
23187W        W38996  11.001  14.896   5.473 -0.0752  0.2580  0.0186
23188W        W38997   5.835   0.326   3.227 -0.1844  0.0296 -0.1129
23189W        W38998  13.668   9.569   5.573 -0.2480 -0.1183 -0.1415
23190W        W38999   7.505   3.031  10.933  0.0520  0.1398 -0.1987
23191W        W39000  10.691   2.657   1.507  0.2407 -0.0868  0.3775
23192W        W39001  16.003  18.619   1.148 -0.0238  0.0573  0.3509
23193W        W39002   1.614   8.389   3.364 -0.3951 -0.2325 -0.0925
23194W        W39003   5.042   8.702   5.136  0.0860  0.1566  0.1963
23195W        W39004  12.963  12.822  13.889  0.0265  0.0294 -0.0572
23196W        W39005   4.893   8.379  14.430 -0.1265  0.0579  0.0262
23197W        W39006  15.518  13.993   1.284  0.1640 -0.1455 -0.1754
23198W        W39007   2.588  14.778  13.399 -0.1021  0.1083  0.1759
23199W        W39008   9.901  18.608  13.833 -0.3510 -0.1035 -0.0719
23200W        W39009  12.754   8.149   2.597 -0.0414  0.0421 -0.0166
23201W        W39010   3.068   9.304  14.831 -0.1061  0.0419  0.2176
23202W        W39011  17.781   4.690  13.931  0.0247 -0.0837 -0.0812
23203W        W39012   5.582   4.577  12.690 -0.3919 -0.0524  0.1823
23204W        W39013  17.758  18.452   2.698  0.0490 -0.0239 -0.1172
23205W        W39014  15.443   0.081   1.196  0.0530  0.1137 -0.1381
23206W        W39015  13.904  10.659   0.112 -0.3745 -0.4217  0.1906
23207W        W39016  12.062  13.563  12.845  0.0672  0.0921  0.1847
23208W        W39017   6.446   7.039   3.984 -0.0868 -0.1449 -0.1229
23209W        W39018  11.253  14.922  11.179 -0.2141 -0.0428  0.3489
23210W        W39019  11.869   7.519   1.343  0.2653 -0.2943  0.0376
23211W        W39020   9.014   7.674   3.135  0.2040  0.1209 -0.0914
23212W        W39021  14.865  13.396   4.353  0.0160 -0.1856  0.0019
23213W        W39022  12.392   6.241  14.155 -0.2499 -0.2522  0.1144
23214W        W39023  15.472  16.554   5.921 -0.0684  0.1968 -0.0509
23215W        W39024  14.711   8.906  12.567 -0.1969  0.0719 -0.2507
23216W        W39025   0.859  13.263   5.304 -0.1575  0.0896  0.1537
23217W        W39026  18.237  11.133   0.049  0.3302 -0.0496  0.0294
23218W        W39027  15.774  15.844   2.800  0.0839  0.2902  0.3315
23219W        W39028  10.036  14.798  11.210 -0.1294  0.1292  0.1036
23220W        W39029   6.488  16.324  11.508  0.1784  0.3751 -0.2183
23221W        W39030  10.314   7.903   3.717 -0.0761 -0.0443 -0.1734
23222W        W39031   2.432   1.246  14.309 -0.1015  0.0931 -0.1363
23223W        W39032  11.131   7.008   1.912 -0.0472 -0.2781  0.2362
23224W        W39033  15.943  10.451   2.882  0.0446 -0.0478 -0.1976
23225W        W39034  12.703  12.555   2.822 -0.2443  0.2209  0.2365
23226W        W39035   4.753   7.413   0.846  0.1822  0.2770 -0.1106
23227W        W39036  17.632   0.571   9.843 -0.0646  0.0535 -0.3836
23228W        W39037   1.497  14.202   0.577 -0.1384  0.1973  0.0691
23229W        W39038  13.610  12.987  11.960  0.0463  0.5026  0.2584
23230W        W39039   9.936   8.762  10.254  0.2148 -0.2035  0.2165
23231W        W39040  13.356   2.021  12.390  0.0007 -0.0881  0.3315
23232W        W39041  11.933  13.378  14.009  0.1103 -0.1444 -0.0668
23233W        W39042   0.217   4.602  11.012  0.1214  0.4007 -0.0667
23234W        W39043  16.650  18.313  12.966 -0.1915  0.3027 -0.2392
23235W        W39044  12.976  14.334  13.905 -0.1350  0.1385 -0.0735
23236W        W39045  15.115   3.180  14.125  0.3829  0.2410  0.0297
23237W        W39046   3.686  14.602   4.280 -0.2575  0.1238  0.1236
23238W        W39047   8.609  15.175   3.006  0.1475  0.0771 -0.3645
23239W        W39048   2.939  17.102  14.763  0.1874 -0.0794 -0.1356
23240W        W39049  14.543  16.938   1.602  0.3623  0.1101  0.0498
23241W        W39050   9.371   2.985  12.719  0.2939  0.2654 -0.1955
23242W        W39051  10.703  10.012  12.259 -0.2925 -0.0011  0.2487
23243W        W39052   9.858   0.215  13.487 -0.2623  0.5979 -0.0403
23244W        W39053  15.234  12.149   3.286 -0.2479  0.0276  0.3006
23245W        W39054   4.238   8.142   3.347 -0.2881  0.0473 -0.0276
23246W        W39055   9.335   6.489   2.937 -0.1905 -0.1126  0.1925
23247W        W39056   1.294   6.760   2.475 -0.2384 -0.0077  0.0414
23248W        W39057   2.127   8.945  14.800  0.1049 -0.0414  0.2668
23249W        W39058   0.174   9.712  12.018  0.0021  0.0334  0.2023
23250W        W39059   3.429   7.287  11.194 -0.1951 -0.1645 -0.1945
23251W        W39060  17.718  15.466  11.891 -0.0698  0.0210 -0.1063
23252W        W39061  16.801   0.516  11.933 -0.1981 -0.1726  0.0195
23253W        W39062   8.221  14.865  14.507  0.1635  0.3176  0.2414
23254W        W39063   8.117   5.974  12.148  0.1330  0.2014  0.3033
23255W        W39064   1.054  14.628   9.601 -0.2482 -0.0822  0.2097
23256W        W39065  15.343  14.310   4.780 -0.1154  0.2746  0.2563
23257W        W39066   5.531   2.039  12.870  0.1243 -0.3595 -0.0124
23258W        W39067   4.934  17.034   0.818 -0.1804 -0.2753  0.0624
23259W        W39068  15.025   1.760   6.121 -0.1471  0.1251 -0.0643
23260W        W39069   0.579  16.621  11.074  0.3246  0.0415 -0.1103
23261W        W39070   9.253  11.169   0.044 -0.0577  0.1807  0.3071
23262W        W39071   5.332  14.561   0.796  0.1606 -0.2234  0.0911
23263W        W39072   3.556   6.368  13.268  0.0674 -0.1343  0.0862
23264W        W39073  17.595   7.506  11.181  0.0491  0.0787  0.2681
23265W        W39074  16.487   6.469   4.665  0.0595 -0.1333  0.0148
23266W        W39075   4.970   0.980   4.067 -0.0568 -0.1038  0.0960
23267W        W39076   7.230   4.661   5.224 -0.4655  0.1758  0.1367
23268W        W39077   7.140  18.402  10.145  0.1157  0.3363  0.1155
23269W        W39078   1.382   6.275   2.435 -0.0111 -0.1357  0.3247
23270W        W39079  18.455  11.064  13.769  0.1822 -0.1086  0.1487
23271W        W39080   8.667   3.965   0.575 -0.1772  0.0901 -0.2319
23272W        W39081  11.509   5.596   0.643 -0.0552 -0.0518 -0.0239
23273W        W39082  10.563   4.282   4.783 -0.1858 -0.0884 -0.2841
23274W        W39083  11.268  17.838   2.018 -0.0015 -0.1583  0.4096
23275W        W39084   7.702  17.677  12.214 -0.2539  0.2304  0.4021
23276W        W39085  11.918   3.039   2.095 -0.1633  0.0952 -0.2219
23277W        W39086  10.026   9.306   1.106 -0.2490  0.2755 -0.1494
23278W        W39087   5.091   8.691  10.669  0.0479 -0.1124 -0.0087
23279W        W39088  14.280   5.116   1.753  0.1711  0.0723 -0.2020
23280W        W39089  11.616  10.037  12.821  0.4448  0.0509  0.0948
23281W        W39090  11.686  14.150  13.363 -0.1179  0.1164  0.1204
23282W        W39091   3.966   6.264   3.539  0.0717  0.0068  0.1374
23283W        W39092  18.334  17.584  12.734 -0.1143 -0.0656 -0.0470
23284W        W39093   3.977   3.477   5.721 -0.2783  0.0584  0.2206
23285W        W39094  10.276  18.034  11.942  0.2277  0.2462 -0.0514
23286W        W39095   4.326   0.108   2.630 -0.0507  0.0158 -0.0145
23287W        W39096   0.474   5.194   0.167  0.0270  0.1082  0.1156
23288W        W39097   5.270   3.076   0.978  0.1131  0.2385  0.2682
23289W        W39098  15.260   2.918  15.516  0.1414  0.3167  0.0657
23290W        W39099   6.732   7.831   1.795 -0.0892 -0.0609 -0.0813
23291W        W39100   7.969  15.819  12.436  0.1542  0.1669  0.1740
23292W        W39101   0.333   7.753  13.210  0.3675  0.1729  0.2476
23293W        W39102   5.032  17.438  13.190  0.0185 -0.2007 -0.3262
23294W        W39103  14.232   3.527   3.372 -0.2699  0.2578  0.1347
23295W        W39104  11.806   8.591   1.944  0.0226  0.0498 -0.1209
23296W        W39105   4.934  14.415   3.836  0.2176 -0.1002  0.0107
23297W        W39106  12.749  18.536   4.394  0.2261 -0.6129 -0.4728
23298W        W39107   3.305   1.389   0.116 -0.3155 -0.4486  0.1369
23299W        W39108   7.345  16.422  14.120 -0.2258  0.3020  0.2114
23300W        W39109   0.170   1.357  10.995  0.0570  0.2892 -0.0906
23301W        W39110  14.658   1.061  12.145 -0.0388  0.2250 -0.0557
23302W        W39111   6.886   4.593  13.503 -0.0037 -0.3183  0.1618
23303W        W39112   1.957   1.124  11.345 -0.1124 -0.1198  0.2105
23304W        W39113  11.004  18.502  11.300 -0.0786  0.1128 -0.4668
23305W        W39114   1.385  11.242  14.589  0.0810 -0.0256 -0.2206
23306W        W39115   3.283  17.438  13.007  0.0056  0.3398 -0.0942
23307W        W39116  16.050   0.073  12.112  0.0696  0.2764 -0.0219
23308W        W39117  17.791   8.084  13.558 -0.0671  0.1224 -0.2331
23309W        W39118  12.778   4.851   3.930  0.1810  0.1328  0.1739
23310W        W39119  14.881   5.168  12.782 -0.0300  0.0753  0.1073
23311W        W39120   9.068   8.459  12.491  0.0487  0.3181 -0.4426
23312W        W39121   2.761   2.994  10.952 -0.1195 -0.0613  0.1171
23313W        W39122   7.339   4.231  11.046  0.0843 -0.1657  0.1777
23314W        W39123  14.589   9.832   3.494 -0.2927  0.0111 -0.2482
23315W        W39124  13.391  12.222  14.070  0.0304  0.0083 -0.1789
23316W        W39125   5.371   5.489   1.317  0.3008 -0.0109 -0.1531
23317W        W39126   4.688   0.026  14.087 -0.1062 -0.1718  0.0213
23318W        W39127  18.419  15.050  13.599 -0.0015 -0.3156  0.1041
23319W        W39128  17.617  12.438  12.191 -0.0831 -0.0412  0.0182
23320W        W39129   0.725  13.409   3.607  0.0129 -0.0874 -0.2831
23321W        W39130   4.601   7.980  15.279  0.1263  0.2359  0.0399
23322W        W39131   9.728  18.488   2.994  0.0418  0.0485 -0.3399
23323W        W39132  17.001  15.039   1.276 -0.2320 -0.0045  0.0143
23324W        W39133  18.374   9.480   4.277 -0.0002  0.0115 -0.2093
23325W        W39134   6.399  17.796  13.358 -0.4532 -0.1434 -0.0853
23326W        W39135   5.603  13.894  14.764  0.1257  0.1600 -0.3937
23327W        W39136  15.159  12.643  12.976 -0.2093 -0.0746 -0.1066
23328W        W39137  13.652  17.522   0.655 -0.4085  0.0456  0.0163
23329W        W39138   8.044   6.786   4.916 -0.3237  0.4011 -0.1303
23330W        W39139  11.062  12.339  11.468 -0.3293  0.0965 -0.0745
23331W        W39140  10.779   4.429  13.704 -0.2537  0.2674 -0.0148
23332W        W39141  11.446  11.247   5.125  0.2249  0.0727 -0.0189
23333W        W39142  13.311   5.284  11.165 -0.0020 -0.0069 -0.1609
23334W        W39143   3.911   2.789   4.061 -0.1266 -0.0317 -0.0777
23335W        W39144  16.434   1.353   4.511  0.2361 -0.0617 -0.2412
23336W        W39145   4.339  10.644   1.996 -0.0362  0.0019  0.1144
23337W        W39146   7.617  18.003   3.188 -0.0639  0.1937 -0.0505
23338W        W39147  13.239   1.399   4.311 -0.0861 -0.0090 -0.0916
23339W        W39148  12.769   9.894   2.113 -0.1185  0.2168 -0.1109
23340W        W39149  17.068   6.660   2.803  0.1776  0.0236 -0.0504
23341W        W39150  13.823   7.704  14.146  0.0517 -0.2124  0.0461
23342W        W39151   9.927  16.095   0.240 -0.1669 -0.1728  0.0372
23343W        W39152   4.226   3.427   2.887 -0.1564 -0.1671 -0.0869
23344W        W39153  11.432  13.124  12.781 -0.0949  0.2249 -0.0369
23345W        W39154   4.093   9.907   0.182 -0.1851  0.1049  0.0617
23346W        W39155   1.206   8.986   4.000 -0.1441  0.5123 -0.4135
23347W        W39156   9.265   6.540   1.457  0.0099  0.2163 -0.0363
23348W        W39157   8.183  16.024   0.230  0.0225  0.1335  0.5687
23349W        W39158   4.147  10.344   0.367  0.1113  0.3727  0.1563
23350W        W39159   2.230  17.386  10.003 -0.1817  0.0181 -0.2865
23351W        W39160   4.585  18.182   3.605  0.3247  0.0645 -0.0802
23352W        W39161   7.837   5.645   5.792 -0.0183 -0.0003  0.0213
23353W        W39162  17.046  10.075   2.046  0.2133  0.1969  0.0505
23354W        W39163   0.837   6.347   4.946 -0.1639  0.1023  0.1195
23355W        W39164  14.838   0.703  13.318 -0.1151  0.1294 -0.4050
23356W        W39165  12.817   9.716   2.973  0.1197  0.1929  0.1979
23357W        W39166  12.606   0.398   1.241  0.0925 -0.1292  0.0899
23358W        W39167   0.761  11.649  13.235 -0.0548 -0.1003 -0.0462
23359W        W39168   0.833  18.166   3.100  0.2479 -0.1777  0.2194
23360W        W39169  13.671  11.758  13.205  0.1707 -0.2752 -0.3647
23361W        W39170   1.179  14.979   1.036 -0.0583  0.0205 -0.3885
23362W        W39171   1.737  11.112   0.002 -0.1373  0.0888 -0.0866
23363W        W39172   8.889   4.973  10.690 -0.0102  0.3754 -0.0757
23364W        W39173  10.190  15.169  12.346 -0.0562  0.1450 -0.1107
23365W        W39174  14.979   3.494   2.902  0.1441  0.0831 -0.2424
23366W        W39175   7.604  17.824  11.461 -0.3161  0.2447 -0.1245
23367W        W39176  15.966  11.488  12.923 -0.1018  0.0523  0.0712
23368W        W39177   4.544  17.561  14.601 -0.1205 -0.0234 -0.0214
23369W        W39178   9.934  10.559  13.895 -0.1798  0.0124  0.0022
23370W        W39179  17.583   8.897   3.447  0.0921 -0.2382 -0.4244
23371W        W39180  13.188   9.842  15.146 -0.0518 -0.0837  0.0172
23372W        W39181   9.490   7.490   1.265 -0.0287 -0.1592 -0.0008
23373W        W39182  16.327  15.337   5.999  0.2048 -0.1396  0.1028
23374W        W39183   7.271   4.608  14.564 -0.0414  0.0732 -0.0606
23375W        W39184  17.045  16.764   4.608 -0.0941  0.0674  0.1952
23376W        W39185  15.621   6.926   2.842  0.0665  0.2791  0.3422
23377W        W39186   1.224   0.327   2.893 -0.0201  0.1642 -0.0959
23378W        W39187   5.466   6.476   0.585 -0.1409 -0.0509 -0.1204
23379W        W39188   4.592   4.871  12.903 -0.4694  0.0044  0.0760
23380W        W39189   6.849   9.251   1.462  0.0064  0.1194 -0.1032
23381W        W39190   4.644   4.184  12.357 -0.2216 -0.1881 -0.1070
23382W        W39191  18.310   1.180  13.029 -0.0077 -0.0845 -0.0587
23383W        W39192  15.255   5.706   4.228  0.0397 -0.1144 -0.0909
23384W        W39193   2.847   8.650  13.708 -0.2480 -0.2249 -0.1648
23385W        W39194   4.915  14.827  12.179 -0.3148  0.0964  0.1740
23386W        W39195  16.642  12.372  12.069 -0.2962  0.1146  0.0080
23387W        W39196   9.798   0.311   3.568  0.1297 -0.1511 -0.0465
23388W        W39197  17.556  18.740   3.810  0.2358  0.0471 -0.1289
23389W        W39198  17.890   3.043  11.386 -0.2234 -0.1029 -0.0698
23390W        W39199  17.716   2.185   1.776 -0.1700 -0.1655  0.4372
23391W        W39200  18.074   7.836   4.841 -0.0563  0.3085 -0.2386
23392W        W39201   4.551  13.227   3.884  0.4087  0.2361  0.2375
23393W        W39202  14.554  17.721   3.901  0.1736  0.1491  0.4092
23394W        W39203   1.103  16.606   2.360 -0.0667  0.0833  0.2398
23395W        W39204   3.579  17.818   0.852  0.0424  0.0359  0.1562
23396W        W39205  17.952  14.880   5.258  0.1374  0.2205  0.0933
23397W        W39206   0.728   7.957  13.376  0.1662 -0.1230 -0.3038
23398W        W39207   1.732  11.131   5.409  0.0002  0.1569  0.0232
23399W        W39208   1.519   1.569   2.882  0.0967  0.1332  0.0890
23400W        W39209  16.869  17.805   0.283  0.0805 -0.1366 -0.1824
23401W        W39210  13.383  17.799   0.308  0.3656  0.2322  0.2299
23402W        W39211   6.808   3.971  12.170 -0.1961 -0.0333  0.2051
23403W        W39212  10.918   7.289  11.872 -0.2151 -0.1862 -0.1684
23404W        W39213  10.700   3.946   5.193  0.2787 -0.0662  0.0806
23405W        W39214   1.471   5.562   1.518 -0.1396  0.0322 -0.1609
23406W        W39215   7.494   6.956   0.136  0.0901 -0.4161 -0.3101
23407W        W39216  14.234   9.695  14.747  0.1002  0.4239  0.0855
23408W        W39217   9.033  14.737   1.720 -0.0507  0.1397 -0.0921
23409W        W39218   8.121   3.874   5.522  0.0359 -0.0889  0.1690
23410W        W39219  13.281   9.264   4.959  0.0973 -0.1966  0.1069
23411W        W39220  16.731   1.116  13.578 -0.2031  0.0050 -0.1794
23412W        W39221  12.919   0.976   0.614 -0.1128  0.1831  0.1593
23413W        W39222  15.427   9.071   2.043 -0.0242  0.2512  0.0139
23414W        W39223   1.419  16.282  11.438 -0.1179  0.0059 -0.0815
23415W        W39224   0.386   8.276  14.783 -0.3143 -0.0581 -0.0943
23416W        W39225  10.859   9.073  13.945  0.1403 -0.0576  0.1308
23417W        W39226  12.548   3.301   3.203  0.1292 -0.0961 -0.2630
23418W        W39227   5.144   8.274   4.860 -0.0178  0.2940 -0.1267
23419W        W39228   3.649   2.845   3.550  0.1384  0.1334 -0.0030
23420W        W39229   6.049   5.575   4.608  0.0746  0.1809  0.2127
23421W        W39230   2.264  10.180   4.607 -0.0050 -0.2401 -0.0318
23422W        W39231   5.506  14.953  10.509 -0.3097 -0.5284  0.2293
23423W        W39232   8.174   8.139   3.206 -0.1086 -0.1597  0.1386
23424W        W39233  16.976  13.948   3.928  0.0126  0.2204 -0.1609
23425W        W39234  15.175   7.859   3.063 -0.1092 -0.4832  0.1134
23426W        W39235   3.473   5.891  13.536 -0.0677 -0.0463 -0.0598
23427W        W39236   0.818   6.917   1.068 -0.0580  0.0828 -0.2777
23428W        W39237   2.113   6.104  14.854 -0.0886  0.0385 -0.0658
23429W        W39238  10.220   4.434  15.231  0.1341  0.0657 -0.0333
23430W        W39239   1.745   0.569   0.562 -0.1487 -0.2425  0.1885
23431W        W39240  13.274  11.643  14.799  0.0848 -0.1670 -0.0823
23432W        W39241   5.564   5.770  12.022  0.1605 -0.0102  0.1085
23433W        W39242  13.054   1.968  12.933  0.0930  0.2764 -0.0964
23434W        W39243  15.788   4.937  12.439 -0.2117 -0.1671  0.0071
23435W        W39244  11.062  13.769  12.455  0.1289  0.1296 -0.1030
23436W        W39245   3.913   7.150   2.658  0.0502 -0.0319  0.0936
23437W        W39246   5.141   8.116  14.797 -0.0981  0.2069 -0.1278
23438W        W39247  15.873   8.580   2.998  0.0967  0.1767 -0.1575
23439W        W39248  12.579   3.921  14.376 -0.1766  0.0973 -0.0136
23440W        W39249   5.977  11.543   2.556 -0.0730 -0.2468  0.0353
23441W        W39250   2.390  12.882   4.302  0.0059 -0.0404 -0.1161
23442W        W39251  13.822   5.751   1.028  0.0087 -0.1513  0.0546
23443W        W39252  14.293  16.867   2.918 -0.0304  0.1932 -0.0488
23444W        W39253  17.929  14.029  11.641 -0.1763 -0.2003  0.0170
23445W        W39254  13.744   5.494   5.135  0.1303 -0.1916 -0.1138
23446W        W39255  15.151   9.007  11.171 -0.1510 -0.0419  0.1889
23447W        W39256  14.915   2.258  13.423 -0.0131  0.3196  0.1743
23448W        W39257  11.123   4.027   3.630  0.3031  0.2370 -0.3363
23449W        W39258  15.181  16.457   3.333 -0.1784  0.0733  0.1784
23450W        W39259   7.416   8.595  14.346 -0.0911 -0.2675 -0.1525
23451W        W39260  17.713   0.698   5.491 -0.0127  0.1165 -0.2929
23452W        W39261   1.631  17.767   1.889 -0.1123 -0.0075 -0.3128
23453W        W39262   6.490   8.069   0.856 -0.0683 -0.4093 -0.3456
23454W        W39263   1.819  11.847   2.725 -0.1590 -0.0370 -0.1350
23455W        W39264   9.152   8.670   2.058 -0.1037 -0.0330  0.0799
23456W        W39265  12.205  17.188   4.170  0.1740 -0.1986  0.1229
23457W        W39266  12.972   1.643  15.242 -0.0164 -0.0941 -0.0348
23458W        W39267   9.040   9.879   1.220 -0.2374  0.0856  0.0804
23459W        W39268   2.300   5.067  12.296  0.1906 -0.0387 -0.1196
23460W        W39269  17.499  17.796   2.146  0.1497  0.0360 -0.1537
23461W        W39270  12.602   2.184   4.960  0.0526  0.1310  0.3135
23462W        W39271   9.377  18.110   1.316  0.3699 -0.3860 -0.0392
23463W        W39272  16.025   9.472   3.277  0.0797  0.0649 -0.1541
23464W        W39273   9.352  10.173  15.467  0.0355 -0.0557  0.2144
23465W        W39274   5.160   4.357  14.420  0.1722 -0.1648 -0.0738
23466W        W39275  13.694   3.881   6.323 -0.2420  0.2130  0.0871
23467W        W39276   0.408  10.251  12.160  0.0981 -0.1667 -0.1208
23468W        W39277   8.385   5.422   2.197 -0.1689  0.1482  0.1153
23469W        W39278  15.469   0.014  14.455 -0.1320 -0.3304 -0.2388
23470W        W39279   8.761   7.965   2.846 -0.0129  0.0883  0.0533
23471W        W39280  10.936  16.319   1.925  0.2809  0.0371  0.0540
23472W        W39281  12.852   2.085  13.934 -0.1262 -0.1040 -0.3195
23473W        W39282   9.340  10.888   2.816 -0.2617  0.0618  0.1428
23474W        W39283   7.261  11.673   3.288  0.2079 -0.0574 -0.0067
23475W        W39284  13.101   3.743  14.436 -0.2908  0.1662 -0.0406
23476W        W39285  18.725  18.337  11.705 -0.0244  0.4524 -0.0145
23477W        W39286   2.009  18.287  13.245 -0.0974  0.0213  0.1943
23478W        W39287  16.518  16.911   0.690 -0.1438 -0.0829 -0.1111
23479W        W39288  15.612  13.730   2.495  0.0751 -0.0967 -0.0694
23480W        W39289  15.819   0.743  11.640  0.0537  0.1145  0.0330
23481W        W39290   3.099   8.392  11.851 -0.1357  0.0452  0.0439
23482W        W39291   6.607   3.739  11.149 -0.0376  0.1661  0.1328
23483W        W39292  11.131  12.680   0.119  0.0172 -0.0038 -0.1004
23484W        W39293   9.055   5.452   1.197 -0.0363  0.0628  0.2117
23485W        W39294  14.908  17.021   3.823 -0.0237  0.2028 -0.1638
23486W        W39295   2.936   4.911   1.974  0.2016 -0.1895  0.1851
23487W        W39296   4.357  17.997  11.887 -0.1095 -0.2686 -0.2249
23488W        W39297   6.498   7.504   2.239 -0.1140 -0.1533 -0.1059
23489W        W39298  14.758  11.023  15.122  0.1716  0.1109  0.1843
23490W        W39299   7.105  10.297   4.583 -0.2084  0.0576 -0.0710
23491W        W39300  13.882   7.982   1.813  0.1355 -0.1419  0.1628
23492W        W39301   5.522  17.177  13.790 -0.2593 -0.1397  0.1545
23493W        W39302   4.916   2.319   1.686  0.3909  0.0483  0.0399
23494W        W39303  13.028   1.858  14.816  0.0692  0.1442 -0.1756
23495W        W39304   6.172  10.981  13.957 -0.1204  0.1526  0.1668
23496W        W39305   9.576   0.986   1.131  0.1775 -0.3096  0.0333
23497W        W39306   4.529   1.094  11.715 -0.0833  0.0706  0.0901
23498W        W39307  16.109   1.234   2.834  0.2312  0.2703  0.4141
23499W        W39308  14.313  10.611  13.757  0.1881  0.1983  0.0469
23500W        W39309   5.488  18.682   3.281 -0.0642  0.1016 -0.0677
23501W        W39310   7.939   8.715  11.868 -0.0397 -0.3360 -0.2819
23502W        W39311   7.031   6.887   1.867  0.0669  0.1568  0.1026
23503W        W39312   8.039  12.876   5.726  0.2611 -0.0720  0.0547
23504W        W39313  14.904  17.691   2.051  0.1096 -0.2428 -0.0285
23505W        W39314   9.425   6.782  13.982  0.1898 -0.2189 -0.1403
23506W        W39315   9.834   3.112  15.052 -0.1529  0.3896 -0.0655
23507W        W39316   3.655   0.251   3.814  0.2751 -0.0844  0.0258
23508W        W39317   0.413   4.577   1.466 -0.0865  0.0347  0.3004
23509W        W39318   6.070   4.564   4.954  0.2308 -0.1015 -0.1037
23510W        W39319  10.268   3.822   2.836  0.2408 -0.1852  0.0130
23511W        W39320  12.212   5.407  13.664  0.0502 -0.0025 -0.0895
23512W        W39321  15.233   4.986   3.710  0.3398  0.0189  0.0902
23513W        W39322   7.941   4.227  13.849 -0.1336  0.1820  0.0241
23514W        W39323   5.805  18.700  11.856  0.0381  0.1084 -0.1880
23515W        W39324   4.307  11.062  14.245  0.1020  0.2330 -0.2042
23516W        W39325  13.949  12.998   3.546 -0.0589 -0.0758  0.2722
23517W        W39326  14.088  15.274  13.119 -0.0778 -0.2034 -0.0935
23518W        W39327  16.717  17.725  11.071 -0.0748 -0.1871 -0.1992
23519W        W39328  13.061   3.868  11.471 -0.2641 -0.2368  0.2504
23520W        W39329  10.882  14.447   2.279 -0.0454  0.2571  0.0448
23521W        W39330  18.232   1.766  13.913  0.1081  0.0674 -0.0471
23522W        W39331   9.506   8.891  11.172 -0.1861 -0.2483  0.0529
23523W        W39332   0.302   3.891   3.337 -0.2468 -0.3627 -0.0938
23524W        W39333   9.688   7.148  10.375 -0.0640 -0.3043  0.1980
23525W        W39334  15.547  17.283   3.107 -0.3207  0.2674 -0.2549
23526W        W39335   0.122   9.556   2.467  0.1053  0.1352 -0.1191
23527W        W39336  13.599   5.232   4.220  0.0114  0.1598  0.1014
23528W        W39337  13.444  14.352  10.034 -0.0132  0.0070  0.1527
23529W        W39338  11.364  18.552  13.384  0.0312  0.0294  0.1867
23530W        W39339  18.760   1.767   5.709  0.0019  0.1311  0.0287
23531W        W39340   3.056  16.795  14.285 -0.1054  0.0564 -0.1463
23532W        W39341  10.359   5.027   0.556  0.0468 -0.0962  0.3698
23533W        W39342   0.884   8.331   4.958 -0.2135  0.3144 -0.1443
23534W        W39343  10.018  16.631   1.682 -0.1136 -0.0837  0.1975
23535W        W39344   3.388  11.306   5.030 -0.0013  0.0523 -0.0443
23536W        W39345   4.033  16.872   0.690 -0.2575  0.1108 -0.0864
23537W        W39346   5.110  11.194   0.754 -0.4252  0.1375  0.2214
23538W        W39347  13.465   8.441   4.139 -0.3243  0.1091 -0.0561
23539W        W39348  13.586   4.022   0.815  0.2938 -0.1331 -0.1549
23540W        W39349  14.760  18.552  12.253 -0.2102 -0.3343  0.1123
23541W        W39350   6.567   8.842   3.347 -0.0140  0.0848  0.4285
23542W        W39351  13.906  17.028  15.001  0.1533 -0.0806 -0.0259
23543W        W39352   8.125   0.200  12.078  0.2837  0.1191  0.0670
23544W        W39353  11.288   1.814  12.986 -0.2143  0.0092  0.1031
23545W        W39354   3.557  15.072   1.981 -0.0306  0.4006  0.2705
23546W        W39355  17.354   4.723  13.068 -0.0364  0.2082  0.0726
23547W        W39356   2.856  16.925  12.361 -0.0655 -0.1149 -0.2362
23548W        W39357  17.281   4.881  12.514  0.0123 -0.1660 -0.6600
23549W        W39358   8.040  15.385   1.038  0.0220  0.0394  0.1636
23550W        W39359  10.991  12.831  10.813 -0.1107 -0.1007 -0.0298
23551W        W39360  11.588  14.416  11.143  0.0578 -0.2470  0.0846
23552W        W39361   3.509  18.282   2.631 -0.0991  0.1802 -0.1159
23553W        W39362   6.422   1.349   2.531 -0.1515 -0.0525 -0.1855
23554W        W39363   9.118  18.598  12.660  0.0168 -0.1139 -0.0647
23555W        W39364   7.598   0.399  12.480 -0.0380  0.1159  0.1267
23556W        W39365  17.174   1.672  12.563  0.1194 -0.0808 -0.0231
23557W        W39366   6.773   4.995   4.469  0.1861 -0.0547 -0.0821
23558W        W39367   7.628  15.151   1.095  0.1097  0.0124 -0.0474
23559W        W39368  17.765  10.188   5.065 -0.1621 -0.2085  0.0514
23560W        W39369   6.700   2.622   0.378 -0.2429 -0.1575 -0.1625
23561W        W39370   4.781   5.103  10.874 -0.0104 -0.0944  0.0486
23562W        W39371  13.771   8.356  14.127  0.2128  0.0237  0.4129
23563W        W39372  14.102  11.179   3.493 -0.3865  0.1267  0.0239
23564W        W39373   9.110   0.656  14.888 -0.0076 -0.0181 -0.0378
23565W        W39374   2.580  12.169   4.766  0.0657 -0.0867 -0.0754
23566W        W39375  17.372   2.260   0.556 -0.2573  0.0379  0.4341
23567W        W39376   4.191   2.186  12.097 -0.0010 -0.0475 -0.0967
23568W        W39377   1.081  15.505   9.518 -0.0106  0.0017 -0.0305
23569W        W39378   5.375  17.857   9.443 -0.1842  0.3111  0.3644
23570W        W39379  17.331   2.926  12.126  0.1224  0.2103 -0.0071
23571W        W39380  10.239  17.813   1.070 -0.0228  0.3096  0.0184
23572W        W39381   2.073   8.671   5.628  0.0439  0.0774 -0.2040
23573W        W39382  13.886   8.366  15.069  0.2002  0.1967  0.0797
23574W        W39383  12.775   7.565   0.032 -0.0303  0.1373  0.0642
23575W        W39384  16.623  13.580   3.932  0.1887 -0.1645  0.1069
23576W        W39385   3.735  14.822  10.529 -0.3022 -0.3188  0.0352
23577W        W39386   7.235  12.960   1.604  0.0906  0.1527 -0.1379
23578W        W39387  18.040  15.454   4.161 -0.0073 -0.2467 -0.0941
23579W        W39388  12.059   7.472  12.806  0.1831 -0.1772 -0.0817
23580W        W39389  16.378   6.762  11.056 -0.1959  0.1668  0.1475
23581W        W39390  12.150  18.002   3.147 -0.3273 -0.1170  0.0605
23582W        W39391   1.191   2.221   0.920  0.1410  0.2189  0.1200
23583W        W39392  15.004  17.125  14.836 -0.1439 -0.1008  0.2301
23584W        W39393   3.964   2.193   1.988  0.0954  0.0669  0.2201
23585W        W39394   9.460   2.604  12.337  0.0949 -0.3294  0.1433
23586W        W39395   9.439  14.596   2.931  0.0551  0.1236 -0.2517
23587W        W39396  17.401  13.739  15.557 -0.1339  0.0496  0.0163
23588W        W39397  13.134   8.775  14.671  0.1070 -0.0551 -0.2879
23589W        W39398   3.325   3.590   9.837 -0.2247 -0.1542  0.1105
23590W        W39399  13.957   8.752  11.898  0.1303 -0.0538 -0.1612
23591W        W39400   4.136  15.954  11.128  0.0345  0.0790 -0.0695
23592W        W39401   9.941   2.786   1.220  0.2673 -0.3918 -0.0907
23593W        W39402  14.389   6.965  10.994 -0.0109  0.1109 -0.2588
23594W        W39403   0.840   0.065  12.673  0.1316  0.0610 -0.0047
23595W        W39404  11.303  13.526   1.328 -0.0519  0.0934 -0.0750
23596W        W39405  13.202   9.489  15.507 -0.1601 -0.1816  0.1519
23597W        W39406   2.032   7.148  10.866  0.1923 -0.0853  0.2621
23598W        W39407  12.703  16.578  11.603  0.1658  0.3006 -0.0619
23599W        W39408   9.655   8.156  14.083 -0.2086 -0.1655 -0.0609
23600W        W39409   3.740  14.502   1.248  0.0690 -0.2276 -0.3155
23601W        W39410   5.932   9.131  14.024  0.0641  0.4127 -0.0284
23602W        W39411  16.438   2.509  10.402  0.1196 -0.2451  0.1347
23603W        W39412   4.991   2.079  11.097  0.1221  0.0101  0.1527
23604W        W39413  11.914  10.995  10.826 -0.0399  0.0669  0.1916
23605W        W39414  16.496   5.586   0.996  0.0391 -0.0055  0.1873
23606W        W39415  15.869   5.373  15.416 -0.1092  0.1369 -0.0727
23607W        W39416   0.110   6.099   3.485 -0.0902 -0.1001 -0.1179
23608W        W39417   1.302  15.484  13.014 -0.3049  0.0083 -0.1019
23609W        W39418  16.810   4.626  12.710  0.2701  0.1259 -0.2200
23610W        W39419  18.486  17.287  15.430  0.2488 -0.2912  0.0042
23611W        W39420   4.326  13.160  14.273 -0.2140  0.3804  0.2938
23612W        W39421  17.819   7.905   2.652  0.1362  0.0291 -0.3437
23613W        W39422  11.262   6.286  13.808  0.0811 -0.0393  0.0813
23614W        W39423   5.574   1.834  15.439  0.3909  0.1130 -0.0296
23615W        W39424   7.555   2.218  11.094 -0.3201  0.2393 -0.0797
23616W        W39425   2.271  13.561   1.978  0.0141  0.1943  0.3515
23617W        W39426  15.417   0.999   4.486 -0.1161  0.2698 -0.0586
23618W        W39427   0.409   2.350   5.176 -0.0634  0.3182 -0.1818
23619W        W39428  11.726   4.187  13.372 -0.0547  0.0904 -0.1173
23620W        W39429   5.448   8.334   2.450 -0.0877 -0.1336 -0.0063
23621W        W39430  10.566   1.344   1.245 -0.0247 -0.0746  0.2082
23622W        W39431  18.317  12.213   1.414 -0.0215  0.1648 -0.0553
23623W        W39432  10.332   0.043  13.579 -0.1345  0.0533  0.1116
23624W        W39433  10.543  14.369   0.929 -0.0661  0.2630 -0.0159
23625W        W39434  16.395   3.079   1.225  0.1871 -0.2976  0.3652
23626W        W39435   4.762  15.098  15.475  0.0377 -0.2582  0.3122
23627W        W39436   5.989   4.589  14.043 -0.2051  0.2711  0.1584
23628W        W39437   5.991  16.042   1.300  0.2895  0.0107 -0.1712
23629W        W39438   2.335   6.894   4.233  0.1281 -0.0139 -0.3382
23630W        W39439  10.971  14.801   2.626  0.4368  0.3148  0.2542
23631W        W39440   6.637   0.959   1.245  0.2400  0.1778  0.1252
23632W        W39441  11.572  13.368  14.942  0.0704  0.0270 -0.2265
23633W        W39442  17.083   0.734  13.515  0.1759 -0.1224 -0.1345
23634W        W39443   9.234   6.011   2.896 -0.0088  0.0791 -0.1351
23635W        W39444   2.472  13.296   5.068 -0.2736 -0.1683 -0.1372
23636W        W39445   6.867  11.012   0.970  0.1219 -0.4612 -0.0196
23637W        W39446  10.288  11.075  13.101  0.1408 -0.2043 -0.2514
23638W        W39447   8.138  10.245   5.106 -0.0198  0.2070 -0.1301
23639W        W39448   0.918   0.974   2.162  0.1405  0.3391  0.0425
23640W        W39449   1.153   5.828   5.114  0.1610 -0.1662 -0.1605
23641W        W39450   7.549  15.746   2.688 -0.0683 -0.0439  0.1486
23642W        W39451  10.181   6.013   0.684  0.0852  0.2379  0.0579
23643W        W39452   7.675   8.239   0.320  0.2591  0.0061 -0.0509
23644W        W39453   7.779   6.761  11.894  0.3276 -0.0805 -0.4447
23645W        W39454   2.851  10.066  12.510  0.1449 -0.0939  0.0574
23646W        W39455   0.577  14.508  10.477 -0.4867 -0.0152  0.4058
23647W        W39456   7.678   2.489   5.052  0.0452  0.1826  0.0785
23648W        W39457   1.811  10.996  11.499  0.4625  0.3185  0.0236
23649W        W39458   6.734  12.406  13.262 -0.1734  0.2616  0.2366
23650W        W39459  16.821   8.122  15.562 -0.1241 -0.1557  0.1397
23651W        W39460  13.627   2.840  12.999  0.2200 -0.2289  0.0899
23652W        W39461  18.360  15.322   9.814  0.1646 -0.2328  0.0147
23653W        W39462   0.434   1.963   2.903 -0.1721 -0.2645 -0.5107
23654W        W39463   3.158   9.382   2.426  0.0941 -0.0143  0.1164
23655W        W39464  16.454   4.039   9.473  0.1137  0.1580  0.1189
23656W        W39465  13.417  14.725   0.786 -0.4005  0.0788 -0.2102
23657W        W39466   1.488   4.318  12.615  0.3695  0.0477  0.0883
23658W        W39467   0.191  17.389   0.942 -0.0778  0.1415 -0.3333
23659W        W39468   1.630   4.068  13.964 -0.1768  0.0790 -0.2132
23660W        W39469   6.086   0.329  14.446 -0.0886 -0.1127 -0.0420
23661W        W39470  14.743  15.196   2.929  0.0163  0.1220  0.0770
23662W        W39471   1.958  12.003   1.751 -0.2889 -0.4706  0.0661
23663W        W39472  14.359   7.541  14.417  0.0000 -0.0427  0.1116
23664W        W39473   0.560  16.708  11.624 -0.1436  0.0002 -0.2262
23665W        W39474  14.416  13.076   3.659  0.0283 -0.6369  0.3525
23666W        W39475   6.512   7.593   3.220 -0.1345  0.0099 -0.0337
23667W        W39476   9.990   6.406   0.395  0.2502  0.1214 -0.3708
23668W        W39477  15.305   2.797  12.616 -0.1309  0.1102  0.0988
23669W        W39478  17.611  17.787  12.155 -0.1238  0.0608  0.1591
23670W        W39479   2.687   8.975  12.956 -0.0111  0.2428 -0.1377
23671W        W39480  13.796   2.048   2.631  0.1352  0.0534 -0.2468
23672W        W39481  17.687   0.085  13.879  0.1453  0.0709 -0.1913
23673W        W39482   2.803   1.518   1.148  0.3291 -0.2624  0.2170
23674W        W39483  13.817   0.413   5.381 -0.1272  0.1490 -0.1479
23675W        W39484  18.413   9.633   1.140  0.1541  0.0987 -0.0424
23676W        W39485  16.057  11.996   1.282  0.0369  0.1274  0.3055
23677W        W39486   3.943   5.585   2.994  0.1762 -0.0380  0.0283
23678W        W39487   7.827   0.566   5.003  0.1189 -0.1325 -0.3026
23679W        W39488   8.797   0.469  11.199  0.1939 -0.1258 -0.3035
23680W        W39489   4.696  18.704   2.951  0.5272  0.0621 -0.1530
23681W        W39490   1.043   6.931   0.644 -0.0481  0.4061  0.1177
23682W        W39491   7.278   2.539   2.608  0.1009 -0.0867  0.0460
23683W        W39492  14.925  10.273   0.804 -0.0950 -0.2178  0.3007
23684W        W39493   2.964   0.289  13.194 -0.0730 -0.1601  0.3796
23685W        W39494   1.034   5.938   2.082  0.3047  0.1876 -0.2190
23686W        W39495   9.828   8.513   3.305 -0.0886 -0.0324  0.0980
23687W        W39496  16.172  10.106  10.079  0.3964  0.2252  0.1797
23688W        W39497   3.752  12.740  10.697 -0.2949  0.0237  0.1100
23689W        W39498  11.014  14.400   2.980 -0.6297  0.0312  0.0730
23690W        W39499   6.582  17.320   4.414 -0.2577 -0.0089  0.2948
23691W        W39500  13.534  13.626  10.951 -0.4663  0.0162 -0.1239
23692W        W39501   6.381  14.204  13.417  0.0540 -0.2813 -0.1024
23693W        W39502   0.587  14.254  12.547  0.1090  0.0625  0.1059
23694W        W39503   0.327  16.278  11.509  0.0528  0.3463  0.0600
23695W        W39504   5.203   0.593  10.621 -0.2355  0.0257  0.0984
23696W        W39505   1.109   1.931  11.402  0.1862 -0.4572 -0.0529
23697W        W39506   3.872   0.374   1.316  0.1170  0.2678  0.0757
23698W        W39507  17.394  12.192   2.957  0.0300 -0.1732  0.2663
23699W        W39508   3.047   9.620   0.779  0.0709  0.1382  0.1155
23700W        W39509  13.786  10.596  14.440  0.0438  0.0672 -0.0296
23701W        W39510  11.818  12.703   2.917  0.4433  0.0256 -0.0712
23702W        W39511  10.574  17.708  12.843  0.0773  0.2014 -0.1434
23703W        W39512  15.725   1.410  11.777 -0.0226 -0.0111  0.1744
23704W        W39513  11.868   5.165   5.306 -0.2007 -0.1276 -0.0670
23705W        W39514  15.633  16.154   5.676 -0.1092 -0.0272 -0.1446
23706W        W39515   5.677   9.197   2.719 -0.0038  0.3155 -0.0588
23707W        W39516  16.183  14.220   0.099 -0.3009 -0.3909  0.1142
23708W        W39517   9.658  12.184   4.755  0.1419  0.0726 -0.1976
23709W        W39518  10.551   6.380   0.201  0.0225 -0.1508  0.0256
23710W        W39519   7.985  10.390  13.258 -0.2838 -0.4455  0.0230
23711W        W39520   3.713   6.376  10.849  0.3593  0.0186 -0.2577
23712W        W39521   4.246   9.559   1.633 -0.0811 -0.0620  0.0202
23713W        W39522  12.907  15.244  10.212 -0.1587 -0.0077 -0.2240
23714W        W39523   3.110  18.102   0.798 -0.3154  0.4002 -0.0204
23715W        W39524   6.852  12.568   5.212  0.2554 -0.1250  0.1191
23716W        W39525  18.302  14.228  13.926  0.0760  0.0316  0.0470
23717W        W39526  11.677   5.221   0.390 -0.0035 -0.4444  0.2091
23718W        W39527  16.005   0.278   4.467 -0.0675  0.0745 -0.0655
23719W        W39528  16.273  16.488   5.317 -0.2460  0.0595  0.1965
23720W        W39529  12.355   1.870  11.227 -0.3528 -0.0224 -0.0565
23721W        W39530   2.446  14.720   4.576 -0.1048  0.0269 -0.3783
23722W        W39531  12.836  15.843   4.559  0.4408  0.0298  0.1231
23723W        W39532   7.401   7.507   4.185 -0.3312  0.1899 -0.0570
23724W        W39533   3.498   3.360   4.178  0.0492 -0.2922 -0.2503
23725W        W39534   3.763   6.034  12.235 -0.0210 -0.4069 -0.0228
23726W        W39535  10.686  12.599   4.966  0.3546 -0.4511  0.1592
23727W        W39536   8.161  17.296   5.442 -0.2032 -0.0584 -0.0275
23728W        W39537  10.524  14.435   2.673  0.1205  0.0472 -0.0598
23729W        W39538  10.412  10.299   4.292 -0.1578 -0.0072  0.2389
23730W        W39539  16.610  16.965  13.914 -0.1347 -0.0218 -0.1893
23731W        W39540   4.217   5.472   5.091 -0.0599  0.0649 -0.0530
23732W        W39541  16.598  15.035  12.507 -0.2616 -0.0128  0.6593
23733W        W39542   9.490  16.777  14.862 -0.1633 -0.1246 -0.0849
23734W        W39543   0.802  10.782  15.211  0.0489  0.3190 -0.1579
23735W        W39544  14.199   5.709   4.984  0.0790 -0.1076 -0.0899
23736W        W39545   1.601   7.749  13.471  0.1203  0.2858 -0.1889
23737W        W39546  12.251  13.118   5.061  0.1795  0.0884  0.4335
23738W        W39547  10.630   4.020   3.755  0.1507 -0.1930  0.0863
23739W        W39548   2.849  13.826  15.476  0.1462  0.1692  0.1078
23740W        W39549   3.325   1.264   3.017 -0.0175  0.4495  0.0847
23741W        W39550   3.610  15.285  12.459 -0.0797 -0.2337  0.2394
23742W        W39551  10.886  10.702   2.114  0.0754  0.0755 -0.0191
23743W        W39552  12.939   8.796   3.006 -0.4097 -0.3672  0.0100
23744W        W39553   0.999   7.154   2.554 -0.1228 -0.3474 -0.2745
23745W        W39554  18.018   3.238   2.336 -0.2169 -0.1336 -0.2418
23746W        W39555   9.242   1.697  13.029 -0.1199  0.4280 -0.0169
23747W        W39556   7.340  12.009   0.070  0.1471  0.0005  0.1708
23748W        W39557   6.682  14.124   5.299 -0.0073 -0.1685  0.0159
23749W        W39558  17.361  15.910   3.826 -0.4343 -0.0511 -0.1173
23750W        W39559  16.279   6.881  13.103 -0.0489  0.0321  0.1248
23751W        W39560  10.196   0.421   4.583 -0.2610  0.0054 -0.0584
23752W        W39561   9.235  16.620   2.298 -0.0631  0.0895  0.1164
23753W        W39562  12.225   4.792   9.633  0.2108 -0.0170 -0.0077
23754W        W39563  12.210  17.703   2.308  0.1574 -0.0631  0.1535
23755W        W39564  13.681  12.909   1.080  0.0355  0.1549  0.0026
23756W        W39565  12.296   6.701   0.944 -0.1031  0.1130 -0.0796
23757W        W39566   2.129   6.893   3.675  0.0638  0.2621  0.0798
23758W        W39567  11.395   8.609  14.597 -0.0657  0.0292  0.1120
23759W        W39568  15.985   1.706   2.800 -0.2834 -0.1621 -0.5942
23760W        W39569  13.706   9.056   4.746  0.2195 -0.0440 -0.3555
23761W        W39570   7.263   9.686   3.203 -0.3208 -0.0793 -0.0636
23762W        W39571  11.738  10.027   4.781 -0.1098  0.0208  0.1778
23763W        W39572   4.646  14.767  12.593  0.0195 -0.0144  0.4488
23764W        W39573   3.131  15.540   2.123 -0.1506 -0.0517  0.0364
23765W        W39574   5.075   4.691   3.897  0.0893  0.3473 -0.2151
23766W        W39575  17.487  14.262   0.263  0.2150  0.2154  0.0402
23767W        W39576   3.088   5.674  11.134  0.2658 -0.3045 -0.0308
23768W        W39577   2.627  10.000  14.536  0.2760 -0.1186  0.2791
23769W        W39578  13.549   4.201  14.932 -0.4521  0.0337 -0.3347
23770W        W39579   4.891  18.239  14.380  0.0131  0.2997  0.1972
23771W        W39580  12.260  12.933  15.290  0.1871  0.2327  0.3431
23772W        W39581   0.820  17.049   4.290 -0.4195 -0.0074 -0.1753
23773W        W39582  18.178  11.379  12.626  0.1991  0.0063 -0.1739
23774W        W39583   8.087  11.989  10.227 -0.1829 -0.1351  0.1286
23775W        W39584  18.084  17.580  12.086 -0.4098  0.0816  0.2594
23776W        W39585  17.030   4.041   1.805 -0.3116  0.1690 -0.0709
23777W        W39586  18.149   7.234   2.208  0.1060 -0.0629 -0.2542
23778W        W39587  16.484   1.369  11.187  0.0417 -0.1968  0.2591
23779W        W39588  14.451   2.424  15.046  0.1541  0.1081 -0.1018
23780W        W39589   3.978   0.665  13.904  0.2162 -0.0257 -0.2632
23781W        W39590   2.036   1.767   3.909  0.0606  0.0480  0.0510
23782W        W39591   6.235   2.086   5.022 -0.0501  0.1624 -0.0751
23783W        W39592   8.896   9.978   0.739 -0.2021 -0.3031  0.2015
23784W        W39593  10.898  13.656  10.753  0.0651  0.0993 -0.1925
23785W        W39594  15.055  11.751   1.330  0.0211 -0.0411 -0.0170
23786W        W39595  10.925  10.688  12.758  0.1518 -0.0632  0.2376
23787W        W39596  13.777   9.284  15.204 -0.0513 -0.1552  0.3520
23788W        W39597   1.450  15.977   3.534 -0.0159 -0.0026  0.1158
23789W        W39598   9.592  13.814  11.150 -0.0753  0.2057  0.2166
23790W        W39599  17.309   6.087  13.075 -0.3067  0.2020  0.1728
23791W        W39600  15.564   3.833  12.434 -0.3236 -0.1257 -0.3589
23792W        W39601  11.851  18.237   6.151  0.0365  0.2226 -0.2996
23793W        W39602   1.146   8.109   4.507 -0.1598 -0.1976  0.1667
23794W        W39603  16.890  15.460  11.441  0.2177  0.2180  0.1105
23795W        W39604   4.177  18.250   3.949 -0.3001 -0.0894  0.1459
23796W        W39605   8.526  17.788   4.931  0.2030  0.3913  0.1406
23797W        W39606   3.510  18.222  13.921  0.1630  0.2977 -0.2458
23798W        W39607   8.737   9.218   1.270  0.1204 -0.3449 -0.0592
23799W        W39608   5.676  10.595   2.968  0.0447  0.1698 -0.1658
23800W        W39609   4.971   9.204  13.970 -0.1161 -0.0999 -0.2252
23801W        W39610   0.683   5.969   2.528  0.0769  0.1288  0.0775
23802W        W39611   9.912   4.606  14.009 -0.2415 -0.1966 -0.2856
23803W        W39612  16.451   1.722  12.403 -0.5767  0.1448  0.1600
23804W        W39613  15.452  12.141   2.329 -0.0359 -0.2482  0.1873
23805W        W39614  15.178  14.344   1.061  0.1717  0.1835  0.2502
23806W        W39615   6.982   5.913   2.195  0.0581 -0.1125 -0.1776
23807W        W39616   7.995  10.613   3.840 -0.1760  0.2061 -0.4169
23808W        W39617  18.592   6.118   0.717  0.3588 -0.3552  0.2192
23809W        W39618   0.405   3.362  14.038  0.1418 -0.0618  0.0139
23810W        W39619  13.037   0.214   2.548  0.3136  0.1564  0.0286
23811W        W39620   3.640  10.287  14.549 -0.2699  0.4584 -0.1597
23812W        W39621   9.722   7.439   2.528 -0.1760 -0.0007 -0.1468
23813W        W39622   6.352   1.934  11.258 -0.0759 -0.2148  0.0989
23814W        W39623  10.613  13.163  10.617 -0.0039 -0.1490  0.1347
23815W        W39624  15.575   9.270  13.595 -0.0131  0.2885 -0.2818
23816W        W39625   7.373   2.230  13.492  0.3595  0.0054 -0.2113
23817W        W39626   2.660  18.693   4.673 -0.2406 -0.3439 -0.1204
23818W        W39627   6.929   1.089  13.921  0.2440  0.3729 -0.1812
23819W        W39628   7.882  15.961   1.638 -0.1041  0.1822  0.0659
23820W        W39629   1.633  16.491   3.507 -0.0461  0.4468 -0.0114
23821W        W39630  15.142  17.657   0.300 -0.2132 -0.0862  0.1208
23822W        W39631   8.901  13.742   4.936 -0.1402 -0.0578 -0.2011
23823W        W39632   3.194   5.238   1.216  0.0078  0.0320 -0.0462
23824W        W39633   7.206  16.951  11.764  0.0518 -0.0349  0.1455
23825W        W39634   6.549   1.347   0.229  0.3180 -0.5141 -0.2291
23826W        W39635  11.362   7.984  11.951  0.2166  0.2016  0.1657
23827W        W39636  13.912  10.219   1.196  0.0109  0.4686 -0.1762
23828W        W39637  16.723  14.221  15.526 -0.0675  0.0645  0.2329
23829W        W39638  11.063  16.682  13.466  0.3137  0.1435 -0.2118
23830W        W39639   4.379   1.504  13.539 -0.3484  0.0164  0.0060
23831W        W39640   6.753   5.359   3.023  0.2111 -0.0738 -0.1688
23832W        W39641  16.987   0.709   2.877  0.0725 -0.0479  0.1848
23833W        W39642  17.621   0.569   3.781  0.0205  0.1076 -0.0937
23834W        W39643  15.505   4.895   6.025 -0.1958  0.0350  0.1387
23835W        W39644  17.570   4.822  11.284  0.3289 -0.0705 -0.1263
23836W        W39645  12.820   9.213   4.659 -0.0085 -0.1156  0.0156
23837W        W39646   1.669  14.618  15.350  0.0527 -0.2589 -0.1480
23838W        W39647   0.621   2.012  14.891  0.2577 -0.2801 -0.1996
23839W        W39648   3.416  11.551  13.647 -0.0725 -0.0172  0.0453
23840W        W39649   8.257  11.771  14.264 -0.3231  0.2157 -0.0386
23841W        W39650  12.450   8.064   1.242 -0.0519  0.1356  0.1098
23842W        W39651   2.627   4.769   3.575  0.2915 -0.1029  0.2150
23843W        W39652  17.275  16.440   5.001 -0.2124  0.0906  0.3383
23844W        W39653  15.502  13.577  15.049  0.0452 -0.3793  0.2688
23845W        W39654   4.402   2.309  10.118  0.1483  0.1543  0.2431
23846W        W39655   4.291   6.861  14.443 -0.0580  0.1674 -0.2204
23847W        W39656  16.122  15.138   5.197  0.0790 -0.2609  0.0568
23848W        W39657  18.068  16.299  14.009  0.1357  0.0250  0.4048
23849W        W39658   6.574   3.967  10.706  0.1480 -0.1002  0.0190
23850W        W39659  14.910  11.707   3.828 -0.0809  0.0585 -0.4315
23851W        W39660  11.434   2.361  12.276 -0.0869 -0.1361  0.0098
23852W        W39661  10.155  13.083  13.946 -0.0219 -0.2463 -0.1340
23853W        W39662  14.347   5.199   5.711  0.1822  0.0475 -0.0289
23854W        W39663   7.203  15.303  15.124  0.1122 -0.3316 -0.1933
23855W        W39664  13.529  16.633   0.721  0.0025 -0.3014 -0.2093
23856W        W39665   7.665   1.064   3.557  0.1880 -0.2271  0.0434
23857W        W39666  17.426   3.075  11.189  0.0519 -0.3539  0.2082
23858W        W39667  12.002   1.427   6.035 -0.0232  0.1196  0.1103
23859W        W39668   6.100   1.772   4.003 -0.2444 -0.1596  0.0346
23860W        W39669   4.601  15.854  11.263 -0.0954 -0.0980 -0.1434
23861W        W39670  11.215   1.353  15.094  0.1345  0.0868 -0.0445
23862W        W39671   6.045   5.174   0.383 -0.1316  0.1140  0.1370
23863W        W39672   6.524   8.946   1.743  0.0084  0.2752  0.2260
23864W        W39673   2.973   5.554   4.853  0.1460  0.1802  0.2156
23865W        W39674  13.178   0.309   5.452  0.1034  0.1229  0.1309
23866W        W39675  12.620  14.837  14.323 -0.0839  0.1029  0.0755
23867W        W39676   4.783   7.433  13.124  0.0307  0.0604 -0.0468
23868W        W39677  10.429  15.569  12.660  0.1550  0.6048  0.0046
23869W        W39678  17.069  17.742   4.944  0.0764 -0.2634 -0.1396
23870W        W39679  13.686   5.624   4.684 -0.3621  0.1402  0.0837
23871W        W39680   1.156  14.589   3.309  0.1557 -0.1050  0.3513
23872W        W39681  17.419   2.129  12.627 -0.1182 -0.0949 -0.3834
23873W        W39682   0.964   3.356  13.953  0.1383 -0.0857  0.1899
23874W        W39683   8.428  14.961   2.445  0.2502  0.0565  0.3338
23875W        W39684  16.994   3.896  10.807  0.1228 -0.1299  0.0830
23876W        W39685   4.125   9.610  14.347 -0.2178 -0.0749  0.4014
23877W        W39686  11.138   1.738   5.486  0.1170  0.0124 -0.2310
23878W        W39687  10.049  17.360   1.206 -0.2333  0.1245 -0.0721
23879W        W39688  15.353   6.118   5.311 -0.1609  0.4226  0.0013
23880W        W39689  13.895  16.281   5.549  0.1146  0.0631  0.0436
23881W        W39690   2.556  16.621   2.612  0.0937  0.1285 -0.0509
23882W        W39691   4.536   2.758  10.409  0.2646  0.2020 -0.0350
23883W        W39692  12.059  12.273  13.725 -0.2354 -0.1029  0.3708
23884W        W39693  15.022   5.235   3.304  0.0398 -0.2490 -0.1479
23885W        W39694   1.065  14.128  11.828 -0.0529  0.0538 -0.1212
23886W        W39695   0.227  10.497   9.432 -0.0756  0.4768  0.0855
23887W        W39696  17.937   3.830   3.282 -0.1592  0.0373  0.1023
23888W        W39697  17.571   3.239   0.989 -0.1882 -0.1073  0.1233
23889W        W39698  12.271   5.947   4.781 -0.0839  0.1148 -0.1229
23890W        W39699  12.175   2.209   1.901  0.2236 -0.1829 -0.2587
23891W        W39700   3.509   3.407  14.888  0.1366  0.1329  0.4406
23892W        W39701   1.457   6.497   4.335  0.1297  0.2055  0.2198
23893W        W39702   9.704   5.662   4.777 -0.1884  0.0371  0.1086
23894W        W39703  12.429  16.218  14.477  0.1708  0.1074 -0.1099
23895W        W39704  12.656   9.747  12.972 -0.2159  0.1139  0.2794
23896W        W39705   1.730   4.660   5.773 -0.0555  0.0047 -0.3869
23897W        W39706  18.140   8.163   2.146  0.1434 -0.0437  0.3178
23898W        W39707   2.138  17.693  12.762 -0.3365  0.2347 -0.4715
23899W        W39708   3.313   4.900  15.488 -0.0269  0.0843  0.1761
23900W        W39709   2.243   6.079   0.374 -0.0944  0.1093 -0.0592
23901W        W39710   9.271   4.417   5.741 -0.2797 -0.2921  0.1262
23902W        W39711  17.778   2.275  12.199  0.1503  0.1524  0.4892
23903W        W39712   0.422  13.381   1.269 -0.0585  0.3260  0.1473
23904W        W39713  16.522   2.506  14.727  0.0465  0.0072  0.0355
23905W        W39714  13.710   3.782   2.136  0.0943  0.1680  0.0750
23906W        W39715   4.884  17.835   1.126 -0.0635  0.0420  0.3316
23907W        W39716  15.539   0.619   1.321 -0.0038 -0.0146 -0.0623
23908W        W39717   6.213  17.913  14.862  0.0022 -0.0308 -0.0832
23909W        W39718  17.898   6.367   4.508  0.1570 -0.0663 -0.2139
23910W        W39719   2.407   9.012  14.407 -0.0793  0.0007  0.0903
23911W        W39720   5.252  12.548  13.006  0.4422  0.1776  0.2154
23912W        W39721  12.010  14.263  13.912  0.2323 -0.0144  0.1725
23913W        W39722   4.073  14.182  12.726 -0.3049 -0.3074 -0.2281
23914W        W39723   6.323   8.242   2.717  0.1072 -0.1327  0.2798
23915W        W39724   0.967  12.123   4.222 -0.0166 -0.0276 -0.0475
23916W        W39725   0.823  15.285   4.878 -0.2091 -0.0992  0.1224
23917W        W39726  12.978   0.330  14.048 -0.0094 -0.0025 -0.0437
23918W        W39727   6.790   6.381  11.458 -0.1391  0.0154 -0.1233
23919W        W39728  17.323   3.009   1.584 -0.0512 -0.2338  0.2545
23920W        W39729  17.905   1.982   3.472 -0.2481  0.1031 -0.3248
23921W        W39730  18.707  12.395   2.154 -0.0351  0.0367  0.1163
23922W        W39731   1.608   9.869  11.947  0.0754  0.0422 -0.3028
23923W        W39732  18.731  16.330   4.330  0.2716 -0.0931  0.4268
23924W        W39733   1.582  17.282   1.856 -0.1675  0.3333  0.1160
23925W        W39734  17.451   3.010   2.085 -0.0599  0.0637  0.5211
23926W        W39735  11.881  17.187  12.962  0.2228 -0.1108 -0.0084
23927W        W39736  17.221   9.866  15.156 -0.0491  0.1994 -0.1320
23928W        W39737  15.336   2.051   1.243 -0.0275  0.1280  0.0993
23929W        W39738  10.754   1.506   0.055  0.0027 -0.2939  0.0724
23930W        W39739   4.786   9.377   4.278 -0.1658 -0.0569  0.0642
23931W        W39740   8.933  18.092   4.313 -0.1108 -0.2834  0.0048
23932W        W39741   4.391   1.275   0.261  0.2565 -0.0541  0.2968
23933W        W39742   0.713  10.109   1.948  0.0163  0.1775  0.0236
23934W        W39743   9.825  14.048  13.553  0.0983 -0.0993  0.4629
23935W        W39744  10.405   0.340   2.991  0.3009 -0.0231 -0.0361
23936W        W39745  13.109  18.018  15.086  0.0011 -0.1907 -0.0200
23937W        W39746  10.189  12.120  11.067  0.2814 -0.3153 -0.0505
23938W        W39747   0.428   1.055  14.759 -0.0063 -0.3398  0.1568
23939W        W39748   8.119  10.707   0.262  0.2659  0.0061 -0.1704
23940W        W39749   3.482   2.906  14.677  0.1136  0.1607  0.0221
23941W        W39750   4.045   3.826  13.602 -0.2978 -0.2285  0.1328
23942W        W39751   4.841   9.737  13.533  0.1186  0.1096 -0.4974
23943W        W39752   5.729   2.020  14.845 -0.0594  0.0522  0.1394
23944W        W39753   0.578   0.246   4.616  0.1225  0.0633 -0.0044
23945W        W39754  10.906   9.194   3.609 -0.0038 -0.3400  0.0869
23946W        W39755  15.880  11.357   2.512  0.0079  0.0187  0.0319
23947W        W39756   9.456   6.367  12.456  0.1880 -0.0956 -0.0215
23948W        W39757   2.572  14.286  12.702  0.1156  0.1012 -0.2055
23949W        W39758  18.538   1.157   0.657  0.0453 -0.0359 -0.0911
23950W        W39759  15.136  17.798  11.620 -0.1754 -0.1410 -0.2398
23951W        W39760   7.983  17.253   2.720 -0.2346 -0.2396  0.1065
23952W        W39761  15.596   8.420   4.790  0.2164  0.0843 -0.1852
23953W        W39762   4.860   2.825   0.736  0.1432  0.2122 -0.2673
23954W        W39763   8.278  18.683  13.483 -0.0273 -0.1278 -0.0080
23955W        W39764  18.098  15.903  11.049  0.0475  0.1128  0.1052
23956W        W39765  16.827   8.200   0.935  0.1076 -0.0761 -0.4482
23957W        W39766  16.877   2.357  12.680 -0.1178 -0.1537  0.1512
23958W        W39767   9.414   5.766  10.497  0.1029  0.0366 -0.1627
23959W        W39768   2.931  16.343   0.768 -0.1843 -0.1579  0.3523
23960W        W39769  10.599  13.486  13.744  0.2098 -0.0103 -0.0936
23961W        W39770  12.041  14.030   5.749 -0.2816 -0.4953  0.3258
23962W        W39771  14.798  14.291   2.410 -0.0750 -0.1606  0.2806
23963W        W39772  16.460   2.179   4.090 -0.1672 -0.1191 -0.1159
23964W        W39773   1.707  15.277   3.133  0.1165 -0.1617 -0.0934
23965W        W39774  17.111   6.412  13.447 -0.0842  0.1360 -0.3932
23966W        W39775  11.864   6.003   1.867 -0.0120  0.2061 -0.0573
23967W        W39776  18.395   3.735   3.245  0.0443  0.0901  0.0700
23968W        W39777   3.285   4.002  15.044 -0.0863  0.0998  0.1109
23969W        W39778   3.863  14.012   5.713 -0.0636 -0.0891 -0.1805
23970W        W39779   0.727   7.785   1.034 -0.3071 -0.2022 -0.2093
23971W        W39780  15.352  12.423  11.575 -0.1514 -0.1940  0.2328
23972W        W39781  17.488   1.401  10.881 -0.0025 -0.0013  0.0091
23973W        W39782  15.517   7.207   9.753 -0.1524 -0.0096  0.3594
23974W        W39783   5.782  12.805  13.133 -0.1995 -0.0195  0.0207
23975W        W39784   7.740   6.623   4.537 -0.1230 -0.1449  0.0090
23976W        W39785  11.774   1.616   3.178 -0.0880 -0.0985  0.2887
23977W        W39786   5.778   2.780  15.557 -0.1382  0.1610 -0.0965
23978W        W39787  15.950   7.885  15.086  0.1809  0.0797 -0.1172
23979W        W39788  13.130   8.283   0.571 -0.0060  0.0920 -0.2278
23980W        W39789  11.245  14.715  14.147 -0.2143 -0.2181  0.0939
23981W        W39790  11.933   1.845   2.689 -0.0175  0.3388 -0.1463
23982W        W39791  17.361   9.387  10.650 -0.1770 -0.1468  0.0397
23983W        W39792  16.950   9.272  13.800  0.1623  0.0447  0.1890
23984W        W39793   7.134   1.576  13.912  0.1383 -0.0903 -0.2114
23985W        W39794  18.510  16.249   3.876  0.4170  0.1210 -0.2184
23986W        W39795  12.249   0.136   3.233  0.2832 -0.0606  0.1804
23987W        W39796   7.962   3.689   1.674 -0.0672  0.2027  0.0625
23988W        W39797  15.607   2.120   2.120  0.0632  0.1812  0.0362
23989W        W39798   7.139  16.086  15.530  0.0972 -0.0233  0.1791
23990W        W39799   8.013  14.474  11.203  0.2143  0.1569  0.2894
23991W        W39800   1.909  17.627  10.886  0.2302 -0.2975  0.1237
23992W        W39801  13.737   3.483  10.936  0.2252 -0.0049  0.2837
23993W        W39802   4.138  13.440  14.890  0.1314  0.3603 -0.2745
23994W        W39803   0.027   6.263  12.792  0.0545 -0.4573  0.0214
23995W        W39804   8.292  17.088   4.341 -0.0288  0.0145 -0.3578
23996W        W39805  13.620   6.669   5.874  0.0476 -0.0590  0.2159
23997W        W39806   4.149   3.074  15.525 -0.3335 -0.0984 -0.0731
23998W        W39807   3.720   3.789   0.172 -0.2210 -0.0731 -0.0071
23999W        W39808   3.910  15.594  11.785  0.3843 -0.1528  0.1161
24000W        W39809  18.271   2.917   3.917  0.1694  0.0756  0.0854
24001W        W39810   4.190  16.534   1.094 -0.1469  0.2777  0.2069
24002W        W39811   1.361  15.915   2.108  0.0115 -0.2611 -0.0550
24003W        W39812   3.349   3.767  14.551  0.0652  0.0402 -0.2507
24004W        W39813   0.798   0.919   0.967 -0.2166 -0.0093 -0.2508
24005W        W39814   3.697   0.801   0.281 -0.0831  0.2420 -0.0949
24006W        W39815  11.962  18.011  11.709  0.2959 -0.1082 -0.1021
24007W        W39816   2.596  15.659   2.272  0.3967 -0.1116  0.0850
24008W        W39817  16.277  16.410   2.206  0.0066 -0.0319 -0.1109
24009W        W39818  11.886  16.750   2.075 -0.1707  0.1389  0.1114
24010W        W39819  14.811   8.465  11.828  0.0935 -0.1015  0.3528
24011W        W39820   3.408   4.456  15.257 -0.3861 -0.0015  0.1002
24012W        W39821   4.188  12.781  10.975  0.0550  0.0660  0.3066
24013W        W39822  15.068  17.344  15.395 -0.0343 -0.0735 -0.0137
24014W        W39823  14.860  12.977  13.775  0.0416 -0.2823 -0.0754
24015W        W39824  16.314   8.384  13.487  0.0838 -0.2262 -0.1086
24016W        W39825   0.373  15.504   1.279  0.0476 -0.2473 -0.1590
24017W        W39826  13.296   1.518   3.334  0.1135  0.4337 -0.2911
24018W        W39827   0.257   2.627   4.122  0.1087 -0.1321  0.2364
24019W        W39828   2.974   8.908  11.592  0.4467  0.2105  0.1434
24020W        W39829  15.389  14.433   3.651  0.3777  0.0376 -0.1823
24021W        W39830   1.011   9.439   0.747 -0.1558 -0.0376  0.0097
24022W        W39831   5.430  16.465  13.497 -0.0066 -0.0993 -0.1109
24023W        W39832  15.949   9.400  10.514  0.0352  0.0294  0.0874
24024W        W39833  17.015  13.735  14.687  0.2940 -0.1563  0.2828
24025W        W39834  10.789   8.889  14.815  0.1638 -0.1363 -0.1107
24026W        W39835   5.858   8.033  13.513  0.0569  0.0465 -0.0449
24027W        W39836   3.716   7.182   3.837 -0.1286 -0.0833 -0.0294
24028W        W39837   6.604  14.633   4.646  0.3584 -0.1769 -0.2396
24029W        W39838   7.773  11.420   1.277 -0.1024 -0.0501 -0.2364
24030W        W39839   1.855  17.340   9.462 -0.3058 -0.3433 -0.0729
24031W        W39840   7.212  13.450  10.987  0.1524 -0.1393  0.0056
24032W        W39841   7.980   7.109   0.258 -0.4717  0.1890 -0.1159
24033W        W39842   8.074   5.337  12.913  0.0702  0.0908 -0.0110
24034W        W39843  15.952   2.813   4.356  0.2305 -0.0368 -0.0437
24035W        W39844   1.189   6.658   1.439 -0.3025  0.0270 -0.1270
24036W        W39845   2.682   8.846   1.029  0.3095 -0.0962  0.0152
24037W        W39846   3.219  11.401   4.192  0.1203  0.0036 -0.1110
24038W        W39847  13.093  10.451  10.546 -0.1780 -0.0277  0.0309
24039W        W39848  13.241   2.021   5.002  0.1834  0.0517 -0.0012
24040W        W39849   0.652   6.258   4.489  0.1505 -0.2118  0.0744
24041W        W39850   3.187  10.097   3.143 -0.2039  0.1696 -0.0360
24042W        W39851   6.174   8.849  12.395  0.1075  0.0886 -0.1028
24043W        W39852   5.269   5.972  11.468  0.1243  0.0179  0.3234
24044W        W39853   2.994  18.386  15.313  0.3465  0.0482  0.2996
24045W        W39854   5.113  10.211   4.246  0.0508 -0.2411 -0.2483
24046W        W39855   7.269  17.099   3.199  0.1960 -0.3775  0.2436
24047W        W39856  12.033  14.407  10.878 -0.1180 -0.1363 -0.2055
24048W        W39857  11.557   0.944  12.508  0.1705  0.0820  0.1492
24049W        W39858   4.321   3.022  14.193  0.1232  0.0980  0.0860
24050W        W39859  14.958  10.502  11.586 -0.0623  0.2943 -0.1086
24051W        W39860  11.601  15.912  13.551 -0.0297 -0.2284  0.1913
24052W        W39861   4.192   0.823  12.223  0.1867 -0.1104  0.0429
24053W        W39862  10.419   7.819  12.276  0.0723 -0.1528  0.0090
24054W        W39863   6.715   1.056  12.554  0.1446  0.0040 -0.2339
24055W        W39864  16.780  18.426  13.999 -0.0887 -0.3223 -0.0599
24056W        W39865  15.869  14.093   2.114  0.4772  0.3751  0.0466
24057W        W39866   5.337  18.185   2.005 -0.0373  0.0600  0.3555
24058W        W39867  13.510   1.241  12.511  0.1208 -0.1510 -0.3398
24059W        W39868   8.755   7.358   0.528 -0.2453 -0.1101 -0.3751
24060W        W39869   1.417   7.933   9.800 -0.2974  0.0131  0.5897
24061W        W39870   1.189   9.939   1.152 -0.2104  0.0711 -0.4218
24062W        W39871   1.136  17.118   3.870  0.3371 -0.0180  0.1701
24063W        W39872   2.937  15.200  13.511  0.2693 -0.4089  0.1330
24064W        W39873   4.079   4.845  12.601  0.2379 -0.0471 -0.4650
24065W        W39874   2.505  12.379  15.167  0.0072  0.0253  0.2239
24066W        W39875  12.940  10.880   1.986  0.0447  0.0223  0.3893
24067W        W39876   5.804   1.570  14.241 -0.0955  0.1699  0.0350
24068W        W39877  18.014   3.364   3.943 -0.1285  0.0590  0.2280
24069W        W39878   6.112  16.531   3.493  0.2745 -0.0913 -0.5550
24070W        W39879  15.969   0.702  14.010  0.1559 -0.0121  0.0870
24071W        W39880   7.937  16.586   2.233 -0.2423  0.1514  0.1052
24072W        W39881   7.694   3.105   5.500  0.4609 -0.0274 -0.0518
24073W        W39882   1.850   4.642   1.273  0.0450 -0.3411  0.0361
24074W        W39883   8.454   2.992  13.139 -0.4082 -0.0480 -0.1426
24075W        W39884   5.008   2.966  13.634  0.0941 -0.0502 -0.0063
24076W        W39885  17.852   3.671  10.674  0.0625 -0.0744  0.0332
24077W        W39886  18.760  12.052   1.144  0.1333  0.2780 -0.0101
24078W        W39887   8.172  10.540  10.019 -0.1623 -0.0399 -0.1689
24079W        W39888   0.079   0.225   4.104 -0.0194  0.0642  0.0044
24080W        W39889  11.977   0.277   4.050  0.0893  0.2184  0.0651
24081W        W39890   0.801  14.037  14.441 -0.0825  0.0477 -0.0096
24082W        W39891  16.030  15.595   2.422 -0.2292  0.1547  0.3536
24083W        W39892  16.813  14.322   3.076  0.0370  0.0890 -0.0979
24084W        W39893  10.264   8.816   1.495 -0.1977 -0.0221  0.0518
24085W        W39894  16.876  12.623   2.420 -0.0429 -0.0174 -0.3461
24086W        W39895  17.341  12.038   2.166  0.0423  0.0351 -0.0057
24087W        W39896  12.851   2.156  12.509 -0.0224 -0.0410 -0.1649
24088W        W39897   6.305   6.612  13.190  0.1529  0.1038 -0.1207
24089W        W39898  12.655   4.354   1.187 -0.0752  0.3120  0.1667
24090W        W39899   2.787  10.335  13.155 -0.0156 -0.2488 -0.1974
24091W        W39900   9.147  16.717  15.478  0.0107  0.1830  0.1847
24092W        W39901  14.798   3.227  15.190 -0.0294 -0.0264 -0.1019
24093W        W39902   9.364  17.774   0.303 -0.2546 -0.0643  0.1833
24094W        W39903  15.231  16.326  14.287 -0.0393 -0.1678 -0.1489
24095W        W39904   4.905  14.860   1.354  0.1011  0.0519  0.4140
24096W        W39905   5.729  13.087  11.530 -0.0832 -0.2348 -0.6977
24097W        W39906  15.867  15.536  14.952  0.5085 -0.1370 -0.1126
24098W        W39907  16.760  14.065  12.709 -0.0801 -0.0674 -0.0078
24099W        W39908  17.314  12.091   0.682  0.0637 -0.0862 -0.0932
24100W        W39909   9.544  14.850  11.862 -0.2591 -0.0804 -0.0346
24101W        W39910   7.289   2.357   4.326 -0.0184 -0.0938  0.1106
24102W        W39911  17.576   7.667   0.819  0.1518 -0.5408 -0.0670
24103W        W39912   3.943  18.663   3.523  0.1183 -0.0059 -0.0042
24104W        W39913   3.890  11.667   1.108 -0.0432  0.0336  0.2078
24105W        W39914   7.663  12.350   3.776 -0.1217  0.0214  0.0240
24106W        W39915   1.504   1.931   1.433  0.0075  0.1110  0.0735
24107W        W39916  14.088  18.162  11.825 -0.0316 -0.2559  0.2853
24108W        W39917  17.909  17.231  14.396  0.1819  0.2016 -0.0817
24109W        W39918  15.699  16.555  14.062 -0.1169 -0.1223 -0.0487
24110W        W39919  11.428   8.725   3.821 -0.2523 -0.0460 -0.0668
24111W        W39920   7.041  18.504  10.734  0.1027 -0.3573  0.1796
24112W        W39921   3.941  10.263   1.905 -0.2428  0.1401 -0.0437
24113W        W39922  12.163   9.117  13.677 -0.0416  0.2261  0.2299
24114W        W39923   8.272   2.486   1.149 -0.0451 -0.3750 -0.7211
24115W        W39924  16.448  17.601  10.699 -0.1312 -0.1202 -0.0905
24116W        W39925   9.300  14.013   0.580  0.0626 -0.2321 -0.0840
24117W        W39926  15.969  17.725   5.493 -0.1003 -0.1425  0.0479
24118W        W39927   2.229  11.219   2.928 -0.0965  0.0340  0.1117
24119W        W39928   6.843   4.216  11.200 -0.0116  0.0685 -0.0083
24120W        W39929   2.461  18.537   2.538 -0.1051  0.2625 -0.3235
24121W        W39930   4.563   7.607  12.357 -0.1005  0.0945  0.4044
24122W        W39931   2.173  14.850  11.484 -0.0202  0.0053  0.1021
24123W        W39932   9.539   0.015   2.071  0.3348 -0.1632  0.1725
24124W        W39933  16.554  16.605   4.946  0.1084 -0.3078  0.2235
24125W        W39934   5.528  10.542  14.021  0.1490 -0.1192  0.2675
24126W        W39935  16.321  10.144  12.022  0.0967 -0.1679 -0.0415
24127W        W39936  11.496  17.792  15.452 -0.0613  0.0512  0.2378
24128W        W39937  12.343  16.124  15.507 -0.1509 -0.2164  0.2907
24129W        W39938   1.254  11.244   3.144 -0.2218  0.0464  0.4257
24130W        W39939   2.934   7.902  11.809  0.1291 -0.5208  0.1132
24131W        W39940   3.593   1.700  15.317  0.0971  0.1061  0.1684
24132W        W39941  12.692  15.478   6.262 -0.2866 -0.0085  0.1708
24133W        W39942   4.256   0.715   1.286  0.3875  0.1655 -0.3482
24134W        W39943   2.413   1.016   2.964  0.2026  0.1879  0.0728
24135W        W39944  13.314   3.986   5.388 -0.2653 -0.4700  0.0708
24136W        W39945   0.953   2.897   4.369 -0.0085  0.0235  0.0784
24137W        W39946  17.444   3.417  10.805 -0.0965  0.0055  0.1103
24138W        W39947  12.912   8.949  10.048 -0.0012 -0.0540  0.0544
24139W        W39948   1.568   6.677   0.490  0.0988  0.1569  0.2633
24140W        W39949   7.221  15.856  11.013 -0.0847 -0.0670 -0.0032
24141W        W39950   7.488   2.381   0.138 -0.2357 -0.3365  0.0240
24142W        W39951  13.502  16.580  11.097  0.1290  0.3638 -0.0534
24143W        W39952  16.499  10.832   0.430  0.2210  0.0845 -0.0622
24144W        W39953   2.724   5.676  10.553  0.0234 -0.0908 -0.6439
24145W        W39954   7.843   0.280  14.774 -0.1796 -0.0374 -0.0748
24146W        W39955   0.932   0.249  14.461  0.1106 -0.0557  0.0226
24147W        W39956   5.829   3.592   2.085 -0.0167  0.1030  0.1895
24148W        W39957  11.888  12.164  13.261  0.0557  0.1424 -0.1993
24149W        W39958  16.169  11.738   4.769 -0.1201 -0.1241 -0.1440
24150W        W39959  15.615  11.762  13.942  0.1099  0.1313 -0.0394
24151W        W39960  10.594  11.583  12.308 -0.1329 -0.0574 -0.0852
24152W        W39961   1.685  17.949  14.450 -0.1068  0.2278  0.2421
24153W        W39962   8.063   5.384   1.809  0.0061  0.0276  0.1090
24154W        W39963   3.096  17.223  13.429  0.2122 -0.1149 -0.0276
24155W        W39964   4.255   4.163   4.233 -0.0218 -0.1437 -0.0930
24156W        W39965   2.575  10.442  12.607 -0.0976 -0.1360 -0.1617
24157W        W39966  10.841  16.755   3.196 -0.2655  0.3324 -0.1558
24158W        W39967  14.441  12.329   0.685 -0.0051  0.2560  0.5310
24159W        W39968  11.421  15.004   0.121 -0.0921 -0.1384 -0.0893
24160W        W39969   9.982   5.765  14.156  0.4547 -0.3060  0.3056
24161W        W39970   4.250  11.163  13.687  0.1231  0.1089 -0.1077
24162W        W39971   9.765  10.709  14.360 -0.1836  0.1534  0.0751
24163W        W39972  12.187   0.605   1.002  0.0082  0.0003 -0.2818
24164W        W39973  18.649  11.404  13.451  0.0928  0.2462 -0.2459
24165W        W39974   2.693  17.776  15.258  0.2973 -0.1409  0.1247
24166W        W39975  11.788  17.669  12.110  0.0567  0.0289 -0.1777
24167W        W39976   3.983   5.146   4.151 -0.0731  0.0808  0.3786
24168W        W39977   2.043   1.499   4.963 -0.2049  0.1339 -0.3402
24169W        W39978   0.173  11.895   0.126 -0.3446 -0.0538 -0.0125
24170W        W39979   0.436   7.864   9.447 -0.0990  0.2182 -0.0096
24171W        W39980  11.316  17.052  15.462 -0.1369  0.1434 -0.1550
24172W        W39981  16.422  12.520   0.656  0.0009 -0.0888  0.1627
24173W        W39982   6.068   9.101  11.238  0.1187 -0.0997 -0.5637
24174W        W39983   2.458   6.809   2.644 -0.1856 -0.0831  0.3605
24175W        W39984  13.918   4.289   0.521 -0.0542 -0.1128  0.0691
24176W        W39985  16.269   1.082   2.342 -0.2842 -0.0604 -0.0817
24177W        W39986   2.278   3.609  12.610  0.4140  0.1180  0.0144
24178W        W39987   9.034   2.465   5.077 -0.1333 -0.0820 -0.1862
24179W        W39988   3.977  11.711   2.373 -0.1206  0.1684 -0.2150
24180W        W39989   1.916   2.605  15.533  0.0170  0.2501  0.2177
24181W        W39990  18.384   6.195  13.128 -0.0539 -0.3301  0.0945
24182W        W39991  14.788   9.164  11.517 -0.2022  0.0457  0.0918
24183W        W39992   5.774  16.054  12.850  0.0617  0.2698 -0.3335
24184W        W39993   7.852   7.127   5.221  0.1020  0.3245  0.0843
24185W        W39994   5.223   0.754  15.052  0.1880  0.2918 -0.1306
24186W        W39995   7.864   0.172  13.664  0.0522  0.2099  0.2706
24187W        W39996  11.838  11.721   0.944  0.2004 -0.1648  0.0828
24188W        W39997   6.973  12.308  15.331 -0.2764 -0.0085  0.1752
24189W        W39998  15.533  12.670   1.014 -0.0694  0.3081  0.0974
24190W        W39999   4.319  10.036  13.530 -0.1444  0.1270 -0.3109
24191W        W40000   4.781   1.416  12.089 -0.4571 -0.2403 -0.1680
24192W        W40001  14.413  12.827   5.278  0.0566  0.2479  0.0848
24193W        W40002   3.058  16.862   0.181  0.1747  0.0744  0.3370
24194W        W40003  11.045  14.325   0.013  0.1284 -0.1549  0.0977
24195W        W40004  11.692   8.918  15.236  0.1286 -0.2047 -0.1108
24196W        W40005  10.423   9.687  14.169 -0.0563  0.0269 -0.0708
24197W        W40006  11.643  15.714  10.841 -0.0964  0.3669  0.0231
24198W        W40007   6.147   1.940  14.395 -0.0718  0.0896  0.0856
24199W        W40008  18.410  12.131  10.979  0.1300 -0.1627  0.4199
24200W        W40009  14.348   4.618   3.330 -0.0906 -0.0302  0.0894
24201W        W40010  16.737   1.347   2.069  0.1049  0.1567  0.2261
24202W        W40011  18.184  11.720   0.543  0.2619 -0.0741 -0.0713
24203W        W40012  11.182   9.474   1.888  0.0405 -0.0618 -0.6471
24204W        W40013  12.252   9.361   5.777  0.0034 -0.0390  0.2106
24205W        W40014   6.718   8.134   1.330  0.2074 -0.0445  0.1088
24206W        W40015  12.276   7.411   3.947 -0.1062 -0.2260 -0.2311
24207W        W40016  12.470   1.363  11.429  0.2999 -0.1252  0.0356
24208W        W40017  14.508   2.383  15.536  0.0706  0.0453 -0.0017
24209W        W40018  16.230   9.151  14.396  0.0120 -0.4635  0.3151
24210W        W40019  18.371   4.798  14.685  0.1915  0.2454  0.1644
24211W        W40020  16.119   9.364   4.129  0.1472 -0.0111  0.0999
24212W        W40021   9.109  11.713   5.268  0.1192 -0.1740 -0.1654
24213W        W40022   1.299  11.810   2.469 -0.0741 -0.1587  0.1315
24214W        W40023  13.295  15.387  13.092  0.1773 -0.0717  0.0129
24215W        W40024  13.941  13.152  15.499  0.0047  0.0512  0.0279
24216W        W40025  11.036  15.949   2.812  0.0823 -0.1373  0.0375
24217W        W40026   2.619  14.961  15.098 -0.1845  0.1416 -0.0636
24218W        W40027   0.024   5.404   2.693  0.2819 -0.0241 -0.2203
24219W        W40028   5.407   3.178  11.034 -0.0583  0.2132 -0.1982
24220W        W40029   6.516  18.129  12.026  0.0377  0.1574 -0.0303
24221W        W40030  15.914  16.426  10.637 -0.2505  0.1513  0.0458
24222W        W40031   8.445  13.665  12.758 -0.0633 -0.2040 -0.1171
24223W        W40032   4.517   0.195  14.656  0.0439  0.1976  0.0967
24224W        W40033  12.835  12.756   4.363 -0.0531  0.0702 -0.2182
24225W        W40034   8.504   4.145   5.307  0.1265 -0.0413  0.2945
24226W        W40035  17.331   6.355   1.634 -0.1408  0.0002  0.0945
24227W        W40036  15.981   6.071   1.309 -0.0356 -0.6531  0.2309
24228W        W40037   5.890  15.543  14.852  0.0606  0.1346  0.2587
24229W        W40038  15.302   3.499  10.381  0.2914 -0.1093 -0.0336
24230W        W40039   2.359  13.045  11.249 -0.0575  0.1359  0.0652
24231W        W40040   4.338   8.595  11.383 -0.0897 -0.0166 -0.0541
24232W        W40041   5.843  16.133   1.822 -0.3396  0.0256  0.0542
24233W        W40042  17.393  13.790  12.156  0.0596  0.2692 -0.1050
24234W        W40043   5.407  17.624  13.695  0.1490 -0.1411  0.1897
24235W        W40044   4.770  13.385  14.083  0.0801 -0.0251 -0.2472
24236W        W40045  11.984   5.366   1.282  0.1752 -0.1470 -0.0376
24237W        W40046  15.297   6.597   2.768 -0.2421 -0.2779 -0.2771
24238W        W40047  12.307  11.494   5.687  0.0047  0.1413  0.2916
24239W        W40048   4.612   2.980   3.705 -0.0085 -0.1063 -0.0972
24240W        W40049   7.087   7.248  11.628  0.2228  0.2786  0.1524
24241W        W40050  18.035  10.684   0.079  0.4673  0.3828  0.2663
24242W        W40051   1.400  11.389  11.640  0.1607  0.1050 -0.2087
24243W        W40052   0.124   7.332  13.415  0.1346  0.6405  0.1059
24244W        W40053   6.565   6.832   3.147 -0.2010 -0.1048  0.4529
24245W        W40054   0.039   8.894   3.234  0.0770 -0.1839  0.2564
24246W        W40055  17.822   9.424  13.150  0.0845  0.0805  0.2551
24247W        W40056   5.362  12.921  11.068 -0.0252  0.1859  0.1710
24248W        W40057   1.381  16.929  10.050 -0.0324 -0.0716  0.0974
24249W        W40058  13.283   8.066  12.928 -0.2714  0.1779 -0.0630
24250W        W40059  18.150  12.916   1.984  0.1956  0.0459 -0.3440
24251W        W40060   6.314   9.317   1.397 -0.3815 -0.0273 -0.2634
24252W        W40061  14.706  14.477  12.131 -0.0928  0.0441 -0.1952
24253W        W40062   5.710  15.298  10.068 -0.1377  0.1033  0.2796
24254W        W40063  16.585   9.196   1.639 -0.0186  0.1325 -0.0755
24255W        W40064  16.114   6.017  12.512 -0.1203  0.0191  0.1133
24256W        W40065   4.156  17.000   1.400  0.2982 -0.1345  0.3319
24257W        W40066   7.888   7.139  15.335 -0.0122  0.0356 -0.1483
24258W        W40067   7.629   3.864  13.895 -0.1521  0.1562  0.3341
24259W        W40068   4.482  10.878   2.509  0.0481  0.0500 -0.4468
24260W        W40069  16.739  17.208   3.335  0.1616  0.2041 -0.4155
24261W        W40070  15.408   2.522  10.787  0.2866  0.4906 -0.2436
24262W        W40071  13.616  12.126  12.218  0.1022  0.0910  0.4608
24263W        W40072  10.268  17.033  12.261 -0.2415  0.1231  0.0103
24264W        W40073  11.125  18.186  14.071 -0.4030  0.0496 -0.2395
24265W        W40074  12.839   2.429  14.871 -0.1834 -0.2422  0.0378
24266W        W40075   2.938  11.445   4.633  0.0204 -0.0018 -0.2521
24267W        W40076  10.622   8.126  14.060  0.2249 -0.0998  0.1603
24268W        W40077   7.102  11.444  12.146  0.0930  0.1231  0.2050
24269W        W40078  12.224   3.564   2.341  0.0052 -0.1842 -0.0584
24270W        W40079   1.553   7.513  11.866 -0.1940 -0.2076 -0.1388
24271W        W40080  10.811   1.541   3.512  0.1299 -0.2233 -0.0429
24272W        W40081   4.776   2.406  13.047 -0.3435  0.0858  0.0519
24273W        W40082   3.964  18.392  12.577  0.0279  0.2222 -0.0077
24274W        W40083  14.105   9.126  13.162  0.2445 -0.0917  0.1726
24275W        W40084  15.863  17.584  13.351 -0.1981 -0.1954 -0.2876
24276W        W40085  13.684  16.586   1.715 -0.0385  0.0371 -0.5126
24277W        W40086   9.693  11.302   2.862  0.0107  0.0075 -0.1795
24278W        W40087  10.842  12.253   5.451  0.1328 -0.1695 -0.1799
24279W        W40088  15.694   0.883   2.413 -0.0753  0.0508 -0.1671
24280W        W40089   4.455   4.192   5.543 -0.1752  0.3097  0.1255
24281W        W40090  14.778   2.693  11.619 -0.1331  0.0839  0.3157
24282W        W40091  12.451  15.330   5.870 -0.1156 -0.0220  0.2049
24283W        W40092  16.441   4.724   3.967 -0.2155  0.0105 -0.1513
24284W        W40093  11.771   8.766  10.479 -0.0982  0.2688  0.2144
24285W        W40094   5.185  16.401  14.253  0.0732  0.2537 -0.1451
24286W        W40095   2.023  15.290  11.216  0.0453 -0.0329  0.0165
24287W        W40096  12.065   7.771  15.496  0.0809  0.2397  0.1778
24288W        W40097  12.096   4.197   0.728  0.0183 -0.0019  0.1272
24289W        W40098  15.125  17.018   3.351  0.3756  0.2543 -0.1074
24290W        W40099   6.950   2.183   2.471  0.0706  0.1089 -0.0032
24291W        W40100   8.388   6.856   1.448 -0.0642  0.1212 -0.0421
24292W        W40101  17.001   7.160   4.002 -0.3030  0.0521 -0.1308
24293W        W40102  13.830   7.819  11.799 -0.0643  0.0172 -0.1884
24294W        W40103   8.729   5.817   2.887 -0.0967  0.0723  0.0348
24295W        W40104  17.611  14.223   1.405  0.0127 -0.0046  0.2784
24296W        W40105   2.740  18.203  13.481  0.3730 -0.2869 -0.0515
24297W        W40106   3.226   2.805   9.628 -0.0370  0.1308  0.2415
24298W        W40107   1.895   1.940   1.755  0.0171 -0.3711 -0.1143
24299W        W40108   3.138   3.210   1.204  0.0396 -0.1412 -0.2636
24300W        W40109  18.735  16.951   2.496  0.1387  0.1036  0.1266
24301W        W40110   1.702   6.731   2.192  0.0410 -0.2449 -0.0628
24302W        W40111  15.072  14.070  12.310 -0.0425  0.1183 -0.1303
24303W        W40112  10.814  15.838   3.198 -0.2578 -0.3214  0.1470
24304W        W40113   9.035   3.654   4.445 -0.0687 -0.0646 -0.1772
24305W        W40114  14.368   3.281  14.857  0.0495  0.1111  0.0731
24306W        W40115  15.513   8.800  14.966 -0.2155 -0.1390  0.0480
24307W        W40116   9.684  11.966  12.077  0.0772  0.2145  0.1064
24308W        W40117  15.956  10.108   5.105  0.0567 -0.1018  0.0347
24309W        W40118   8.297  14.974   0.363  0.2556 -0.1299  0.1006
24310W        W40119  12.980  17.967   1.146  0.1129  0.0190  0.2220
24311W        W40120  13.998   8.314   3.622  0.0716 -0.1337 -0.0027
24312W        W40121   9.029  10.281  10.964  0.2957  0.1546  0.0910
24313W        W40122   8.407   3.357  13.864  0.2009  0.1156  0.1972
24314W        W40123  12.334  12.486  15.468  0.2769  0.1346  0.2951
24315W        W40124  13.533   9.752   1.734  0.2116  0.3140 -0.1321
24316W        W40125  15.308  12.658   4.837 -0.0281  0.0016  0.1573
24317W        W40126   5.089  12.376   2.845  0.1026  0.1061  0.3500
24318W        W40127  17.875  13.181  14.677  0.2375  0.1597  0.1673
24319W        W40128  10.389  17.253   2.582  0.5480 -0.2469  0.0210
24320W        W40129   8.140   5.634   3.741  0.1427 -0.0050 -0.1408
24321W        W40130   2.764  11.217   3.852  0.0894  0.1975  0.0714
24322W        W40131   9.190  10.766   0.439  0.4256  0.0131 -0.1778
24323W        W40132   3.317  16.677  10.233 -0.1550 -0.2302 -0.0769
24324W        W40133  13.363   0.564  14.320  0.1843 -0.1408 -0.0552
24325W        W40134   6.465   6.657   3.644  0.0498 -0.1067  0.1176
24326W        W40135  15.808   0.075   5.502  0.0574  0.1083  0.1020
24327W        W40136  15.770   5.379  14.860 -0.1355 -0.0177  0.0145
24328W        W40137  17.792   7.507  11.763  0.0385 -0.2403  0.1651
24329W        W40138  14.037  10.461   2.789 -0.2608  0.0130 -0.2183
24330W        W40139   5.840   1.107  12.807 -0.1327 -0.0639  0.0884
24331W        W40140   6.294  16.113   3.197  0.0413 -0.0828  0.1724
24332W        W40141   0.702  16.343   3.533  0.1246 -0.4025  0.1021
24333W        W40142   3.355   7.845  15.415  0.1282 -0.0929 -0.1020
24334W        W40143   5.943   0.588  11.273  0.1311 -0.0197  0.1050
24335W        W40144  10.821  16.464   3.651  0.1986  0.0122  0.0872
24336W        W40145   5.973  16.381   0.868 -0.0432 -0.0301 -0.0915
24337W        W40146   8.847   6.493   0.894  0.0528  0.2969 -0.1865
24338W        W40147  14.606  11.399   0.507 -0.0018  0.5032 -0.2707
24339W        W40148   3.357  12.841   1.661 -0.0762 -0.2384  0.1849
24340W        W40149  13.821   0.768  14.374  0.0663  0.1368  0.0829
24341W        W40150  12.191  18.460   0.195  0.0573  0.0120  0.0589
24342W        W40151  10.428  16.712  14.274 -0.1798  0.1539 -0.1960
24343W        W40152   2.296   2.475  10.580 -0.1819  0.1120  0.1948
24344W        W40153  14.414   2.462  13.254 -0.1683  0.1364 -0.1860
24345W        W40154   5.528   9.414   3.235 -0.0090 -0.1013  0.1312
24346W        W40155   1.461   6.487  10.801 -0.1448 -0.0127  0.1129
24347W        W40156  11.033   8.280   3.898  0.3814 -0.2084  0.2687
24348W        W40157   5.066  15.118   4.681 -0.2427 -0.1012  0.0860
24349W        W40158   5.199  18.056  15.190  0.0317  0.0081  0.2187
24350W        W40159  15.564  18.324   4.911  0.1057  0.0117  0.0386
24351W        W40160  18.707  16.318  10.580 -0.1721 -0.1025  0.0202
24352W        W40161   0.658   1.417   2.140 -0.1721  0.1543  0.0089
24353W        W40162   0.196   2.058  14.607  0.1898  0.0428  0.0470
24354W        W40163  13.602  18.045  14.072  0.0663  0.1872 -0.4695
24355W        W40164  13.000   9.684   4.671 -0.1485  0.0045  0.1461
24356W        W40165  16.262   1.950  10.522 -0.0739 -0.2015 -0.0039
24357W        W40166  16.436   7.837  11.945 -0.0198 -0.0105 -0.0842
24358W        W40167  13.875  17.367   5.072 -0.3030 -0.3299  0.2129
24359W        W40168   5.554   6.514   3.415  0.0972  0.0180 -0.2612
24360W        W40169  16.842  15.135   5.355 -0.1129  0.1746  0.0216
24361W        W40170  15.899   5.643   1.816  0.1554 -0.0027  0.1396
24362W        W40171  16.108   0.652   2.645 -0.0236  0.0470  0.1098
24363W        W40172  15.229  15.515   1.416  0.0146  0.2000  0.0099
24364W        W40173   4.391   8.675  12.007  0.0692 -0.0786 -0.1977
24365W        W40174  18.663  18.558  10.398  0.2616  0.2222  0.1037
24366W        W40175   7.624  16.398   0.852 -0.0348  0.0896  0.3171
24367W        W40176   2.417   1.054  15.529 -0.0755  0.0853  0.1910
24368W        W40177  14.823   6.108  15.150 -0.1908 -0.0167 -0.2279
24369W        W40178   3.005   6.219   1.382 -0.1366 -0.0967 -0.2450
24370W        W40179   2.613   1.389  15.178 -0.1941 -0.1412  0.2990
24371W        W40180   3.738   2.720  11.289 -0.3780 -0.1348  0.1495
24372W        W40181   9.142   2.059   3.857 -0.0716  0.0990  0.1720
24373W        W40182   7.044   5.480  13.231  0.4076  0.1244  0.2094
24374W        W40183  14.555  11.909  14.898  0.0382  0.2092 -0.0457
24375W        W40184   0.553   4.224  11.622 -0.1444  0.0409 -0.3201
24376W        W40185  13.703  14.233  14.639 -0.1277 -0.0832 -0.1238
24377W        W40186   8.317   7.041  15.016 -0.2127  0.0500 -0.0426
24378W        W40187  14.347  11.861  11.744 -0.0072  0.1414 -0.1503
24379W        W40188   3.990  17.206  11.646 -0.0871  0.0632  0.1441
24380W        W40189   2.966  17.725   9.375 -0.0272  0.3435  0.1555
24381W        W40190  16.010   4.618  12.913  0.1941  0.0112 -0.2900
24382W        W40191   7.981  12.512   2.935  0.2481 -0.0359  0.0740
24383W        W40192   3.102  14.204  10.922 -0.0828  0.0219  0.2068
24384W        W40193   5.353   8.556   0.719  0.0464  0.0510 -0.3190
24385W        W40194   8.736   8.978   2.188 -0.1474 -0.3286 -0.1503
24386W        W40195  16.312  15.595   5.120  0.2581  0.0693 -0.1585
24387W        W40196   7.961  12.661  13.866  0.0510 -0.1383 -0.2040
24388W        W40197  16.415  13.813  15.545 -0.0970  0.0023  0.0674
24389W        W40198   4.791  16.655  14.499 -0.3084 -0.0394  0.0949
24390W        W40199   4.641   6.723  11.596 -0.0883  0.1241 -0.0204
24391W        W40200   4.679  18.482  14.763  0.0149  0.1763 -0.1278
24392W        W40201   3.097   8.106  13.249 -0.1237 -0.1815 -0.0607
24393W        W40202   1.070   2.436   4.494  0.4534 -0.2759  0.0531
24394W        W40203   2.581  16.178   0.489  0.2664 -0.1541 -0.1077
24395W        W40204   6.257  15.088   3.291 -0.1002 -0.1654 -0.2821
24396W        W40205  13.021  16.310  12.449 -0.0858 -0.3366 -0.2177
24397W        W40206   2.693   7.746  13.451  0.0338 -0.0956 -0.4003
24398W        W40207  17.250  17.850  14.625 -0.2085 -0.2759  0.0325
24399W        W40208   5.454  17.715   5.085 -0.4306 -0.0035 -0.0135
24400W        W40209   2.768  14.105  11.734  0.1605  0.1273 -0.1073
24401W        W40210   5.509  16.201  11.269  0.2106 -0.0812  0.1319
24402W        W40211   5.495   0.459   9.613  0.1129  0.0656  0.0407
24403W        W40212  17.224   6.064   2.508  0.2386 -0.0455 -0.1436
24404W        W40213   0.912   9.809  15.438 -0.1006  0.1234  0.0257
24405W        W40214  14.701  13.517   0.787 -0.2371  0.1041  0.0606
24406W        W40215  17.739   9.957   0.614  0.0129 -0.2532  0.2874
24407W        W40216   0.294  14.301  13.746  0.2936  0.2112 -0.1305
24408W        W40217   1.569   8.723   3.773  0.2518  0.0411  0.1206
24409W        W40218  13.503   4.174   2.478 -0.2136  0.0616 -0.1369
24410W        W40219  14.489   4.520   1.057 -0.0398  0.0587  0.2783
24411W        W40220   0.110  10.845   4.241  0.0329 -0.1138 -0.0725
24412W        W40221  15.514  10.655  13.753  0.1594 -0.0307  0.0227
24413W        W40222  16.330   2.795   5.436 -0.3237  0.0041 -0.0057
24414W        W40223  11.154   0.686  13.732  0.1118  0.1444  0.0891
24415W        W40224  13.975   7.471   0.713 -0.0432 -0.1375 -0.1215
24416W        W40225   7.846   8.172   4.857  0.2599  0.1352  0.3717
24417W        W40226  17.879  10.507   2.217  0.0221 -0.1450  0.1844
24418W        W40227  15.517   8.875  14.451 -0.1802  0.1137 -0.2687
24419W        W40228   7.965   6.744   1.710  0.0768  0.0013  0.0380
24420W        W40229   0.355  16.234   0.795 -0.1398  0.3941  0.0755
24421W        W40230  13.694  16.309  14.129  0.1015 -0.1033  0.4057
24422W        W40231   9.185   2.518   0.673  0.1318  0.3493 -0.1062
24423W        W40232  16.616   9.800   2.333  0.1608 -0.1566 -0.1969
24424W        W40233   5.986  10.624  10.925 -0.0340 -0.1882  0.0828
24425W        W40234   0.035   3.471  14.998 -0.0288 -0.1461  0.0713
24426W        W40235   7.886   2.607  15.259  0.1231 -0.0112 -0.1568
24427W        W40236   6.953  17.083   0.302 -0.0855  0.3495  0.0681
24428W        W40237  10.966  14.842   0.790 -0.2102  0.2629  0.1385
24429W        W40238   0.601   3.159   3.316  0.0665  0.0854  0.1535
24430W        W40239   5.936   8.753   2.686  0.1703  0.2011  0.1592
24431W        W40240  14.562  13.719   5.687  0.1106 -0.0246  0.2050
24432W        W40241  10.171   0.381  15.138  0.3309 -0.2388 -0.0438
24433W        W40242  11.129   2.292  12.725 -0.0598 -0.0543 -0.3180
24434W        W40243   6.389   9.370   3.922 -0.0884  0.0309  0.2970
24435W        W40244  13.758   3.576  10.339  0.0278  0.2668 -0.1345
24436W        W40245  13.200   2.670  11.711  0.0320 -0.1801  0.2030
24437W        W40246   4.360  15.536  10.848 -0.2440  0.2150  0.3855
24438W        W40247   2.329  17.786   3.252  0.3544  0.0254  0.0279
24439W        W40248  12.849   7.935  10.164 -0.0677  0.0175 -0.2435
24440W        W40249  14.024  13.410   9.864 -0.1768  0.0152  0.2303
24441W        W40250  11.452  12.950   2.599  0.2771 -0.1897  0.0357
24442W        W40251  10.523  12.974  15.135  0.0889  0.0895 -0.1750
24443W        W40252  17.374  12.488   2.458 -0.2043 -0.0698  0.2780
24444W        W40253  12.022   6.802   5.150  0.0123 -0.0699 -0.0623
24445W        W40254   1.134   9.983  11.015 -0.0515  0.1474 -0.0646
24446W        W40255   1.106   9.687   3.493 -0.0042 -0.0523 -0.1053
24447W        W40256  10.338  14.303  13.902  0.2657  0.1467 -0.3121
24448W        W40257  18.168   5.912   2.056 -0.4025  0.2528  0.1189
24449W        W40258  18.547   2.891  13.693 -0.5346 -0.0076  0.1100
24450W        W40259  18.691   2.705  10.844 -0.2304  0.2122 -0.2091
24451W        W40260  11.727  11.210  14.407 -0.1314  0.1193  0.0053
24452W        W40261  10.032  17.810   5.341 -0.1229  0.0882  0.2372
24453W        W40262   5.079  15.835  11.249 -0.1692  0.0801 -0.0198
24454W        W40263   0.602   6.923   2.349 -0.1265 -0.0425  0.0829
24455W        W40264  17.666   5.733   4.718  0.1238 -0.1789 -0.3329
24456W        W40265   2.352   0.427   3.989 -0.4180 -0.1617 -0.2476
24457W        W40266   4.350  10.056  15.286  0.0954 -0.4444 -0.4723
24458W        W40267  14.228   4.964  13.937 -0.2884  0.2923 -0.0820
24459W        W40268  10.496  17.676  11.546 -0.1374  0.2021 -0.1837
24460W        W40269   7.769   3.138  12.572 -0.0869 -0.0162  0.2199
24461W        W40270  10.987   0.765   2.354 -0.0385 -0.2235  0.0769
24462W        W40271  18.658  10.653   3.527  0.5299  0.2078 -0.1799
24463W        W40272  15.480  15.452  12.720  0.0322 -0.2404  0.2625
24464W        W40273   5.465  11.663   3.914 -0.2354  0.0793 -0.0852
24465W        W40274   4.496  18.751  15.169 -0.0148  0.0911  0.1210
24466W        W40275   0.172  13.848  11.907  0.2587  0.1688  0.3121
24467W        W40276   8.697  14.069  15.217 -0.0689 -0.4167  0.0385
24468W        W40277  12.943  17.752   5.355 -0.0480 -0.0416  0.0735
24469W        W40278   6.214  13.489  12.986  0.0397  0.0878 -0.1943
24470W        W40279  10.524  17.404   1.191 -0.2915 -0.0107  0.0207
24471W        W40280   1.652  10.535   1.547  0.0006  0.1646 -0.0272
24472W        W40281   6.059   2.503  13.609  0.2596 -0.0973 -0.0525
24473W        W40282  15.220   6.382   1.165  0.0157  0.3151  0.1023
24474W        W40283   9.391   4.991   3.036 -0.2981 -0.1759 -0.3551
24475W        W40284   5.327  12.802  11.639 -0.0243  0.2190  0.2912
24476W        W40285   4.989   1.495   3.445  0.2566  0.1102  0.2789
24477W        W40286  17.844  14.202   0.636  0.0984 -0.4565  0.1430
24478W        W40287  18.571  14.437  12.419 -0.3046 -0.2323 -0.0262
24479W        W40288  14.081  15.251   1.072  0.0488 -0.1208  0.2222
24480W        W40289  13.910  17.469  12.295 -0.0328 -0.2611 -0.3845
24481W        W40290   1.744  12.009   3.187  0.1424  0.0057  0.1594
24482W        W40291   8.834  13.637  11.862 -0.1594  0.0660  0.0485
24483W        W40292   6.396  16.204  12.067  0.1128 -0.0087  0.1986
24484W        W40293  12.115  12.974  11.978 -0.1471  0.3309 -0.0915
24485W        W40294  10.362  17.034  10.289 -0.3552  0.0098  0.3437
24486W        W40295   6.236   1.421  11.271 -0.0362 -0.4202  0.0861
24487W        W40296   7.281   7.869  14.716  0.2326  0.0208 -0.2451
24488W        W40297  14.228  12.707   1.442  0.3455 -0.2432  0.1202
24489W        W40298   2.722   2.724  13.544 -0.0582 -0.2235 -0.3532
24490W        W40299  12.085  12.232  14.673 -0.5025 -0.0592 -0.2361
24491W        W40300   2.538   4.980  14.919 -0.3262 -0.0085 -0.1672
24492W        W40301  14.923  14.543   0.285 -0.1419  0.0939  0.0826
24493W        W40302  10.857  14.771  11.445  0.2232 -0.3223 -0.2575
24494W        W40303   1.882  13.291   1.490 -0.0778 -0.2541 -0.0943
24495W        W40304   7.982   1.701  10.749  0.0376  0.0088 -0.1999
24496W        W40305  17.569   5.740   2.698  0.0454 -0.1793 -0.2673
24497W        W40306  16.491   3.578   2.849  0.0951 -0.1081 -0.0407
24498W        W40307   9.554   8.311  10.171  0.0298  0.2142 -0.1533
24499W        W40308  17.475   6.335   1.090  0.0971  0.1552 -0.0146
24500W        W40309  17.926   3.309  12.953 -0.0515 -0.0995 -0.1080
24501W        W40310  18.335   1.580   4.154 -0.0005 -0.2295  0.1849
24502W        W40311   7.045   0.834  15.113  0.1329  0.0689  0.0880
24503W        W40312   4.444   2.703  13.313 -0.0216  0.1955 -0.3268
24504W        W40313  10.037   9.307   5.320  0.0184  0.2344  0.0064
24505W        W40314   8.115   9.613   3.864 -0.0922 -0.2330  0.1197
24506W        W40315   8.059  13.061   3.015  0.1105 -0.3609 -0.0265
24507W        W40316  15.179   1.319   3.088 -0.1536 -0.3401 -0.2107
24508W        W40317   7.474   2.930  11.606 -0.3089 -0.0491 -0.0773
24509W        W40318  13.494  13.039  15.344 -0.0352  0.3517  0.3397
24510W        W40319   0.373   7.447  14.804 -0.2013 -0.2006 -0.0706
24511W        W40320   5.076   4.533   2.015 -0.0606 -0.1418 -0.1270
24512W        W40321  14.469  10.271   2.742 -0.0889  0.0704  0.0074
24513W        W40322   2.650   7.093  12.627  0.4729 -0.0722  0.0901
24514W        W40323   0.683   8.616   1.568 -0.1410  0.0154 -0.0240
24515W        W40324  13.311   9.160   3.907  0.1770 -0.2156  0.1618
24516W        W40325  11.370   2.350  15.310 -0.0425 -0.0036 -0.0232
24517W        W40326   2.182   3.497  13.573  0.1645  0.0295 -0.0292
24518W        W40327   3.458  16.175  11.096 -0.0447  0.1803  0.0716
24519W        W40328   3.460  15.499   5.205  0.0767  0.2732 -0.3240
24520W        W40329   0.435  11.282   4.076  0.2712 -0.2565  0.1131
24521W        W40330   9.448  15.715   0.533 -0.0061  0.0341  0.0475
24522W        W40331  13.787   2.441  13.920 -0.2439 -0.0648 -0.4125
24523W        W40332   5.850   8.495   4.579 -0.0481 -0.1514 -0.0034
24524W        W40333  11.640   4.234   2.735  0.1598 -0.0446 -0.1714
24525W        W40334   7.616  10.506  15.028  0.3865  0.0393 -0.2576
24526W        W40335   7.546  12.853  14.667  0.2129 -0.1350  0.0781
24527W        W40336  15.095  14.818   3.900  0.0071  0.1117  0.0223
24528W        W40337   5.393   7.134  12.102 -0.0454 -0.0737  0.0998
24529W        W40338   9.453  11.490  14.881  0.2858  0.1124 -0.4064
24530W        W40339   3.251   0.400   2.819 -0.0402  0.2872  0.1086
24531W        W40340  15.690  15.951  10.784 -0.3313 -0.1244 -0.2101
24532W        W40341  18.446  14.925  15.485  0.0980 -0.0741 -0.2281
24533W        W40342  14.577  18.779   1.449  0.0302  0.0502  0.0362
24534W        W40343   8.031   8.466   1.741 -0.0868 -0.0959  0.0486
24535W        W40344  13.876   3.755  12.621  0.0514 -0.1458  0.0556
24536W        W40345   0.834  10.599   2.343  0.0972 -0.1149  0.0609
24537W        W40346  15.153   5.926   1.334 -0.0337  0.0057  0.1202
24538W        W40347   6.819  16.423  15.293  0.1165 -0.3051  0.1159
24539W        W40348   6.608   8.670   2.159 -0.0846  0.0787  0.2130
24540W        W40349  15.394   6.802  15.189 -0.0669 -0.2274  0.2332
24541W        W40350  10.932  17.949  10.365 -0.1492 -0.0252 -0.1423
24542W        W40351  12.444   3.576   4.200  0.1764 -0.0611  0.0064
24543W        W40352   8.221  17.899  12.092  0.0755 -0.0682 -0.1716
24544W        W40353  17.616   5.443  14.917  0.2169  0.0467  0.2194
24545W        W40354   5.265  11.020   1.665  0.0654  0.0815 -0.2016
24546W        W40355   0.922   8.580  12.740 -0.2559  0.0976 -0.2066
24547W        W40356  11.935   2.486  14.761 -0.0488  0.0502  0.0789
24548W        W40357  14.402  13.879   0.557 -0.0551  0.0393 -0.3481
24549W        W40358   1.903   2.229  11.589 -0.0893 -0.3137 -0.0022
24550W        W40359   5.707  15.409  14.142  0.1424  0.0010  0.1252
24551W        W40360   6.383   4.789   1.700  0.0326  0.1215  0.2626
24552W        W40361  13.520   6.073   3.443 -0.2146  0.3383 -0.1470
24553W        W40362   4.606  12.859  13.958 -0.0008  0.3307 -0.2490
24554W        W40363   3.310  14.786  13.757 -0.0377 -0.0575  0.3159
24555W        W40364  17.777  13.190   2.303  0.0047  0.2453 -0.1963
24556W        W40365  18.412  18.389   5.270 -0.2510 -0.2203  0.0877
24557W        W40366  13.972  10.839  12.015  0.0316 -0.0737 -0.0929
24558W        W40367   8.513   6.610   4.808 -0.1945  0.0689 -0.1094
24559W        W40368  17.095  17.371   1.885 -0.0858 -0.1049  0.1913
24560W        W40369   0.820  15.842  10.612  0.0858 -0.2515 -0.0637
24561W        W40370   5.969   0.902  14.451 -0.2150 -0.1755 -0.1466
24562W        W40371   1.195  17.627  14.615  0.3833 -0.0398 -0.1301
24563W        W40372  12.998   7.482   4.812  0.1244  0.3180 -0.1444
24564W        W40373  16.074  14.889   1.544 -0.3111  0.1953 -0.0804
24565W        W40374  15.405   8.041   1.983  0.0063 -0.1845  0.4259
24566W        W40375   1.613   1.557   0.537  0.0347 -0.0046 -0.2083
24567W        W40376  13.066   1.989   0.075  0.0607  0.3235  0.4182
24568W        W40377   3.081   3.985   0.549 -0.0677 -0.4660 -0.1184
24569W        W40378  17.814  12.952   0.712  0.0400  0.1641  0.0354
24570W        W40379   3.356   1.991   3.215  0.0053 -0.2001  0.1123
24571W        W40380  18.410  17.401   4.638 -0.1073 -0.2723 -0.3510
24572W        W40381   0.842  13.707  15.377 -0.0040  0.2398  0.0911
24573W        W40382   0.437   0.163  13.569 -0.1088  0.1773  0.3864
24574W        W40383  10.673   9.927   0.645 -0.5206  0.0039 -0.2205
24575W        W40384   0.137  12.297  10.312  0.4251 -0.3116 -0.2663
24576W        W40385   6.622   7.416   1.258 -0.0628 -0.3544 -0.0916
24577W        W40386  14.883  14.971  11.853  0.0191 -0.2747  0.0390
24578W        W40387   6.706  14.928  15.019 -0.1106  0.1099  0.1127
24579W        W40388   5.161   3.072   3.879 -0.2100  0.1905  0.4092
24580W        W40389   8.771  13.889   4.066  0.0526  0.0499  0.1259
24581W        W40390   4.176  14.038  14.745  0.4296 -0.1384  0.0549
24582W        W40391  11.851  14.727  15.407 -0.0128  0.0939 -0.1434
24583W        W40392  13.603  10.476   1.969  0.1366 -0.0676 -0.4748
24584W        W40393   8.402  16.293  11.564 -0.0090  0.0667 -0.0673
24585W        W40394  10.230   3.893  15.307  0.0393 -0.5342  0.1254
24586W        W40395  10.509   2.643  14.638  0.2969 -0.3071  0.1738
24587W        W40396   4.850  14.784   0.880 -0.0339  0.0757 -0.0437
24588W        W40397  12.543  12.166   2.522 -0.0054  0.0053 -0.1389
24589W        W40398   7.016  15.218  14.675  0.1681 -0.1155  0.3761
24590W        W40399  10.146  11.673  14.726  0.1881  0.2906  0.0433
24591W        W40400   5.492   3.310  10.289 -0.0295  0.0002  0.1709
24592W        W40401   8.778  16.074   1.747 -0.0765  0.2151 -0.1078
24593W        W40402  12.274   0.442  11.574  0.1169  0.1636 -0.0298
24594W        W40403   6.791   5.605   3.471  0.1986 -0.0135  0.0952
24595W        W40404   4.379  12.446   2.469  0.1632 -0.1593  0.0453
24596W        W40405  15.888   1.065   1.938  0.1838 -0.1308 -0.1140
24597W        W40406  11.931   6.484  12.974  0.0708  0.0260  0.0866
24598W        W40407   5.237  17.199  10.928 -0.2464 -0.0544  0.2079
24599W        W40408   4.307  15.486   3.893  0.0606  0.0425  0.0715
24600W        W40409  13.304  15.806  15.522  0.1690 -0.1487 -0.1544
24601W        W40410   4.808  18.743  11.763  0.3389  0.1275  0.1283
24602W        W40411   8.027  10.933  13.353 -0.3869 -0.1103  0.1390
24603W        W40412  18.548  10.156  10.132 -0.1218  0.1968  0.0427
24604W        W40413  12.089  12.924   3.379 -0.0381  0.0804 -0.1213
24605W        W40414  16.171   5.491  10.913  0.0253 -0.1469 -0.2404
24606W        W40415  10.028   3.295   4.132 -0.1643 -0.0114  0.2835
24607W        W40416  15.609  16.038  10.289  0.1335 -0.2046  0.1760
24608W        W40417   0.066  12.544   2.678  0.1634  0.2065  0.0458
24609W        W40418   7.383  16.835  11.312  0.1167  0.0370 -0.1044
24610W        W40419   8.510   9.462  14.823  0.0225  0.4079  0.2421
24611W        W40420  18.729  13.958  13.652 -0.0771  0.2872 -0.2686
24612W        W40421   8.914   6.678   5.208  0.0993  0.3289  0.2174
24613W        W40422   8.614  17.716   1.546 -0.1533  0.0761  0.0446
24614W        W40423  12.660   2.990   1.618 -0.3216  0.1146  0.1089
24615W        W40424   0.831  11.315   0.395 -0.1389  0.0556  0.2461
24616W        W40425   1.398   9.414  12.341 -0.2260  0.1741  0.1230
24617W        W40426   8.178   1.499   0.321 -0.2192  0.3341 -0.1146
24618W        W40427  11.525  17.765   3.966 -0.0035 -0.2060 -0.0219
24619W        W40428  15.375   0.770  11.111  0.1373 -0.2262 -0.1065
24620W        W40429  15.819   1.679  10.720  0.0867 -0.1134  0.1876
24621W        W40430  15.494  10.904   0.523 -0.0838  0.0614 -0.2013
24622W        W40431  13.435  10.930  13.856  0.4412 -0.2072 -0.1177
24623W        W40432  11.675   4.266  15.398 -0.0037  0.0377  0.1846
24624W        W40433  11.410   3.817  15.439 -0.1133  0.1015  0.2147
24625W        W40434   5.393   2.827   2.540  0.3924 -0.2715 -0.0470
24626W        W40435  12.067   0.417  15.047 -0.0416 -0.0446 -0.0648
24627W        W40436  13.786  15.704  15.315  0.0390 -0.0401 -0.0913
24628W        W40437  11.917   9.789   2.645  0.0267  0.0570 -0.2418
24629W        W40438   5.326  14.697  11.216  0.0995  0.3097 -0.3149
24630W        W40439  16.461  16.076  13.079  0.2313  0.0419 -0.0642
24631W        W40440  10.169  13.089  15.467  0.0387  0.1104  0.2435
24632W        W40441   7.162   9.446   4.659  0.1329  0.1729 -0.0834
24633W        W40442  18.527  13.870   4.481 -0.0713 -0.1146 -0.2623
24634W        W40443  17.298  16.460   2.039 -0.2166  0.2895 -0.0763
24635W        W40444   1.115   9.650  11.884  0.0693  0.0749 -0.0352
24636W        W40445  10.551   6.711   4.266 -0.2402 -0.1319 -0.3071
24637W        W40446   7.881   6.579   4.000  0.1284 -0.0920 -0.2339
24638W        W40447  16.721   6.625   5.177  0.0529  0.1901 -0.3310
24639W        W40448  16.629   7.671   0.789 -0.1256 -0.0425 -0.0612
24640W        W40449  15.630  18.230  10.987  0.2632  0.0521 -0.0184
24641W        W40450  10.956   4.636  12.703  0.0636 -0.1569  0.0764
24642W        W40451   4.376  13.980  10.476 -0.2442 -0.1130  0.0501
24643W        W40452   9.579  10.544  11.617  0.1325 -0.0160 -0.1606
24644W        W40453  12.067   9.936  14.989 -0.1021  0.3507 -0.2069
24645W        W40454  14.497   3.604   1.052 -0.2578 -0.2482  0.0197
24646W        W40455   0.739  10.895  11.399  0.0382 -0.0853 -0.0589
24647W        W40456  12.777  17.482  14.409 -0.2476 -0.1521 -0.0509
24648W        W40457   4.757   2.723  12.278 -0.2443 -0.0017  0.4577
24649W        W40458  18.480   5.326   2.275 -0.1003  0.0300  0.0163
24650W        W40459   7.478  12.525   2.359 -0.1427 -0.3090  0.2851
24651W        W40460  15.197  14.045   2.684  0.0988  0.0428 -0.0201
24652W        W40461   0.113  13.420   1.883  0.0819  0.3709  0.3129
24653W        W40462   2.381   8.907   0.616  0.2653  0.0387 -0.2371
24654W        W40463  17.315   8.341  12.811  0.0211 -0.0645  0.4291
24655W        W40464  15.583   3.242  13.374  0.1308  0.2787 -0.0706
24656W        W40465   8.923   0.562   1.707 -0.2445  0.1819  0.1703
24657W        W40466   0.796  11.325  13.684 -0.2925  0.0814  0.0216
24658W        W40467  13.352  13.425  13.075 -0.1308 -0.0935 -0.1816
24659W        W40468  17.141   8.377   4.218  0.1574  0.0935  0.1335
24660W        W40469  16.367  17.763   2.720  0.1457  0.3499  0.2536
24661W        W40470  11.586   6.169   5.555  0.0979 -0.0368  0.0282
24662W        W40471   1.154  17.337  13.188 -0.3075 -0.0972 -0.0334
24663W        W40472  11.393   0.265  14.598 -0.0370 -0.0873  0.1364
24664W        W40473  11.969  10.038   0.085  0.0628  0.1022 -0.2328
24665W        W40474  18.352   0.367   3.199  0.0476  0.0297  0.0615
24666W        W40475   2.159   4.953  14.017  0.0089 -0.1122 -0.0402
24667W        W40476   8.717  16.909   1.605  0.5664  0.1771 -0.2572
24668W        W40477   7.180   3.761   3.135 -0.2977  0.0772  0.0589
24669W        W40478  14.439   2.390   2.284 -0.1234  0.0202 -0.0606
24670W        W40479  13.937   7.379   2.707  0.0113  0.1422  0.1567
24671W        W40480   9.197   1.878   1.958 -0.2102 -0.0501 -0.0254
24672W        W40481   6.403  16.985  12.525  0.1521 -0.1087  0.1052
24673W        W40482  17.985   3.951  14.101  0.1565 -0.1173  0.0449
24674W        W40483  15.565   4.598  13.730  0.3251  0.1057  0.3116
24675W        W40484  11.895   6.958   1.389 -0.1642 -0.2615  0.0673
24676W        W40485   2.551  12.240  11.933 -0.0322  0.0680 -0.0409
24677W        W40486  13.667   1.676  11.266 -0.2734 -0.0530  0.0585
24678W        W40487  15.041  13.297  10.141 -0.1492  0.1431 -0.0013
24679W        W40488   9.578  14.703  10.778 -0.0613 -0.2043 -0.0759
24680W        W40489   3.236   3.076  11.227 -0.0058 -0.1415  0.0091
24681W        W40490  15.896  16.635  14.955  0.1248 -0.0580  0.0709
24682W        W40491   1.603   0.274  10.757 -0.0143 -0.1739 -0.3706
24683W        W40492  13.614   9.018  10.642 -0.1399 -0.2747 -0.0050
24684W        W40493   5.055   7.217  14.001  0.1108  0.1451  0.3680
24685W        W40494  10.568   4.885  12.799 -0.2330  0.0881  0.1128
24686W        W40495  10.967  10.258   3.994 -0.4696 -0.0802  0.2357
24687W        W40496  17.378   0.428   5.175  0.0153  0.2981  0.2911
24688W        W40497   6.470   5.689   2.033 -0.0256  0.2755 -0.0745
24689W        W40498  13.646   8.109  10.903 -0.0454  0.0488  0.1260
24690W        W40499  15.578   6.047   0.565 -0.3873 -0.2200 -0.3266
24691W        W40500   7.365   9.651  15.528 -0.1249  0.0673  0.2389
24692W        W40501  13.925   4.553  13.680  0.2892 -0.1939  0.0537
24693W        W40502  11.557   7.901   3.048 -0.0935  0.1453  0.0033
24694W        W40503   7.276   5.084  13.024  0.1000  0.5785 -0.0377
24695W        W40504  15.372   9.775  14.218  0.0690 -0.1627 -0.2438
24696W        W40505  15.119   6.853  11.669  0.0271 -0.0465  0.1339
24697W        W40506  17.398   0.399  13.349  0.2103 -0.2623 -0.0785
24698W        W40507   0.969   3.615  12.195  0.0998 -0.0439 -0.0373
24699W        W40508  18.108   8.905  11.300 -0.3572 -0.1414 -0.3111
24700W        W40509   0.205   5.946   2.767 -0.1617  0.2541  0.0637
24701W        W40510  16.239   5.864   3.232 -0.2796 -0.1029  0.1718
24702W        W40511  17.130   6.983  14.049  0.0991  0.1805 -0.1698
24703W        W40512  13.010  16.606   5.784  0.2532 -0.0067 -0.3385
24704W        W40513   8.155   3.180   2.454  0.0053 -0.0509  0.0644
24705W        W40514   7.287   3.877  13.441 -0.1451  0.1914  0.2160
24706W        W40515   9.637   6.602  14.584  0.1348 -0.2176  0.3485
24707W        W40516   8.633   1.979  15.232 -0.3539  0.1141 -0.0453
24708W        W40517   6.547   0.086  12.635  0.2081 -0.0894  0.2193
24709W        W40518   1.208   1.340   2.326 -0.5198  0.2457  0.0778
24710W        W40519  15.960  15.533   4.322 -0.0080 -0.0788  0.1098
24711W        W40520   1.795  15.483   2.107 -0.0283 -0.0262  0.1413
24712W        W40521   5.071  17.989   3.550 -0.0921  0.0684 -0.2505
24713W        W40522   6.123   9.619   5.362  0.1720  0.0636  0.0127
24714W        W40523   5.642  11.420  14.712  0.1731  0.0585 -0.0439
24715W        W40524  17.019  16.291   1.569  0.1623  0.1979  0.2072
24716W        W40525  15.181   5.469  14.023 -0.0766 -0.1465  0.1168
24717W        W40526  14.643   0.989  14.582 -0.1116  0.0620 -0.3792
24718W        W40527   5.813   0.026   0.400  0.0792 -0.0074 -0.1598
24719W        W40528   0.920   2.366   5.287  0.1827 -0.0255  0.0297
24720W        W40529   6.403  15.761  11.098 -0.2259 -0.0651 -0.0752
24721W        W40530   1.381   4.710  13.973  0.1922  0.0424 -0.1487
24722W        W40531  13.631  14.043   0.661 -0.0330  0.1117  0.2663
24723W        W40532  15.683   7.705  13.178  0.0341  0.0097 -0.1164
24724W        W40533   3.168   6.162  12.996 -0.1425 -0.0021 -0.3644
24725W        W40534   5.786  12.280  14.519 -0.0249  0.2608  0.1171
24726W        W40535  14.232   5.065   3.366  0.1309  0.2007  0.2679
24727W        W40536   9.647   3.707  11.122  0.1342  0.2049  0.0442
24728W        W40537   9.129   6.714  14.532 -0.1240 -0.0292  0.0414
24729W        W40538   7.135   7.858  11.697 -0.0548 -0.2476 -0.0665
24730W        W40539   8.602  11.844  11.722  0.2678  0.0413 -0.2041
24731W        W40540  12.069   9.460   1.314 -0.3688 -0.0781  0.3542
24732W        W40541   8.109  11.957  10.828  0.0336 -0.0630  0.0860
24733W        W40542   6.130  10.331   3.557 -0.0897 -0.0578 -0.2863
24734W        W40543  10.716  11.763  15.048 -0.1325  0.1528 -0.0034
24735W        W40544   9.879   0.610   1.543 -0.1836  0.1179  0.1078
24736W        W40545  15.884   8.788   2.468  0.0157 -0.2541  0.3106
24737W        W40546   1.563  16.746   3.930  0.0504 -0.1001 -0.1928
24738W        W40547   2.345   1.667  14.046  0.1882  0.1547  0.1371
24739W        W40548   5.938   3.164   6.201  0.2104 -0.0099  0.1952
24740W        W40549  14.949  11.963   2.932 -0.1542  0.0498  0.1293
24741W        W40550   7.680   5.099  13.386  0.1911  0.0355  0.0325
24742W        W40551   6.441   9.378   2.062  0.3108 -0.2196  0.1681
24743W        W40552   8.251  13.804   3.735  0.2573  0.1522  0.0933
24744W        W40553  11.777  10.830  11.798 -0.1388  0.5725  0.1959
24745W        W40554  15.499   8.295  14.327 -0.2381 -0.1148  0.0820
24746W        W40555  17.829  18.102   1.337 -0.3798 -0.0526  0.0160
24747W        W40556   3.185  17.902  12.830  0.0893 -0.1331 -0.0839
24748W        W40557  17.306  14.396   4.337  0.0493  0.0228 -0.1629
24749W        W40558   7.382   3.828   4.939 -0.1298 -0.1582  0.3406
24750W        W40559   8.341  18.166  11.693 -0.1066 -0.0641  0.0243
24751W        W40560  16.778  15.143  13.403  0.1519 -0.2019 -0.0289
24752W        W40561  18.740  11.452  11.603 -0.0093 -0.1273 -0.0983
24753W        W40562   1.104   1.516  14.319 -0.2061  0.0836  0.1261
24754W        W40563   7.498   2.745   1.671  0.0426  0.0819  0.7000
24755W        W40564  18.506   6.818  11.553  0.0932 -0.0975  0.2652
24756W        W40565   5.524   2.402   0.271  0.2677 -0.2597 -0.1404
24757W        W40566  12.466   3.041   4.896  0.1136  0.2978 -0.0170
24758W        W40567   0.071   8.097  12.203 -0.4079  0.2185  0.2303
24759W        W40568  11.866  15.330   2.616 -0.2953 -0.0943  0.0288
24760W        W40569   8.083  10.031   3.192  0.2364 -0.2769 -0.5389
24761W        W40570   0.032   3.700  13.816 -0.0428 -0.1424 -0.2634
24762W        W40571   4.554  16.513  11.737  0.1299 -0.0981  0.3249
24763W        W40572  13.916  16.752  11.339  0.1899 -0.0875 -0.2262
24764W        W40573   9.649   3.496  12.397 -0.1721  0.1849 -0.0578
24765W        W40574  16.694   1.391  11.675 -0.3216  0.0643  0.2773
24766W        W40575   3.316   4.640  12.271 -0.0463 -0.0326 -0.1638
24767W        W40576   1.567   8.708   0.722 -0.2588 -0.0282  0.0142
24768W        W40577   9.563   0.802   3.859 -0.1240 -0.0716 -0.1070
24769W        W40578  14.087  12.549   0.996  0.0945  0.0202  0.1996
24770W        W40579   2.320   5.596   4.053  0.0662 -0.1448 -0.0050
24771W        W40580   1.905   2.609   1.097 -0.2631 -0.0959 -0.0199
24772W        W40581   6.418   4.898  12.200 -0.0400  0.1406 -0.1370
24773W        W40582   9.477   0.585  11.486 -0.2016  0.1930  0.0925
24774W        W40583  10.344  13.754  13.366  0.3085  0.0353 -0.0281
24775W        W40584  15.117   9.398  10.680  0.5081 -0.0042 -0.0413
24776W        W40585   4.847   7.227  10.123  0.0771  0.3258 -0.1885
24777W        W40586   3.906  15.981  15.376 -0.4206 -0.0576  0.2073
24778W        W40587   5.161   1.725   2.458 -0.2547 -0.1649 -0.1019
24779W        W40588  18.392   0.013  13.853 -0.0654 -0.0063 -0.0202
24780W        W40589   1.957   4.575  11.802 -0.1665  0.0354  0.1235
24781W        W40590   8.682  10.846   1.343  0.3267  0.1358  0.1716
24782W        W40591  16.589   4.204  14.000  0.0891  0.0477 -0.2106
24783W        W40592   6.954   7.634   3.537 -0.0328  0.1635  0.2537
24784W        W40593   4.924   4.447   5.593 -0.2323 -0.2618  0.1271
24785W        W40594   9.097  18.373  11.136 -0.0535 -0.0786  0.0452
24786W        W40595   2.170   7.863  12.784 -0.0661 -0.1077  0.4460
24787W        W40596  13.513   7.709   3.964  0.0193  0.1002 -0.1805
24788W        W40597  14.057  18.349  11.354 -0.2519  0.0228  0.2598
24789W        W40598   9.978  10.214   2.159 -0.0492  0.2572 -0.2170
24790W        W40599   5.673  17.108   2.457  0.0823  0.2406  0.1535
24791W        W40600  12.207   3.132  14.118 -0.1863 -0.1763  0.1680
24792W        W40601   2.815  18.585  13.184 -0.0234  0.0814 -0.1925
24793W        W40602   0.372   2.590   0.777  0.2592 -0.0148  0.3522
24794W        W40603   7.159  14.162  11.549 -0.0431  0.0649  0.1244
24795W        W40604   2.337   2.419  13.713 -0.2665 -0.0785  0.0278
24796W        W40605  13.948  14.601   0.367  0.1162 -0.0809 -0.1677
24797W        W40606   3.302  16.961   2.978 -0.0806 -0.1194 -0.2125
24798W        W40607  13.172  10.252   4.524  0.0950 -0.1242 -0.1052
24799W        W40608  10.841  13.501   4.475 -0.0825  0.0259 -0.1534
24800W        W40609  13.342  18.357  13.758 -0.1391  0.0754 -0.1578
24801W        W40610   5.858   1.075  11.377  0.0593  0.0624  0.0334
24802W        W40611   0.294   1.214  14.235 -0.1274  0.0161 -0.0590
24803W        W40612  16.838  18.131   4.680  0.2383  0.0792  0.1206
24804W        W40613  16.366  14.397  12.618  0.1815  0.1061 -0.1220
24805W        W40614  10.020  14.611   0.175  0.0556  0.0774 -0.1507
24806W        W40615   8.997   1.280   3.586  0.1334 -0.1569 -0.2643
24807W        W40616  13.537   8.008   4.484 -0.0669 -0.1309  0.4040
24808W        W40617  11.792  13.596   2.317 -0.2627  0.0532  0.0025
24809W        W40618   9.286  18.144  15.503 -0.2477  0.0380 -0.1080
24810W        W40619  18.162   9.565  14.470  0.2949 -0.1139  0.0407
24811W        W40620  14.330  14.803   5.718 -0.2940 -0.1963  0.0833
24812W        W40621  16.875   2.737   4.747 -0.1589  0.1861  0.0139
24813W        W40622   4.021  12.707   1.463  0.2780  0.1950  0.0029
24814W        W40623   8.021  18.260  13.493  0.0743 -0.2310  0.1406
24815W        W40624   9.428  10.527   3.258  0.1912  0.0063  0.0130
24816W        W40625  12.521   5.562  10.884  0.2303  0.3008 -0.0135
24817W        W40626  11.812  13.090  12.450 -0.1256 -0.1092 -0.0780
24818W        W40627   1.666  12.612  12.499 -0.1552  0.0262  0.3654
24819W        W40628   9.809  17.484   0.690 -0.1210 -0.1623 -0.0511
24820W        W40629   0.540  16.610  13.571 -0.1989  0.2704  0.1919
24821W        W40630  15.316   2.302  11.262 -0.0630 -0.1796  0.2455
24822W        W40631   6.138   3.818  15.535 -0.0256 -0.3144 -0.0207
24823W        W40632  18.401  14.531  13.348  0.1107  0.0100  0.1139
24824W        W40633  10.801   7.149  15.433  0.4106  0.0649 -0.2084
24825W        W40634   6.505  11.225   1.790  0.0847 -0.1648 -0.2297
24826W        W40635  13.516   2.173  13.128  0.0907  0.3668  0.1161
24827W        W40636   1.499  14.872  14.383  0.2256 -0.1617 -0.0273
24828W        W40637   8.523   4.849   0.642  0.1133  0.0979 -0.0064
24829W        W40638  10.137  13.932   3.210  0.0555  0.1527 -0.0748
24830W        W40639  14.742   2.647  12.119  0.0640  0.0840 -0.0369
24831W        W40640  13.796  18.368  14.581  0.1926 -0.1119 -0.0874
24832W        W40641  12.868   0.763   4.226  0.0177 -0.0960  0.0261
24833W        W40642  15.781   2.983  15.300 -0.0330 -0.0399  0.2730
24834W        W40643  18.206  15.447   1.659 -0.1127 -0.0361 -0.0454
24835W        W40644  15.776  10.744  10.889 -0.1420  0.2231  0.3020
24836W        W40645  12.954  11.353   5.180  0.0899  0.2240  0.2307
24837W        W40646   6.533  16.533  12.396 -0.0053  0.1387  0.1884
24838W        W40647   1.180   7.118  15.289  0.0025 -0.1289 -0.2370
24839W        W40648  16.695   1.270   1.211 -0.0249 -0.1960  0.0526
24840W        W40649   8.131   5.035  13.702 -0.1465  0.4000 -0.1715
24841W        W40650  14.598  18.532   0.972  0.1314 -0.0178  0.0918
24842W        W40651   5.500  11.764  11.245 -0.0047  0.2598  0.0418
24843W        W40652  16.597   4.941  13.650  0.3872  0.0348 -0.1693
24844W        W40653   3.033   1.055   2.244  0.0716  0.0961 -0.1311
24845W        W40654   8.631  14.265   0.158 -0.0451  0.2454  0.1291
24846W        W40655   0.499  10.433  12.620 -0.1391  0.1370 -0.2088
24847W        W40656  12.310   8.018  10.242 -0.3340  0.0907  0.0413
24848W        W40657   7.151   5.397   2.711 -0.3182  0.1066  0.2861
24849W        W40658   0.836   4.025  13.413  0.0050 -0.0761  0.2593
24850W        W40659  11.531  12.997   0.201  0.1838 -0.2108  0.0584
24851W        W40660   4.592   7.249   2.403  0.0365 -0.0239 -0.0863
24852W        W40661   7.223  17.755   5.116 -0.2075 -0.1371 -0.1432
24853W        W40662   2.024   0.126  15.181 -0.1093  0.1536 -0.1177
24854W        W40663   8.241  12.199   0.031 -0.0458 -0.2852  0.1423
24855W        W40664   7.923  12.889  11.401  0.1352  0.1346  0.0938
24856W        W40665  15.523   1.503  12.299 -0.1385 -0.3028 -0.1042
24857W        W40666  12.916   9.485   0.801 -0.0530  0.2382 -0.0116
24858W        W40667   2.021   5.154   2.776  0.0192 -0.0810  0.3033
24859W        W40668   0.444   5.838  10.046 -0.2716 -0.2440  0.0056
24860W        W40669  10.864   2.906  12.822  0.0941 -0.2906 -0.0531
24861W        W40670   4.270   8.327  14.285 -0.2208 -0.0673 -0.0565
24862W        W40671  15.939   5.555   4.788  0.0096  0.0591  0.1843
24863W        W40672  18.558  13.636   1.404  0.2005 -0.0412  0.3330
24864W        W40673   6.273  14.942   2.257  0.0574 -0.0415 -0.0491
24865W        W40674   6.744   5.596  12.480 -0.0278 -0.2252  0.0028
24866W        W40675  16.896   9.749  10.868  0.3944 -0.0496 -0.2298
24867W        W40676   7.974   4.046   1.338 -0.2382 -0.1987 -0.1657
24868W        W40677   8.339   0.524   3.241  0.3760 -0.1219  0.1727
24869W        W40678  15.264   2.518   2.956  0.0510  0.2193  0.2744
24870W        W40679  10.739   2.143  11.119 -0.2522 -0.0865  0.0345
24871W        W40680   7.379  14.532   1.796  0.0310  0.1611  0.0547
24872W        W40681  15.022   9.487   2.682  0.0008 -0.1147 -0.1517
24873W        W40682   0.369   9.206   3.557 -0.1098 -0.0823 -0.3695
24874W        W40683  17.253   5.726  14.738 -0.2655 -0.2047  0.0530
24875W        W40684  10.796  14.492   1.378 -0.1706  0.1272  0.1480
24876W        W40685  16.459  12.085   1.589 -0.0722  0.0653 -0.1488
24877W        W40686   0.335  16.692  14.398  0.2225  0.1016  0.3196
24878W        W40687  10.169   7.367  12.196 -0.0033  0.3800  0.0591
24879W        W40688  11.436   6.124   4.265 -0.1285  0.2351 -0.0165
24880W        W40689  10.044  12.765   3.108  0.3003 -0.3661 -0.1230
24881W        W40690   6.987  13.443  11.966  0.0007  0.2979 -0.3207
24882W        W40691   8.431   4.233  11.615  0.0233 -0.0149 -0.3803
24883W        W40692   4.506   9.850  14.548  0.0189  0.7067 -0.1648
24884W        W40693  16.653   7.145  15.059  0.1765  0.3592 -0.3156
24885W        W40694   8.088   1.197   4.487 -0.0106  0.1292 -0.3483
24886W        W40695   5.802   7.123  11.749  0.0280  0.4239  0.0944
24887W        W40696   6.907   8.519  14.296 -0.0677  0.3842 -0.2718
24888W        W40697  11.516   2.256   0.710 -0.3276 -0.3580  0.1733
24889W        W40698   3.453  10.264  11.507 -0.1577 -0.0538 -0.0755
24890W        W40699   6.005  14.035  13.917 -0.3260 -0.1175  0.0415
24891W        W40700  17.245   9.583   2.209 -0.0799  0.1851  0.1078
24892W        W40701   0.602  13.832  12.245 -0.0240 -0.0984  0.2401
24893W        W40702   0.524  18.298  13.993 -0.0924  0.5304 -0.1084
24894W        W40703   0.805  12.581   0.197 -0.1759 -0.1953  0.2046
24895W        W40704   3.763   1.930   0.271 -0.1824 -0.1848 -0.2376
24896W        W40705  18.759  13.711   2.658  0.2725 -0.0633  0.2801
24897W        W40706   6.668   8.111   2.194  0.2286 -0.3635 -0.1428
24898W        W40707   7.899  13.498   4.942 -0.2689  0.4873  0.1250
24899W        W40708   5.706  14.552  10.751  0.3480  0.0717  0.1244
24900W        W40709  18.241   7.354  14.753  0.2678  0.0005  0.0419
24901W        W40710   3.688   7.165  14.242  0.1909 -0.0262 -0.1884
24902W        W40711   6.606   5.427  10.705  0.0035 -0.1920  0.0437
24903W        W40712   3.215  11.713   1.737  0.5154  0.0747  0.3356
24904W        W40713   1.841   8.442   1.239 -0.2018  0.1726 -0.0405
24905W        W40714   3.468   7.206   2.947 -0.3605  0.1177 -0.2524
24906W        W40715   4.991   0.024   3.676 -0.4625 -0.2552 -0.0504
24907W        W40716  16.085  10.503   0.144 -0.2583  0.1691  0.1757
24908W        W40717  12.006   8.895   5.159  0.0917 -0.0981  0.2839
24909W        W40718  12.832   5.905  11.103  0.0068 -0.0017  0.0594
24910W        W40719   6.912  14.215  14.389  0.2500  0.1320  0.0335
24911W        W40720   9.673  12.358   3.939 -0.1317 -0.0889 -0.1912
24912W        W40721   0.954  15.950   3.611  0.1418  0.0125 -0.0321
24913W        W40722  16.071  14.504   4.843 -0.1256 -0.1521 -0.0078
24914W        W40723   9.620   3.213   1.769 -0.1441  0.1882 -0.0881
24915W        W40724  14.605   6.164   0.459  0.0013 -0.2812 -0.1424
24916W        W40725   2.390  10.428   5.027  0.2964  0.1095  0.2184
24917W        W40726   6.658  15.839   3.008  0.0073  0.0738  0.0765
24918W        W40727  13.750   8.614  14.596  0.1845 -0.0737 -0.1864
24919W        W40728  16.734   9.722   4.753  0.2530 -0.0581  0.1754
24920W        W40729   3.257   8.998   3.538  0.1675  0.0464  0.1343
24921W        W40730   9.190  13.867  12.730 -0.0869 -0.2068 -0.2404
24922W        W40731   9.804   4.812   4.874 -0.1589 -0.0111 -0.3859
24923W        W40732  15.929  16.771   2.954  0.0850  0.1197  0.2895
24924W        W40733  12.664  18.464  12.081  0.0049 -0.0142 -0.2516
24925W        W40734  15.758   1.974   0.377 -0.2463 -0.1482 -0.0760
24926W        W40735  15.665  16.124   6.163  0.1025 -0.1015 -0.2681
24927W        W40736  12.518  10.680   1.049  0.0599  0.1761  0.0742
24928W        W40737   9.529   6.948  11.198 -0.2069  0.0107 -0.1971
24929W        W40738  10.765   3.356   0.302 -0.1364  0.1130  0.0258
24930W        W40739   6.772  16.088  10.977  0.2632 -0.1353  0.1004
24931W        W40740   3.768  13.791   1.855 -0.2022  0.2400  0.0987
24932W        W40741  14.490  14.303  12.991  0.2772 -0.4075  0.1215
24933W        W40742   7.916   0.260   3.114  0.0251 -0.1139  0.0730
24934W        W40743   4.342  12.148   0.239  0.0677 -0.3577 -0.0667
24935W        W40744  11.749   2.085   6.029  0.0330  0.0016  0.0863
24936W        W40745   5.523   7.241  14.299  0.1226  0.1392  0.2408
24937W        W40746  15.526   6.907   2.357  0.0041  0.0203 -0.0397
24938W        W40747   8.094   3.788   2.582  0.0095 -0.1789  0.1695
24939W        W40748  16.599  15.222   3.127 -0.0124  0.1957  0.2016
24940W        W40749  15.106   1.215   2.545  0.2385  0.0657 -0.0583
24941W        W40750   9.439   0.297   0.305 -0.2428 -0.0083 -0.3222
24942W        W40751  10.454  18.066   5.292  0.1283 -0.2150 -0.0820
24943W        W40752   5.606   4.541   3.982  0.1162  0.1979 -0.0232
24944W        W40753  15.053   6.568   4.324  0.2057  0.0506  0.1533
24945W        W40754   0.400   8.717  10.637 -0.2490 -0.2315  0.4332
24946W        W40755   9.162  14.635   4.178 -0.1835 -0.0598 -0.3303
24947W        W40756   1.299   8.596   5.786 -0.1135  0.0372 -0.2578
24948W        W40757   3.483   4.989  13.647  0.0276 -0.0760 -0.1096
24949W        W40758   8.754   8.440   5.280  0.0951 -0.0021  0.1268
24950W        W40759  12.411   4.645   0.854  0.0465  0.0134  0.0573
24951W        W40760   5.116  10.674  14.277 -0.0445  0.3441 -0.1017
24952W        W40761   9.971  17.448   4.892  0.0215  0.0047 -0.1215
24953W        W40762   9.787  12.780  13.026  0.1030 -0.3845 -0.0814
24954W        W40763  17.242  10.591  14.293  0.0510  0.1823  0.4029
24955W        W40764  16.923   6.708  12.296  0.3610  0.2264 -0.0787
24956W        W40765   9.242  11.904  13.943  0.3056 -0.0664 -0.0567
24957W        W40766   9.157   4.535  14.276 -0.1148 -0.1671  0.1740
24958W        W40767   3.456  10.678   0.960  0.1785  0.1756  0.2139
24959W        W40768   7.591  15.957   2.096 -0.3537  0.0719 -0.1456
24960W        W40769  17.951   4.054  13.190 -0.3642  0.0528  0.1902
24961W        W40770  13.630  18.015  12.970 -0.0474  0.1340 -0.0652
24962W        W40771   2.914  15.781  13.565  0.0852 -0.5199  0.0249
24963W        W40772  13.428  11.177  14.937  0.1041 -0.1282 -0.0087
24964W        W40773  18.759   0.681  10.843  0.1239 -0.2312 -0.1851
24965W        W40774   3.522  18.309   0.005 -0.0850  0.1171  0.2016
24966W        W40775  15.411   4.339   4.202  0.0848 -0.1284  0.2051
24967W        W40776   5.663   6.433   4.455 -0.2229 -0.0669 -0.0600
24968W        W40777   7.475   1.047  12.548 -0.0580 -0.0721  0.2005
24969W        W40778  15.748  14.892   4.976 -0.1770  0.3055 -0.0094
24970W        W40779   1.453  18.025   0.927  0.1530  0.1198 -0.1027
24971W        W40780  13.595  17.099   0.998 -0.1892 -0.1207 -0.0049
24972W        W40781  16.079  17.259  12.073  0.0800  0.1061 -0.4539
24973W        W40782   4.084   7.039   3.197 -0.0823  0.2697  0.2454
24974W        W40783  13.953   4.468   3.678  0.0356 -0.0730  0.2539
24975W        W40784   6.662  14.654  10.868  0.0899 -0.0105  0.1117
24976W        W40785  13.894   3.694  11.512  0.3224 -0.1817  0.1287
24977W        W40786   9.078  15.116  15.331 -0.1380 -0.0031  0.1694
24978W        W40787  14.978   8.098   5.876  0.1016  0.1773  0.3374
24979W        W40788   5.955   4.603   2.075 -0.0223  0.2212 -0.0428
24980W        W40789  15.307   1.211  14.518  0.1211  0.1079  0.2104
24981W        W40790  16.508  13.606  14.799  0.2719 -0.1100  0.2646
24982W        W40791   6.133   0.639   2.430  0.3941 -0.1772  0.1486
24983W        W40792  11.396   8.085   3.530  0.0901 -0.0793  0.0656
24984W        W40793   8.390  13.906   2.347  0.2134  0.0494  0.4190
24985W        W40794  14.254   8.305  10.619  0.0790  0.4120  0.0734
24986W        W40795   3.743  16.320   5.657  0.1912  0.0741 -0.0855
24987W        W40796  12.370   2.328  15.023 -0.0632 -0.2893  0.1697
24988W        W40797   6.041  11.807  14.787 -0.0068  0.0181 -0.1578
24989W        W40798  13.488  12.719   5.318 -0.1120 -0.0745  0.1168
24990W        W40799   7.444   1.387   0.968  0.2473 -0.1583 -0.1061
24991W        W40800  15.292  10.218   1.191  0.0176  0.1050 -0.0502
24992W        W40801   5.664   3.784  10.804  0.0420 -0.1807  0.0467
24993W        W40802   0.635   9.446  14.098  0.2291  0.2791 -0.1152
24994W        W40803  14.371   7.990  14.836  0.0996  0.0687  0.1175
24995W        W40804  15.972  15.088   1.135  0.0536 -0.2720  0.0155
24996W        W40805  16.810   9.304  12.935 -0.2716  0.3285 -0.0751
24997W        W40806  14.912   4.309  12.490 -0.1175  0.1861 -0.2954
24998W        W40807   4.696  12.280   4.444  0.0461 -0.0378  0.1372
24999W        W40808   4.280   4.402   1.649 -0.0568 -0.0542  0.2532
25000W        W40809  16.700  15.525  14.749  0.1328 -0.1654 -0.2460
25001W        W40810   7.729  12.460   4.268 -0.0535 -0.0762 -0.1337
25002W        W40811   5.674  13.762   1.589 -0.0243 -0.3024  0.1100
25003W        W40812   8.284  15.460   0.543 -0.1033  0.2137  0.1950
25004W        W40813   1.787   1.607  10.285 -0.1778 -0.1482 -0.1776
25005W        W40814   5.099  17.253   1.230 -0.2111  0.0683 -0.0055
25006W        W40815  16.539  18.182   1.914 -0.2252 -0.0472  0.0048
25007W        W40816  10.535  10.940  11.802 -0.3447  0.0993  0.0843
25008W        W40817   7.421  13.812  15.017  0.0822 -0.2202 -0.0714
25009W        W40818  12.831   5.598   1.545  0.0776  0.1044 -0.1949
25010W        W40819   3.634  15.318   3.424  0.1511  0.2372  0.1701
25011W        W40820  15.054   0.617   1.961  0.0411 -0.2468 -0.0562
25012W        W40821   1.120   5.711   3.324  0.0790 -0.1663  0.2480
25013W        W40822  13.126  12.298   1.042 -0.0884  0.1543 -0.2183
25014W        W40823  15.605  13.551   3.606 -0.1113 -0.0968 -0.4693
25015W        W40824   5.636   1.322   2.183 -0.0123 -0.0801  0.2241
25016W        W40825  14.009  14.474  15.023  0.0167 -0.1672 -0.0109
25017W        W40826   6.858   7.544   0.342 -0.2131  0.0936 -0.0909
25018W        W40827   4.190   3.195  12.638 -0.1416 -0.0420  0.0802
25019W        W40828   2.851   1.231   3.099 -0.3256  0.0182  0.2707
25020W        W40829  15.502  10.263  14.070  0.1392  0.3068  0.0108
25021W        W40830  13.055  11.837  15.282 -0.0704 -0.0493 -0.2084
25022W        W40831   8.941  16.407  13.682 -0.0241  0.3900  0.0902
25023W        W40832  16.608   4.023   3.109  0.0015 -0.2193  0.1633
25024W        W40833   8.349  10.701  13.002  0.1660  0.3928  0.0225
25025W        W40834  17.284   1.473   1.214  0.2435  0.0843 -0.1238
25026W        W40835  18.304   7.481  11.588 -0.0502  0.0374 -0.0816
25027W        W40836   7.727   1.627  12.062  0.0279  0.0214 -0.1763
25028W        W40837  13.550  15.936   0.519  0.5229 -0.0822  0.2177
25029W        W40838   2.404   6.507   0.599 -0.0557  0.3125 -0.1660
25030W        W40839   3.525   9.613   1.715 -0.0887  0.3527 -0.0352
25031W        W40840   5.907   8.128   5.492 -0.2400 -0.1125  0.1421
25032W        W40841   4.325  11.006   1.665  0.3276  0.1154 -0.1222
25033W        W40842  14.106  18.064   2.506  0.2189 -0.1033  0.0027
25034W        W40843  16.912  16.588   3.090 -0.0210  0.1637 -0.2058
25035W        W40844  12.287  15.632   0.175 -0.1757  0.1662  0.2573
25036W        W40845   9.420  11.214  13.635  0.1875 -0.1603  0.0081
25037W        W40846  15.260  10.485  11.076 -0.0715 -0.0453 -0.0138
25038W        W40847  13.883   1.709  15.543 -0.3966 -0.1150 -0.3323
25039W        W40848   8.694   2.109   1.157 -0.1159  0.5183  0.0554
25040W        W40849  15.534   7.091  13.888 -0.1283  0.0999  0.1446
25041W        W40850  16.013   0.238   2.373 -0.4095 -0.0233 -0.0467
25042W        W40851  14.508  16.139   2.854  0.0407  0.3735 -0.1882
25043W        W40852  11.386  18.210   2.511 -0.0282  0.0460 -0.0577
25044W        W40853  12.080  17.634   3.485  0.1045 -0.1422  0.1085
25045W        W40854   7.562   5.967   3.276  0.2607 -0.1923 -0.0586
25046W        W40855   1.566   8.506  13.550 -0.1334 -0.3182  0.1664
25047W        W40856   2.669   8.005   3.531  0.0118 -0.2000  0.0187
25048W        W40857   7.113  17.460  14.618  0.3418  0.0833 -0.0050
25049W        W40858  13.494   4.748   4.589 -0.0083 -0.1222 -0.0686
25050W        W40859   2.589  10.741   1.828 -0.0482  0.0561  0.2125
25051W        W40860  11.849  13.239   2.710  0.1531 -0.2633 -0.0509
25052W        W40861   5.243   8.569  12.813 -0.0941  0.1257 -0.0096
25053W        W40862   0.054  14.722  10.481  0.0937 -0.2719 -0.3844
25054W        W40863   2.277   7.434   5.048  0.1063  0.0296 -0.0150
25055W        W40864   4.990   7.633  12.720  0.1653 -0.0747 -0.1822
25056W        W40865   0.442  15.759   0.859  0.0829 -0.0985  0.3144
25057W        W40866   2.646  14.912   1.550 -0.1967  0.2097 -0.3590
25058W        W40867   2.395   5.557   1.027 -0.1327  0.0657 -0.1383
25059W        W40868   4.523  16.005  13.315  0.2240 -0.1141  0.0375
25060W        W40869  14.365  17.536  10.854  0.2029 -0.1002 -0.1184
25061W        W40870   8.157  15.033  15.452 -0.0610 -0.0200  0.1400
25062W        W40871  17.799   1.932   1.345 -0.1335  0.0150  0.1044
25063W        W40872  15.581  11.282  13.866  0.0420 -0.1385  0.0006
25064W        W40873   1.110  17.267   2.162  0.0290 -0.2293  0.2675
25065W        W40874  16.851   1.746  14.879  0.1834 -0.0123  0.1215
25066W        W40875   4.596   3.404  11.834  0.0078  0.3635  0.2410
25067W        W40876  13.596   8.298   0.759 -0.3796  0.0709 -0.0888
25068W        W40877   7.835  15.391   4.683  0.0387  0.1861  0.3290
25069W        W40878   5.068  14.466  15.119 -0.0075 -0.0030  0.2385
25070W        W40879   5.794  11.730  14.353  0.0042 -0.0227  0.0274
25071W        W40880  15.376   1.871   4.591 -0.0653  0.0936  0.2264
25072W        W40881   9.941   0.138   1.723  0.0798  0.1873 -0.2941
25073W        W40882  10.051   0.574  14.356 -0.0769  0.2739 -0.0158
25074W        W40883  11.134   9.051   0.589 -0.3332  0.0770  0.1349
25075W        W40884  16.200   1.336  12.841  0.2002  0.5264 -0.0485
25076W        W40885   0.916   8.357  14.596 -0.2220  0.3047  0.3765
25077W        W40886   0.959   3.806   1.375 -0.1152 -0.1719  0.5322
25078W        W40887   0.582   9.611   3.371 -0.0732 -0.1442 -0.0431
25079W        W40888   1.412  11.319   4.075 -0.2629 -0.2877  0.1953
25080W        W40889  18.185   8.222   3.638 -0.2479  0.1437 -0.0644
25081W        W40890   8.212  15.217  11.808  0.1083  0.0217 -0.0796
25082W        W40891   8.774   1.595  13.023  0.3624 -0.1467  0.0867
25083W        W40892  14.198  12.437  14.825  0.1605 -0.0112 -0.1619
25084W        W40893  17.962   6.849   4.371  0.3285  0.0425  0.0843
25085W        W40894  18.445   9.078  12.614  0.1083 -0.2156  0.3770
25086W        W40895   7.332  16.258  12.102  0.1933  0.0649 -0.0780
25087W        W40896  10.789  13.477   4.986 -0.1983 -0.3113  0.0715
25088W        W40897  10.250   6.244   2.966 -0.0660  0.2296  0.1079
25089W        W40898  18.695   3.209  14.047 -0.0060 -0.0931  0.1894
25090W        W40899   5.140   7.911  15.253 -0.1108  0.0563  0.0833
25091W        W40900   1.483   9.254   3.047 -0.0141  0.1562 -0.2100
25092W        W40901   9.616  11.293  10.918  0.1475 -0.0595  0.0516
25093W        W40902   5.185  10.796   2.276  0.1424  0.2654  0.0999
25094W        W40903  10.147  17.054   4.589  0.0186 -0.3144  0.1384
25095W        W40904   6.876  17.995  15.422 -0.2402 -0.0609 -0.0723
25096W        W40905   5.919  14.849   9.878 -0.2210 -0.1778  0.1357
25097W        W40906   1.292   1.370  15.265  0.0836  0.2806 -0.1799
25098W        W40907   1.895  15.506   4.930 -0.0230  0.1018  0.1313
25099W        W40908   2.055  18.092  11.602 -0.0074  0.4441  0.0156
25100W        W40909  10.562  15.166   0.671 -0.1080  0.2276 -0.3590
25101W        W40910  17.967   1.014  10.939 -0.0695  0.0183 -0.1019
25102W        W40911  11.189  18.640   5.106 -0.0354 -0.1266 -0.0698
25103W        W40912  18.489  12.755   3.554  0.0774  0.0102  0.1413
25104W        W40913  10.806   8.724   0.870 -0.3334  0.3871 -0.2423
25105W        W40914   1.593   8.522   5.376  0.1106 -0.0583  0.2212
25106W        W40915   2.803  14.909  10.351 -0.0685 -0.1046  0.0312
25107W        W40916  18.573  13.741   3.127 -0.1702  0.1840 -0.2868
25108W        W40917   4.574  17.943   4.070 -0.0626 -0.2912  0.0804
25109W        W40918   1.523   5.621   0.100  0.2367 -0.1632  0.1064
25110W        W40919  14.087   1.074  11.680  0.1158 -0.1566 -0.0111
25111W        W40920   3.666   9.909   3.282 -0.1839  0.1083  0.0354
25112W        W40921   5.961  11.887   3.888 -0.2384  0.0680 -0.5739
25113W        W40922  14.957  15.119   3.546 -0.0129 -0.0724 -0.0253
25114W        W40923  12.163   3.118   5.242  0.4559  0.1402 -0.5611
25115W        W40924  18.680   7.537  14.055  0.0290 -0.1514 -0.1307
25116W        W40925  10.617  14.025   5.261 -0.0653  0.3201 -0.2159
25117W        W40926  14.350   5.061   4.360  0.2758  0.0684 -0.1880
25118W        W40927   4.009   2.446   3.410  0.5132  0.1262  0.1037
25119W        W40928  11.910   1.558  13.481 -0.1019  0.0824  0.1312
25120W        W40929  13.893   0.934   0.600 -0.0974  0.1443  0.0120
25121W        W40930  16.393   7.644  10.252  0.1498 -0.2096 -0.0932
25122W        W40931   9.861   2.428  13.267  0.2149  0.2104  0.0688
25123W        W40932  13.046   1.202   2.074  0.4739  0.3187 -0.0254
25124W        W40933   7.363  17.808  11.913  0.1357  0.1289 -0.0396
25125W        W40934  17.817  18.607  12.593 -0.1772 -0.2701 -0.3865
25126W        W40935   9.539   9.569   1.136 -0.0296  0.3270 -0.2314
25127W        W40936   6.946   7.968   5.069  0.0651 -0.0969  0.1085
25128W        W40937   3.078  10.679   3.083  0.0443  0.0784 -0.1206
25129W        W40938   6.565  13.085  11.939  0.1389 -0.1671 -0.0474
25130W        W40939  16.773  14.484  11.007 -0.0479 -0.1499 -0.1077
25131W        W40940  18.652  10.270  13.222 -0.1592  0.1422 -0.0389
25132W        W40941   4.323   5.484  15.159  0.2728 -0.1071  0.0046
25133W        W40942   3.287  10.011   1.355  0.0784 -0.2521  0.0517
25134W        W40943  15.278  18.041  10.569  0.1873  0.0272  0.0606
25135W        W40944  12.259   1.985   1.398 -0.0369  0.1646 -0.1587
25136W        W40945  10.853   5.114   3.929 -0.1072  0.3364 -0.0051
25137W        W40946  17.081   5.039   0.425 -0.1246  0.0823 -0.1114
25138W        W40947  11.193   9.336  10.501 -0.0887 -0.3561  0.2203
25139W        W40948   4.901  16.797   0.280  0.0504 -0.1922  0.1518
25140W        W40949   3.646  14.815  15.181  0.0309 -0.2536 -0.3748
25141W        W40950  14.608   4.516  13.665 -0.0060 -0.0339 -0.2893
25142W        W40951  18.694  13.338   2.289 -0.0095  0.1265  0.1787
25143W        W40952   8.450   2.428   2.976  0.1231 -0.3765  0.1708
25144W        W40953  17.262  14.632  10.968  0.0729  0.1094 -0.0975
25145W        W40954  14.501   4.113   2.094 -0.0772 -0.0092 -0.0696
25146W        W40955   3.731   5.078  12.212 -0.1895  0.0581 -0.0509
25147W        W40956   8.287   1.679   9.916  0.3405 -0.3153 -0.1233
25148W        W40957   5.782  17.012   0.424  0.0312 -0.1187 -0.1038
25149W        W40958  12.343   9.489   3.443  0.1920 -0.1632 -0.0813
25150W        W40959   8.478   5.338  14.725  0.1074  0.0419 -0.2826
25151W        W40960   9.837  10.167   0.610  0.1986 -0.3557  0.0186
25152W        W40961   4.335  10.404  13.839 -0.1092 -0.0009  0.0696
25153W        W40962  17.236   6.908   2.302  0.1184  0.2532 -0.2315
25154W        W40963  12.882  11.681   4.328  0.0795 -0.0756 -0.3744
25155W        W40964  14.007  16.514  14.952  0.0877  0.2504 -0.4021
25156W        W40965  15.639   9.727  15.105  0.2589 -0.0146 -0.1628
25157W        W40966   6.378  18.635  10.554  0.1157 -0.1512  0.2720
25158W        W40967   9.997   2.818   3.859 -0.0217 -0.3863  0.2551
25159W        W40968   6.262  12.050  13.198  0.0500  0.0048  0.0386
25160W        W40969   4.820  11.817   1.380  0.1624  0.0490 -0.0497
25161W        W40970   8.505  11.971  10.464 -0.4730 -0.0624  0.1067
25162W        W40971   4.682  13.453   1.749  0.1505 -0.0730 -0.1693
25163W        W40972   6.821   3.317  15.399  0.2032  0.4420 -0.2240
25164W        W40973  16.316   7.984  14.772  0.2081  0.0117  0.3459
25165W        W40974  12.918  12.832  11.118 -0.2537 -0.2144 -0.1338
25166W        W40975  15.094   9.556  11.197 -0.0296  0.1549 -0.0070
25167W        W40976   3.577   4.785  11.795 -0.1454 -0.1780  0.0443
25168W        W40977   0.266   6.739  12.626 -0.0258 -0.0123 -0.1462
25169W        W40978  10.229  14.711   1.915 -0.2327 -0.0646 -0.1804
25170W        W40979   4.785  10.846   1.954  0.0681  0.2308  0.0521
25171W        W40980   5.947  11.474  11.264  0.1435  0.1103 -0.1236
25172W        W40981   2.221   8.450  14.822 -0.1929 -0.1130 -0.3336
25173W        W40982   3.453  17.858  15.103  0.0004 -0.0646  0.0932
25174W        W40983   2.843   8.172   1.401  0.0544  0.0267  0.0319
25175W        W40984  14.671   8.433   3.880 -0.1526 -0.2053  0.1216
25176W        W40985  10.490   3.543  10.926 -0.0693  0.0320  0.1390
25177W        W40986   5.814  18.327  12.679  0.2003  0.0141  0.0301
25178W        W40987   1.076   2.778   0.475 -0.0749 -0.2271  0.0401
25179W        W40988  13.638   3.137  13.477 -0.1258  0.1175  0.3245
25180W        W40989   7.116   3.379   5.131 -0.1133 -0.2451 -0.0976
25181W        W40990  17.211   3.695  14.616  0.2405  0.1064  0.2218
25182W        W40991   4.141  12.232  11.405  0.2221  0.0225  0.0798
25183W        W40992  18.148  15.087   4.801  0.3127  0.0229 -0.2107
25184W        W40993  11.192   9.431  13.565  0.2516  0.1455 -0.0555
25185W        W40994   2.765  12.838  13.297 -0.2086 -0.2611 -0.2911
25186W        W40995   6.426  11.187   3.832  0.0776  0.1085 -0.0488
25187W        W40996   8.101  18.765   0.821 -0.1812 -0.1547  0.0216
25188W        W40997   1.800   7.469   3.050 -0.0875  0.2547 -0.4654
25189W        W40998   9.387  17.135  11.427 -0.1885  0.1015  0.1811
25190W        W40999   8.564  11.447   4.471 -0.0089 -0.1497 -0.0733
25191W        W41000   1.454  12.327  11.651 -0.0551  0.2017 -0.2105
25192W        W41001   8.610  13.836   4.511 -0.1419  0.3455 -0.0515
25193W        W41002   1.864  15.173  11.715 -0.0036 -0.1278  0.1244
25194W        W41003   8.736   7.720   0.982  0.2443  0.1373  0.2068
25195W        W41004   0.560  12.408  14.550  0.0078 -0.2671  0.1135
25196W        W41005  10.977   5.262  12.159 -0.0584 -0.0447  0.0037
25197W        W41006  14.862  11.329  15.523  0.0475 -0.0094  0.2219
25198W        W41007   9.018   7.084  11.817  0.2164  0.3183 -0.0909
25199W        W41008   0.318  16.289  14.724 -0.2542  0.0664 -0.0586
25200W        W41009   3.477   2.735  13.655 -0.0316 -0.2259 -0.2025
25201W        W41010  15.305  13.583  12.215 -0.2165 -0.2061  0.1317
25202W        W41011   0.827  16.877   3.502 -0.2403 -0.3141  0.2716
25203W        W41012  18.231   7.921  13.025  0.0574 -0.2885  0.0194
25204W        W41013   5.264   9.692  13.863  0.2272 -0.0047  0.3652
25205W        W41014  18.068  15.523  13.343 -0.0652 -0.2553 -0.1437
25206W        W41015   4.197   9.062   1.817  0.1226 -0.0539  0.0492
25207W        W41016   8.845   4.869   5.001 -0.1942 -0.3200  0.2650
25208W        W41017   9.862   7.622   3.911 -0.2467 -0.1417 -0.0086
25209W        W41018   8.545   6.251  12.258 -0.0746  0.1427 -0.1091
25210W        W41019  12.837   2.926   3.608  0.0980 -0.4107 -0.0478
25211W        W41020  16.385   0.812   1.019  0.2452 -0.1030  0.0694
25212W        W41021   1.722  15.529  14.801 -0.0049 -0.2912  0.0020
25213W        W41022  11.859   2.994  14.863 -0.0805  0.2232  0.2062
25214W        W41023  10.109   2.670  15.031  0.1618  0.1219 -0.0422
25215W        W41024  11.195   7.364  14.199  0.2147 -0.1356  0.0940
25216W        W41025   2.374  16.272  12.813 -0.2313  0.0506  0.2854
25217W        W41026   9.952  17.789   3.340  0.2462  0.0203 -0.0964
25218W        W41027  13.955  10.656   5.063  0.2107  0.0838  0.0871
25219W        W41028   4.157  12.683   2.055  0.1900  0.1405  0.2740
25220W        W41029   9.549   1.589   0.923  0.0558  0.0478  0.2817
25221W        W41030   2.440  15.856  11.783  0.0414  0.0528 -0.1032
25222W        W41031  16.449   4.359  14.453  0.2594 -0.1081  0.1754
25223W        W41032  10.883   4.585  14.346  0.1127  0.3741 -0.0794
25224W        W41033  11.584  17.944  12.564  0.4137  0.0878  0.1664
25225W        W41034   6.236   2.377  11.556 -0.2423 -0.1545  0.0779
25226W        W41035  17.275   4.166  11.744 -0.0492  0.0239 -0.0450
25227W        W41036  13.693   2.553   0.312  0.1279  0.2556  0.3220
25228W        W41037   3.725  10.443  12.381  0.0461  0.0521 -0.1421
25229W        W41038   9.845   2.681   5.692  0.2218  0.2152  0.0279
25230W        W41039   2.693  16.501  14.147  0.2096  0.1332  0.2447
25231W        W41040  17.947   0.397  12.417 -0.3088 -0.0283 -0.0596
25232W        W41041   3.604  16.860   4.624  0.1057  0.2351 -0.1914
25233W        W41042  11.039  17.133  11.942 -0.0721 -0.2307 -0.0608
25234W        W41043  10.962  10.677  14.321 -0.3577 -0.2048  0.3921
25235W        W41044  16.793  12.412   4.255  0.2590  0.0840 -0.0943
25236W        W41045   1.302   2.200  14.845 -0.1207  0.1647 -0.2136
25237W        W41046   5.062   6.694  13.751  0.1131  0.0497 -0.2684
25238W        W41047   1.929   3.993  12.546  0.3472  0.0068 -0.1748
25239W        W41048  13.204  13.293  13.696 -0.0374  0.1117 -0.2796
25240W        W41049   4.160  12.764   0.017  0.0066 -0.0055  0.0146
25241W        W41050  11.439  18.010   0.325  0.2478  0.3055 -0.0608
25242W        W41051   4.353  18.074  14.569 -0.3366 -0.3248 -0.0007
25243W        W41052   9.910   6.415   3.728  0.0445 -0.0772  0.0327
25244W        W41053  14.286   9.547   5.401 -0.1122  0.0378  0.1670
25245W        W41054   3.584   5.569  11.222 -0.0509 -0.0857  0.0341
25246W        W41055  10.826   3.874   1.066 -0.0100 -0.0037 -0.2347
25247W        W41056  16.035  12.902   5.239 -0.1850 -0.0592  0.0359
25248W        W41057   2.835  10.294   2.806 -0.0412 -0.2621  0.0351
25249W        W41058   7.050  14.721   1.389  0.0842 -0.0687  0.1628
25250W        W41059   5.955  14.691  15.266 -0.0559 -0.1947  0.1602
25251W        W41060   9.779   1.258   2.616  0.2134 -0.1144  0.1558
25252W        W41061   0.265  13.342  13.493  0.1417  0.3874  0.2169
25253W        W41062   3.046   1.267   0.598  0.2919 -0.0060  0.0789
25254W        W41063   7.075   3.737  11.155  0.4676 -0.4280  0.1539
25255W        W41064  14.093  12.558   4.902 -0.1335 -0.5265 -0.4159
25256W        W41065  11.516  14.422   4.098 -0.0854  0.4609 -0.0694
25257W        W41066  11.029   5.352   3.433  0.0717 -0.0805 -0.2336
25258W        W41067  15.045   4.282  13.572  0.1980 -0.1115  0.0321
25259W        W41068   3.485   6.590  13.700 -0.0433  0.0046  0.0975
25260W        W41069  14.386   8.774  10.415  0.3701  0.1326 -0.0716
25261W        W41070   1.908  13.513  14.300  0.2167  0.2937 -0.3063
25262W        W41071   9.727  16.306  13.383  0.0096  0.3405  0.3397
25263W        W41072  10.999  17.699   3.123 -0.2548 -0.0497 -0.2802
25264W        W41073   8.449   3.571   5.751  0.3150  0.0401 -0.2280
25265W        W41074   3.784   0.027   0.961 -0.0262 -0.0772 -0.0445
25266W        W41075  17.734  15.427   4.730 -0.4766 -0.1072  0.0572
25267W        W41076   8.873  17.289  13.903  0.4853 -0.1848  0.4233
25268W        W41077   3.675  10.757  14.341 -0.2861  0.1957 -0.1265
25269W        W41078  11.812  11.874  11.367 -0.3231  0.2216 -0.2518
25270W        W41079  14.075  13.694   2.227 -0.0792 -0.3927 -0.3052
25271W        W41080  10.176  11.284   5.341  0.0899 -0.0241  0.0814
25272W        W41081  13.740  17.841   4.971 -0.0555  0.0196 -0.1618
25273W        W41082   9.146   2.891   1.773 -0.1645  0.2553 -0.0219
25274W        W41083  10.542  14.637   3.813 -0.3307 -0.1190  0.2454
25275W        W41084   3.595  11.308   2.599 -0.1324 -0.2294 -0.0030
25276W        W41085  13.820  12.021  11.720 -0.1413  0.4262 -0.1981
25277W        W41086  12.574   9.228  12.312  0.0299  0.1731 -0.0414
25278W        W41087   6.316  14.822  14.728  0.0727  0.1229  0.0210
25279W        W41088  13.538   5.465  14.683  0.0451 -0.2145 -0.1394
25280W        W41089   4.264  15.999   3.929  0.1463  0.2989 -0.2097
25281W        W41090   9.318   1.803   4.275  0.1610 -0.0736  0.1824
25282W        W41091  18.564  13.900  10.500 -0.1184  0.0656 -0.1368
25283W        W41092   9.453   4.088  11.413  0.0692 -0.0213  0.3250
25284W        W41093  16.438   6.818  14.794 -0.1424  0.3028 -0.1758
25285W        W41094  10.590  17.362   1.783 -0.2252 -0.0798  0.0428
25286W        W41095   8.981   3.365   0.106 -0.3014 -0.0668  0.0995
25287W        W41096   0.395  10.167   1.176  0.0864  0.1712 -0.0866
25288W        W41097   5.788  10.993   1.341 -0.0405 -0.4044 -0.0831
25289W        W41098  11.652  11.699  14.016 -0.1734  0.0771 -0.2257
25290W        W41099   3.307  13.455   0.572 -0.0403  0.2079 -0.2212
25291W        W41100  10.332   0.464  13.173 -0.0884 -0.2947 -0.1439
25292W        W41101   8.412   3.494  10.764  0.2790  0.1145 -0.2110
25293W        W41102   2.515   3.160  12.651 -0.0706  0.1752  0.0177
25294W        W41103  10.990   2.318   3.025 -0.0770  0.1037 -0.3132
25295W        W41104  11.460  18.568   4.665  0.2565  0.0352  0.0492
25296W        W41105  17.711   8.257   3.564  0.1167 -0.1317  0.3353
25297W        W41106  16.137   8.602   5.073  0.1687 -0.1675 -0.0972
25298W        W41107   9.219   7.605  14.790 -0.3254  0.2175  0.2413
25299W        W41108  15.313   5.717   3.105 -0.0743  0.0772  0.1747
25300W        W41109   9.774   4.362  12.849  0.1057 -0.0025 -0.1546
25301W        W41110  12.814   2.134  13.332 -0.2807  0.0073  0.1469
25302W        W41111  15.955   6.312   9.972 -0.0709  0.0321 -0.0825
25303W        W41112  12.836   8.306  12.945 -0.0875  0.0021 -0.0950
25304W        W41113   5.636  10.531   9.604  0.2103 -0.0867 -0.0102
25305W        W41114  16.142   9.236  14.859  0.1013  0.0891 -0.2146
25306W        W41115  16.074  15.029   0.169 -0.2038  0.0919 -0.0577
25307W        W41116  16.777  12.950   1.857 -0.4019 -0.1119  0.0082
25308W        W41117  15.443   6.788   1.006  0.0677  0.0643 -0.3035
25309W        W41118   3.496   2.718   4.346 -0.1541  0.4647 -0.0080
25310W        W41119   4.360   3.149   1.029 -0.1921  0.3302  0.2112
25311W        W41120   9.332   4.695   1.503  0.1111 -0.1136 -0.0568
25312W        W41121  18.081   8.950  10.806 -0.1029 -0.1744 -0.0920
25313W        W41122  18.159   1.246   3.248 -0.1586 -0.1260 -0.0945
25314W        W41123  18.766  14.909   1.049 -0.0227 -0.3535 -0.1258
25315W        W41124   4.804   1.504   2.171 -0.1947  0.2623  0.3039
25316W        W41125   4.795  13.743   3.941 -0.1627 -0.0147 -0.1820
25317W        W41126   1.177  12.064   3.232 -0.0186  0.3706  0.1403
25318W        W41127  17.782  16.454  14.921  0.1795 -0.1449 -0.0576
25319W        W41128  16.840  17.367  13.654 -0.2746 -0.0497 -0.3152
25320W        W41129   4.374   2.582   3.890 -0.0248  0.1021  0.1746
25321W        W41130   6.597  15.409   0.116 -0.1154  0.0406  0.1970
25322W        W41131  12.433   9.191  15.105  0.0609  0.1073  0.0446
25323W        W41132  11.446   7.821  14.311 -0.1967 -0.0976  0.0049
25324W        W41133   0.948  16.079  14.838  0.1115  0.1145  0.0432
25325W        W41134   4.868  13.820  11.488 -0.2574 -0.0229 -0.3700
25326W        W41135   7.290   8.435   2.718  0.1553  0.0968 -0.2744
25327W        W41136   9.616   1.531  11.225 -0.2945  0.1733  0.1067
25328W        W41137  10.841   0.835   1.494  0.0714  0.1524 -0.0894
25329W        W41138  12.717  10.065   9.772 -0.1434  0.2336  0.0297
25330W        W41139   3.975  12.714  11.603  0.1668  0.3583 -0.0077
25331W        W41140  10.956  16.731  12.693 -0.3535 -0.3838 -0.1035
25332W        W41141   2.407  12.559  10.978 -0.2299 -0.0928 -0.0798
25333W        W41142  13.527   6.484  15.369 -0.2119  0.1248 -0.2853
25334W        W41143  14.643  10.861  13.400 -0.1573  0.3834  0.1222
25335W        W41144  14.163   7.671   4.403 -0.2104 -0.1226  0.0154
25336W        W41145  11.700   2.446   0.078 -0.2740 -0.1148  0.1105
25337W        W41146   9.367  13.283   0.840 -0.1560  0.0379 -0.1382
25338W        W41147   3.645   6.917  10.946  0.0500 -0.0100  0.2314
25339W        W41148  10.895   1.119  14.702 -0.2428  0.1463 -0.4316
25340W        W41149   6.823   5.479   4.788 -0.0455  0.0986 -0.0732
25341W        W41150   3.822  13.799   5.135 -0.0484 -0.0704  0.3727
25342W        W41151  14.009   3.817   3.012 -0.0909  0.0301  0.0447
25343W        W41152  10.164   7.893   1.291 -0.1889  0.0733  0.0257
25344W        W41153   0.430   4.355   3.874  0.1620 -0.1285  0.2598
25345W        W41154  12.466  12.669  13.829 -0.1900  0.2865 -0.0339
25346W        W41155  12.166  14.358   1.753  0.0041 -0.1011 -0.2536
25347W        W41156   7.619  10.242   1.514  0.0084  0.1210  0.1836
25348W        W41157  12.777   5.699   5.178 -0.1370  0.1012 -0.2707
25349W        W41158  16.451  16.822   3.047 -0.2644  0.2133  0.2298
25350W        W41159  10.008  13.674   1.804  0.1774  0.1240  0.2488
25351W        W41160   6.880   3.216  13.980 -0.0471  0.0973  0.1478
25352W        W41161   7.988   6.768  11.062 -0.0714 -0.2405  0.2532
25353W        W41162  17.068   5.867   9.691 -0.1395 -0.1524  0.0987
25354W        W41163   7.992  12.058   3.257 -0.0081  0.0671  0.2323
25355W        W41164  11.661  15.768   5.467 -0.1906 -0.3050  0.0770
25356W        W41165   0.753   2.524   0.034  0.1532  0.0652 -0.0341
25357W        W41166  13.274  11.325   4.266 -0.1798  0.1510  0.1922
25358W        W41167   9.958   1.695   2.502 -0.1968  0.1448 -0.2394
25359W        W41168   5.690   8.809   3.702  0.1641 -0.2220 -0.0285
25360W        W41169  11.497  16.291   0.487 -0.4428  0.0138 -0.0178
25361W        W41170   0.083  14.292  13.277 -0.0506 -0.1759  0.0753
25362W        W41171   0.628   2.133   1.521  0.0524 -0.1642 -0.1292
25363W        W41172  10.972  15.577  14.219  0.0543  0.0697  0.1698
25364W        W41173   6.797   0.475   3.245  0.0560  0.1571 -0.3785
25365W        W41174  12.269   4.932   2.778  0.0793  0.1709 -0.3152
25366W        W41175  10.687  12.769   0.015 -0.2210  0.4234  0.0096
25367W        W41176   2.545   3.268   0.286  0.1456  0.0513 -0.1428
25368W        W41177   3.120   0.439  11.960  0.1716 -0.0099 -0.1798
25369W        W41178   9.395   0.436  13.445 -0.5095  0.0948 -0.0356
25370W        W41179  11.243  13.937  13.417 -0.0266 -0.2072  0.3301
25371W        W41180   4.651   2.390   0.868 -0.1236 -0.1874  0.0924
25372W        W41181  13.481   1.198   5.117  0.2559  0.1366  0.1925
25373W        W41182  16.568  12.684   2.863 -0.1281 -0.2962  0.0225
25374W        W41183  12.379  11.922   1.966  0.3417 -0.1243  0.1390
25375W        W41184  12.701   5.163  10.651 -0.1460 -0.2172 -0.0717
25376W        W41185   7.459  13.981  11.883  0.1117 -0.0015 -0.2761
25377W        W41186   7.418  11.508  14.852  0.0485 -0.0472 -0.1832
25378W        W41187   1.257  15.292  11.975 -0.1800 -0.2158 -0.0799
25379W        W41188   3.304  16.000   4.948 -0.0896 -0.0823  0.2259
25380W        W41189  10.714  11.280   5.446  0.2522 -0.4339  0.1536
25381W        W41190   7.933  16.625   2.826  0.2846  0.1005  0.1246
25382W        W41191  12.617   9.164   9.621  0.2470  0.4486  0.0753
25383W        W41192  13.389   0.951   6.053 -0.1217  0.0700  0.1953
25384W        W41193  16.021  14.766  14.335  0.1128  0.0070  0.2106
25385W        W41194   0.528   9.505  11.258 -0.0353 -0.1084  0.2058
25386W        W41195   4.069   1.667  14.344 -0.2612 -0.1399  0.1807
25387W        W41196  13.165   6.391   2.518  0.1484 -0.0607 -0.2488
25388W        W41197  13.481   9.254   3.414 -0.2887  0.3365  0.1511
25389W        W41198  18.644  16.705   1.563 -0.1570  0.1520  0.0669
25390W        W41199   8.359   4.394   4.768 -0.0049 -0.0462 -0.2234
25391W        W41200   2.532   1.374   0.507  0.0825 -0.1241 -0.1206
25392W        W41201   9.747   2.594  15.393  0.1711 -0.2172  0.0713
25393W        W41202  12.212  13.616   5.070  0.2360 -0.2980  0.1335
25394W        W41203  18.331   8.327   1.569  0.0920  0.0025  0.0189
25395W        W41204  10.209  17.342   3.087  0.5380  0.1274  0.2913
25396W        W41205   1.421  12.018  15.266  0.1535  0.1882  0.0170
25397W        W41206   6.289  10.767  12.933 -0.2209  0.0544 -0.0546
25398W        W41207   7.236   0.338   4.550 -0.3050  0.1759  0.1129
25399W        W41208   4.972  13.011   1.064 -0.2793  0.2070 -0.0352
25400W        W41209  15.251   7.724   0.599  0.0268  0.0351 -0.2531
25401W        W41210  17.758  14.412  14.926 -0.0942 -0.0509  0.1631
25402W        W41211  10.481   1.017   5.089 -0.0200 -0.1585  0.2047
25403W        W41212   6.238  16.963  14.475  0.1117  0.1552  0.2261
25404W        W41213   0.343   0.744  13.093 -0.0607 -0.3697 -0.2673
25405W        W41214   7.488  11.348   4.466 -0.0468 -0.1403 -0.1850
25406W        W41215  15.584   6.062  12.328 -0.2573  0.0776  0.1304
25407W        W41216  18.459  18.107  10.165 -0.0057 -0.0394  0.1885
25408W        W41217  11.065   9.763   1.150 -0.1237  0.0426  0.2522
25409W        W41218   0.284   8.987   0.293  0.2220  0.0672 -0.0162
25410W        W41219  16.322  12.126  11.623 -0.2838 -0.3471 -0.0773
25411W        W41220   9.101   2.336  13.350  0.1329  0.0039 -0.3766
25412W        W41221  11.260   9.809  13.827  0.3407 -0.2514 -0.2778
25413W        W41222  13.194   2.029   3.481  0.2871  0.1486  0.1195
25414W        W41223  10.319  16.205   2.800 -0.1215 -0.2434  0.0206
25415W        W41224  17.910  12.650   4.707  0.0818 -0.0910  0.3037
25416W        W41225  18.271  11.810   2.576  0.1687 -0.1337 -0.3771
25417W        W41226   4.144   2.855  10.155  0.1985 -0.3193  0.3083
25418W        W41227   5.349  17.091  12.045  0.0125  0.1851  0.0481
25419W        W41228   3.709  14.520   2.237  0.0691  0.0135 -0.2034
25420W        W41229  12.566  13.733  12.575  0.0568  0.2683  0.2219
25421W        W41230  10.969   2.873   2.931 -0.1643  0.2434 -0.2848
25422W        W41231   3.240   0.860   4.148  0.2834  0.0721  0.3729
25423W        W41232   6.385  11.333   5.164 -0.3162  0.5307  0.3007
25424W        W41233  13.411   8.199  14.654  0.0619  0.2541 -0.1525
25425W        W41234  14.216   8.129   0.043  0.1644 -0.1578  0.2027
25426W        W41235  15.063   1.854  11.431 -0.1120 -0.0685  0.1846
25427W        W41236   2.785   5.278  13.832 -0.1326  0.0677 -0.2762
25428W        W41237  11.793   6.829  12.140  0.0398 -0.2278  0.1577
25429W        W41238  13.094  12.835  15.072  0.1014 -0.2767  0.1543
25430W        W41239  15.525  11.107   4.773 -0.1342  0.0898  0.4104
25431W        W41240  16.496  18.680   1.102 -0.3443  0.0098  0.1362
25432W        W41241  14.385  12.327   3.818 -0.2676  0.3701 -0.2180
25433W        W41242  10.027   5.588  11.064  0.0188 -0.0619 -0.1290
25434W        W41243  15.681   9.561   1.920  0.1616  0.1492  0.0366
25435W        W41244   4.865   5.982   4.971  0.0883 -0.4567  0.2403
25436W        W41245   5.273  16.065  13.184  0.1290 -0.0136 -0.2900
25437W        W41246  17.312   8.725   2.131 -0.2319 -0.2473  0.0381
25438W        W41247  13.287  16.079  13.477  0.0713  0.0767 -0.1817
25439W        W41248   2.878  11.982   4.452  0.0475 -0.0519  0.1336
25440W        W41249   9.029  17.635  15.205 -0.2511 -0.2513  0.1130
25441W        W41250  13.011  12.520  11.565  0.0408  0.0128 -0.0058
25442W        W41251   5.310  10.920   1.156 -0.2746 -0.2297  0.0777
25443W        W41252   1.567  16.552   4.433 -0.0029  0.0735  0.1162
25444W        W41253  17.371  11.372   1.583  0.0385  0.1020 -0.3245
25445W        W41254  13.294  18.438  15.460  0.1076  0.2292 -0.1083
25446W        W41255   9.829   0.077  14.302  0.0203  0.1606  0.0184
25447W        W41256   7.483   7.350   2.915 -0.0064 -0.2045  0.2117
25448W        W41257  16.477   5.379   3.107 -0.4023 -0.0945  0.2526
25449W        W41258  10.237  10.656   0.405 -0.0903  0.2008 -0.0952
25450W        W41259   5.109  14.790  13.370 -0.1747 -0.0835  0.1462
25451W        W41260   7.436  12.453  15.353  0.0508  0.1236 -0.2674
25452W        W41261   3.439   3.938   1.747 -0.0193  0.2096 -0.0648
25453W        W41262   6.008  11.285  13.527 -0.2102 -0.1369  0.1718
25454W        W41263  12.927   1.090   3.395  0.0177  0.1196 -0.2148
25455W        W41264   8.080  10.368  15.179 -0.0950 -0.0441  0.3118
25456W        W41265   1.810   9.895  13.955  0.1321 -0.0718 -0.1845
25457W        W41266   1.538  14.911   3.434  0.2715  0.3504  0.1212
25458W        W41267  18.041   2.090  14.261  0.0208  0.1963 -0.0745
25459W        W41268   7.768  12.653  13.107  0.0119  0.1648 -0.1570
25460W        W41269   3.584  14.434   3.762  0.0822  0.1167 -0.0191
25461W        W41270   8.228   1.984   4.549  0.0480  0.4909 -0.0788
25462W        W41271  17.668  10.251   4.024  0.2236  0.0344 -0.2558
25463W        W41272  16.524   8.884  13.026  0.2383  0.1106 -0.2805
25464W        W41273   7.190  10.278  13.698 -0.1027 -0.0402 -0.3852
25465W        W41274   8.221   4.759  12.123 -0.3926  0.0465 -0.0503
25466W        W41275  16.236  16.804  10.476  0.1767 -0.3002 -0.1594
25467W        W41276  17.046  16.487   0.761  0.3455  0.0042  0.0576
25468W        W41277  12.802  18.268   5.244  0.1828  0.2124  0.1291
25469W        W41278  12.520  15.606   2.111  0.0009  0.2316 -0.1497
25470W        W41279  13.738   5.031   3.779 -0.0417  0.1422 -0.0998
25471W        W41280  13.006   9.646   1.233  0.0726  0.1717  0.0620
25472W        W41281   4.901  12.061  12.713 -0.0866  0.0127 -0.0541
25473W        W41282  17.727  16.580   1.266 -0.0268 -0.0529  0.0880
25474W        W41283  17.688   7.340   1.978 -0.2192 -0.0374  0.0437
25475W        W41284   9.741  14.293  11.133 -0.0125 -0.2904  0.1028
25476W        W41285  10.205  18.105  13.054 -0.1346 -0.0209  0.0648
25477W        W41286  15.370   6.416   4.721  0.0615 -0.0004  0.1979
25478W        W41287   1.332   4.619   3.149  0.1473 -0.2782 -0.1323
25479W        W41288   9.102   1.843  14.366  0.2152  0.0377 -0.0276
25480W        W41289   6.707   0.449  15.148 -0.0521 -0.1254  0.1813
25481W        W41290  14.393  12.774   4.514  0.2955  0.0983 -0.1275
25482W        W41291  12.277  13.488   2.628  0.0613 -0.0788 -0.1199
25483W        W41292   0.849   3.833  12.625  0.2347  0.2071  0.2712
25484W        W41293   7.632   7.520  15.006  0.2529 -0.0409 -0.1619
25485W        W41294  12.492   9.326  14.305 -0.3367  0.1771  0.0223
25486W        W41295  12.784  11.368  13.357  0.0206  0.1451 -0.1070
25487W        W41296   6.711   5.267  13.566  0.1459 -0.1137  0.3206
25488W        W41297   5.780  16.033   0.455  0.0166  0.0039 -0.1663
25489W        W41298   8.207  17.766  14.867 -0.1308 -0.3254 -0.1071
25490W        W41299  15.045   6.139   2.981 -0.0313 -0.0952  0.0030
25491W        W41300  10.217   0.511  13.807  0.0577  0.0414 -0.0165
25492W        W41301  15.449   1.584  13.261  0.2498  0.0812  0.3093
25493W        W41302  14.048   8.862  15.263 -0.0716 -0.1361 -0.0394
25494W        W41303   9.742   3.854  15.184  0.0927  0.1489 -0.1309
25495W        W41304   9.519   2.560   3.728  0.0788 -0.3099 -0.3994
25496W        W41305   8.438   3.583   0.751  0.1138 -0.2411 -0.0352
25497W        W41306   9.797  14.432  12.653 -0.2395 -0.2839 -0.0381
25498W        W41307   2.513  16.210  11.033 -0.1659 -0.0225 -0.1439
25499W        W41308   5.465  12.330   1.564 -0.2257 -0.0397 -0.3037
25500W        W41309   9.949   7.690  12.540 -0.1425  0.4003  0.0768
25501W        W41310   5.423   4.586   1.693 -0.1384  0.0354  0.0963
25502W        W41311  14.170   2.015   4.563 -0.3387 -0.1249  0.2655
25503W        W41312  10.241   3.673   3.730  0.0079  0.1356 -0.0305
25504W        W41313  10.156   8.219  12.296  0.0293 -0.0553  0.2716
25505W        W41314  18.694   0.911  13.971  0.0961 -0.1076 -0.0649
25506W        W41315   1.831  13.229   4.830  0.1968  0.1724  0.2257
25507W        W41316   9.302  15.162  13.364  0.0182 -0.1492 -0.2287
25508W        W41317   0.345  15.866   2.587  0.3362 -0.0684  0.0614
25509W        W41318   1.127  13.273   4.662  0.0969  0.1264 -0.0060
25510W        W41319   7.447  14.121   3.679 -0.1435 -0.4569  0.4707
25511W        W41320   9.506  13.114   4.515 -0.1773 -0.0852  0.2818
25512W        W41321  16.662   1.241  14.779  0.0315 -0.0697  0.0182
25513W        W41322   1.307   4.720  11.737  0.0618  0.1781  0.4037
25514W        W41323   2.194   8.143  11.307 -0.2343 -0.4128 -0.5446
25515W        W41324   8.002   8.006   4.408  0.1524 -0.0034  0.0880
25516W        W41325  11.956  15.964   4.426 -0.2906 -0.0667  0.1544
25517W        W41326   7.929  16.641   3.708  0.1693 -0.0947 -0.1408
25518W        W41327  15.221   4.620   2.597 -0.1859 -0.1965  0.0549
25519W        W41328   3.878   0.877   4.547  0.0782 -0.2122 -0.3118
25520W        W41329   3.714  14.549   4.853  0.0644  0.0492  0.3957
25521W        W41330  18.577  13.969  14.262  0.0477 -0.1031  0.0409
25522W        W41331   3.676   6.508   1.969 -0.0394  0.0679 -0.1185
25523W        W41332  18.765  12.861  11.108  0.1945  0.0048 -0.0652
25524W        W41333  17.895   6.988  14.655 -0.1788 -0.2178 -0.3717
25525W        W41334   7.889   3.807  14.383  0.2366 -0.1293  0.0470
25526W        W41335  18.603  11.378  12.934 -0.1218 -0.4139 -0.1074
25527W        W41336   8.264   7.722   0.875  0.0355 -0.0386  0.1670
25528W        W41337  13.216  14.447  12.058 -0.1816 -0.1318  0.0357
25529W        W41338  10.189  17.208  11.592 -0.0036  0.1861 -0.0384
25530W        W41339   5.843   3.991   5.584 -0.4300  0.2781 -0.1974
25531W        W41340   5.898  12.710   3.261  0.1145  0.1015  0.2427
25532W        W41341   6.039  18.027   2.455  0.1824  0.0706  0.0896
25533W        W41342  17.308  10.361   4.923 -0.0817 -0.1497 -0.1697
25534W        W41343   0.808  14.416   5.110 -0.1022  0.1310 -0.0438
25535W        W41344   1.476  13.882  11.266  0.2327  0.1007  0.0483
25536W        W41345   2.328  12.178   2.896  0.2380 -0.0209  0.1837
25537W        W41346   7.725  11.899  14.997  0.0477 -0.1075  0.1037
25538W        W41347  12.224   9.478   2.960 -0.1118 -0.2308  0.0977
25539W        W41348  14.435  12.816  12.516  0.0333 -0.0216  0.0739
25540W        W41349   1.823  16.742  10.437  0.2683 -0.2541  0.0039
25541W        W41350  12.885  12.535  12.252 -0.2677 -0.0394  0.1786
25542W        W41351  18.400  14.229   0.619 -0.1733 -0.0782  0.0875
25543W        W41352   4.143  14.811  12.359  0.3369 -0.1370 -0.0979
25544W        W41353   2.099  12.523  12.717 -0.3334 -0.0877 -0.1165
25545W        W41354   7.432   6.509   3.312 -0.0025  0.0548  0.2405
25546W        W41355   7.359   7.858   3.737  0.0682  0.2019 -0.0734
25547W        W41356  14.211  11.721  10.851 -0.1185  0.2104  0.2637
25548W        W41357   8.648   2.110  13.730  0.2269  0.1002  0.4401
25549W        W41358  18.607   5.171  13.165  0.2101  0.0313  0.2196
25550W        W41359   2.217  12.394   4.443 -0.0393  0.2442  0.1317
25551W        W41360  11.140  12.417   0.577 -0.1151  0.1956  0.1213
25552W        W41361   0.549   7.610   4.417  0.0151  0.1579 -0.1253
25553W        W41362  13.670  10.062  13.591 -0.4396  0.1660  0.2025
25554W        W41363  10.368   4.148  13.806  0.3034  0.1827  0.1940
25555W        W41364  17.081   8.869   4.086  0.5116 -0.1056 -0.3976
25556W        W41365  15.377  14.150   5.605  0.0468  0.1059  0.0266
25557W        W41366   9.840  11.297  14.402 -0.1457 -0.2348  0.1071
25558W        W41367  18.094   7.719  13.477 -0.2264 -0.3139  0.1671
25559W        W41368   9.441  14.532   0.813 -0.2698  0.1991 -0.0713
25560W        W41369   7.784   2.443  13.722 -0.0540  0.1157 -0.3423
25561W        W41370  18.542   0.447  13.793 -0.5633 -0.0958 -0.1608
25562W        W41371  17.163   3.206  13.233 -0.1683  0.0685 -0.2483
25563W        W41372   3.615  16.258   4.521 -0.2514  0.0673  0.1684
25564W        W41373  18.662  15.422   1.346 -0.1535 -0.2635 -0.0664
25565W        W41374  17.469  15.744   2.882  0.0075 -0.2332 -0.2348
25566W        W41375  14.075   9.412   0.637  0.2224 -0.0925  0.1588
25567W        W41376   4.541   8.778   0.792  0.0238  0.0921  0.1353
25568W        W41377   2.739  17.589  13.208  0.1725 -0.1878 -0.2991
25569W        W41378   1.196  14.148   5.334 -0.0919  0.0494  0.0905
25570W        W41379  12.621  17.441   3.460 -0.0545  0.2634 -0.2582
25571W        W41380   5.072   0.406   0.828 -0.1236 -0.1025 -0.3553
25572W        W41381   7.659  12.748  12.245 -0.1277 -0.2931  0.0787
25573W        W41382   9.613  15.622  13.604  0.0116 -0.1843 -0.1790
25574W        W41383  18.182  18.271   0.148  0.1545 -0.2039  0.0316
25575W        W41384  12.559  13.760  11.502 -0.1950 -0.1447 -0.1589
25576W        W41385  15.902  15.708  13.566  0.2236  0.0418  0.0258
25577W        W41386   4.418  14.303   1.989  0.0670  0.1329 -0.0017
25578W        W41387   0.521   0.248  13.076  0.1162  0.0495 -0.3038
25579W        W41388  18.476  18.501  14.973 -0.0855 -0.3766 -0.1833
25580W        W41389   7.162   3.118   3.827  0.3870 -0.1717  0.0387
25581W        W41390   7.580  17.757   2.044 -0.0594 -0.1376 -0.1244
25582W        W41391  10.135   1.272   4.011  0.1442 -0.1146  0.2943
25583W        W41392   8.394   7.117   2.547  0.0555  0.2050  0.2336
25584W        W41393   8.363  14.775  10.516  0.0379 -0.1068  0.0459
25585W        W41394  10.522   3.173  11.480  0.1650  0.1655  0.4565
25586W        W41395   7.583  16.870   2.574  0.0298 -0.1545  0.1844
25587W        W41396  17.902  13.282  13.197 -0.1345 -0.2395 -0.0094
25588W        W41397   9.675  15.312  11.955  0.3241  0.2839  0.0357
25589W        W41398   1.178   3.196   3.516 -0.0479 -0.4060 -0.1106
25590W        W41399  13.501   2.928  13.888 -0.0146  0.0371 -0.1259
25591W        W41400   8.728  17.239  11.876 -0.2550 -0.1205  0.1004
25592W        W41401   4.576   7.614   5.886 -0.1811  0.5260 -0.1207
25593W        W41402   0.214   2.903   4.944  0.3130 -0.0008 -0.2456
25594W        W41403  17.901  14.419  13.142  0.0849 -0.0124 -0.0226
25595W        W41404   7.670  13.202  12.284 -0.1860 -0.0006  0.2582
25596W        W41405   1.262  11.546  12.188 -0.2729 -0.0600  0.1370
25597W        W41406   4.826   7.227   0.240 -0.0398 -0.0461  0.2695
25598W        W41407   7.773   9.714  14.947 -0.1928 -0.0966  0.1766
25599W        W41408  14.237   8.364   1.946  0.0101  0.2422  0.3708
25600W        W41409  11.931   6.163  10.258 -0.1980 -0.0377  0.0254
25601W        W41410  16.974   8.337   5.176  0.0770 -0.0736  0.1582
25602W        W41411   4.626   9.158  15.416 -0.0965 -0.1651 -0.0046
25603W        W41412  16.020   4.842   0.397 -0.0561 -0.2777 -0.0533
25604W        W41413   3.354   2.506   1.179 -0.0256  0.0466 -0.1702
25605W        W41414   6.515   6.580   4.350 -0.0845 -0.1059 -0.1968
25606W        W41415   2.558  10.849  12.316 -0.1385  0.0308 -0.2204
25607W        W41416  12.536  14.975   1.896 -0.0491  0.1744  0.2503
25608W        W41417  16.785   2.143  14.516  0.0081  0.2385 -0.1398
25609W        W41418  10.416   0.054  15.496 -0.0669  0.1274 -0.0559
25610W        W41419  14.857   7.650   2.561  0.1899  0.1827  0.1051
25611W        W41420  17.707  10.947  14.455  0.2511  0.0220  0.2966
25612W        W41421   1.440  13.051  14.840 -0.1560 -0.0596  0.2673
25613W        W41422  16.812  16.256  14.936  0.2685 -0.1853 -0.2779
25614W        W41423  11.649  14.834  12.063 -0.0215  0.2052  0.0882
25615W        W41424   2.487  14.470   0.925 -0.1435  0.1264 -0.3269
25616W        W41425  15.772  13.282   5.494 -0.1533 -0.2412  0.0143
25617W        W41426   9.399   2.772   0.317  0.1769  0.1375  0.0297
25618W        W41427  15.344   5.935  14.750  0.1951 -0.1330 -0.0753
25619W        W41428  17.837  10.212   1.047 -0.1583 -0.1219  0.1203
25620W        W41429   8.833  15.485  15.044  0.0289 -0.1663 -0.0305
25621W        W41430   9.363   4.267   0.288 -0.3101  0.1333 -0.1584
25622W        W41431   0.581  14.749   4.216  0.0605 -0.1796  0.0526
25623W        W41432   1.000  11.861  10.800 -0.0732  0.1182 -0.1275
25624W        W41433  18.236  13.224   0.953 -0.0930  0.0745 -0.1278
25625W        W41434   8.526  12.220   3.214  0.0847 -0.0872 -0.0250
25626W        W41435  10.294  17.427   0.649  0.2622 -0.1117  0.0051
25627W        W41436   9.041  10.408   0.942  0.2133  0.1653  0.1011
25628W        W41437   1.692  13.135  10.570 -0.0596  0.3176 -0.2601
25629W        W41438  12.385  17.131  14.644 -0.1772  0.0289 -0.0774
25630W        W41439   5.413  11.555  11.809 -0.2661  0.2683  0.1305
25631W        W41440   3.117  11.849  14.670  0.0489 -0.2797  0.0027
25632W        W41441   9.833  12.607   4.327 -0.2574  0.0080 -0.2272
25633W        W41442   4.425  12.196  14.573 -0.2631 -0.1684  0.2514
25634W        W41443  10.596   9.684   2.961 -0.0304  0.0970  0.1557
25635W        W41444   2.233   1.686  12.944  0.0135  0.0753  0.1767
25636W        W41445  13.432  13.981   1.574 -0.3827 -0.1054  0.0619
25637W        W41446   5.050  12.933  10.667  0.0380  0.1499  0.1665
25638W        W41447   5.305   0.082  11.844 -0.0511 -0.2135 -0.1574
25639W        W41448  13.014  10.851   1.231  0.1259 -0.2228  0.0375
25640W        W41449   1.718  18.102  11.115  0.1790 -0.1734 -0.2552
25641W        W41450   3.137   2.043  14.302  0.1361 -0.1337 -0.3457
25642W        W41451  16.590   6.652  11.516  0.0146 -0.1288 -0.2875
25643W        W41452  14.986  14.658   4.949  0.2280 -0.0767  0.1813
25644W        W41453  12.498   1.010   1.703  0.0902 -0.0290 -0.1471
25645W        W41454   6.138  13.910   0.006 -0.0493  0.0010  0.0411
25646W        W41455   0.762  13.667   1.162  0.1795 -0.0991 -0.1105
25647W        W41456  17.734  15.666   0.466  0.0848  0.0872 -0.1857
25648W        W41457  14.287   1.060  10.516 -0.2206  0.2350 -0.0255
25649W        W41458  13.755  13.902  14.208 -0.0259  0.1252 -0.0264
25650W        W41459   6.068   7.725   2.509 -0.0391  0.2757 -0.0746
25651W        W41460  11.800  13.480  10.592  0.2390  0.1494  0.2443
25652W        W41461   7.807  18.307  10.899  0.1399 -0.2058 -0.1009
25653W        W41462   8.465  17.338   1.878 -0.2543  0.0722  0.0433
25654W        W41463   2.236   6.372   2.363 -0.1678 -0.2385 -0.1408
25655W        W41464  14.106   2.245   6.103 -0.0870 -0.3577 -0.0558
25656W        W41465   5.221   3.930  15.141 -0.0587 -0.5895  0.2364
25657W        W41466  16.386  12.694  10.713  0.1491  0.0991 -0.0447
25658W        W41467  12.566   8.098   9.782  0.3525  0.3552  0.1282
25659W        W41468   3.996  17.142  10.700  0.1530 -0.1838  0.0741
25660W        W41469  11.302   4.865  12.377  0.1676 -0.0856  0.1127
25661W        W41470  18.712  10.705   2.712  0.0477  0.0745 -0.3082
25662W        W41471  15.519   1.737  12.779 -0.1454 -0.0090  0.2678
25663W        W41472  10.187  12.283   4.838 -0.1569 -0.0293 -0.0879
25664W        W41473  16.231   5.536  15.084  0.3108  0.0644  0.0351
25665W        W41474   8.197   6.459  11.448 -0.1671 -0.1164 -0.2718
25666W        W41475   5.523   5.143   3.196 -0.2074 -0.0492  0.2061
25667W        W41476  17.585   6.690   2.896 -0.0368  0.0803  0.0053
25668W        W41477  18.762  12.930  14.597 -0.0514 -0.0636 -0.2934
25669W        W41478  17.683  13.791  13.242  0.0889 -0.1713  0.1922
25670W        W41479   6.244  18.073   4.208  0.3763 -0.0667  0.1124
25671W        W41480  10.443   7.358  10.922 -0.0359  0.0929 -0.2274
25672W        W41481   8.504   0.786   1.006  0.1039 -0.0544 -0.3862
25673W        W41482   5.321   6.210   2.941 -0.0256  0.0575 -0.3131
25674W        W41483   1.081  10.935   4.062 -0.2133 -0.0953 -0.1089
25675W        W41484  11.974  15.408  11.067 -0.2262 -0.3760  0.0589
25676W        W41485  17.007   7.865   4.381  0.2056 -0.1870 -0.1290
25677W        W41486   4.084   8.359  12.702  0.1359  0.2425 -0.3328
25678W        W41487   6.230  10.351   0.849  0.0883 -0.2171  0.2044
25679W        W41488  12.894  10.647  13.199 -0.3364  0.1230 -0.2437
25680W        W41489  11.211   0.200  12.516 -0.1095  0.2022 -0.1455
25681W        W41490   9.850  13.584   4.673  0.2044  0.0860 -0.1002
25682W        W41491  13.047   8.276  14.329  0.1190 -0.1431  0.0307
25683W        W41492  17.207   2.558   0.098  0.2455  0.0932  0.1925
25684W        W41493  12.911   7.190  10.674 -0.1963  0.1192 -0.0765
25685W        W41494   6.079   2.835  12.823 -0.0437 -0.4543  0.3222
25686W        W41495   2.307   3.478   4.963  0.1559 -0.1903 -0.1893
25687W        W41496  17.367   1.322   3.991  0.2770 -0.2780 -0.1123
25688W        W41497  11.017  15.580   4.048  0.1098  0.1560 -0.0440
25689W        W41498  18.010   0.212  15.202  0.0697  0.1366 -0.0231
25690W        W41499  10.216   6.379   2.479 -0.0067 -0.0388 -0.1960
25691W        W41500   1.077  11.354  15.454 -0.0775 -0.3710  0.0468
25692W        W41501   5.307  17.003  11.551  0.2096 -0.0379  0.1535
25693W        W41502   1.364   8.392   4.920 -0.3368  0.0533  0.0008
25694W        W41503   1.776  18.344   0.520 -0.0269 -0.3235  0.0086
25695W        W41504   9.973   8.710   1.095 -0.0601 -0.4501  0.2668
25696W        W41505   8.081  16.590   1.573  0.0305 -0.1968  0.2860
25697W        W41506   4.905   5.706  12.401  0.2028  0.0056  0.2284
25698W        W41507  16.025   0.971  15.182  0.2829  0.0276 -0.2124
25699W        W41508   6.377  16.290   1.198 -0.1418  0.3253  0.5032
25700W        W41509  17.700  15.519   3.487 -0.1059 -0.1758 -0.0439
25701W        W41510   5.203   2.036  15.185 -0.0119 -0.3212  0.0605
25702W        W41511   6.125   4.955   1.259  0.3010  0.0444  0.0173
25703W        W41512  18.210   4.874   4.293  0.0523  0.1125  0.0737
25704W        W41513   6.688  10.404   2.381  0.0326  0.1082 -0.0355
25705W        W41514  16.041  17.308  10.460 -0.0616  0.0946 -0.1990
25706W        W41515  18.295   1.890  15.328  0.0098 -0.1496  0.1686
25707W        W41516  16.847   4.915   1.172 -0.0867 -0.1844  0.0316
25708W        W41517  12.801   3.923  13.258 -0.2602 -0.0255  0.1502
25709W        W41518  12.559   7.080  13.777 -0.3135  0.2774  0.0172
25710W        W41519  13.809  17.320   5.617  0.0633 -0.1513 -0.0488
25711W        W41520  18.069  17.119  13.000 -0.4465 -0.1438  0.0147
25712W        W41521  17.252   7.885   5.761 -0.2663 -0.2191  0.1319
25713W        W41522   0.258   9.925   2.738 -0.5875 -0.1983  0.4658
25714W        W41523   0.404  15.199   0.864 -0.0780 -0.0516 -0.0223
25715W        W41524  18.077  14.748   4.089 -0.1580 -0.1185 -0.1179
25716W        W41525  12.226  17.837   4.376 -0.1716 -0.1361 -0.4601
25717W        W41526   2.771  14.677   5.301 -0.2146 -0.0187 -0.0090
25718W        W41527  14.364  11.538   0.062  0.0226 -0.1942  0.0949
25719W        W41528  13.744   7.011   2.030 -0.2270 -0.0655  0.0745
25720W        W41529   4.690   1.132  13.655  0.0406 -0.2794 -0.0395
25721W        W41530  11.824  12.709   1.940  0.0157  0.4504  0.1189
25722W        W41531  18.619  15.139   4.842 -0.0437  0.1043 -0.0190
25723W        W41532   5.853   2.438  13.144  0.1958  0.0112  0.0384
25724W        W41533  18.379  10.393  12.514 -0.3994 -0.0099 -0.2312
25725W        W41534   1.641   4.114   3.043  0.2368  0.3246 -0.1090
25726W        W41535   2.697   1.825  14.397  0.1496 -0.1378  0.3362
25727W        W41536   6.447  12.318  12.376  0.1267 -0.0565 -0.2459
25728W        W41537  13.262   4.357  10.571  0.2668 -0.1291  0.0641
25729W        W41538  15.145  18.123   2.380  0.0938  0.1510  0.1785
25730W        W41539  17.162   3.726   3.980  0.1237 -0.0216 -0.0828
25731W        W41540   3.596  13.200   4.262 -0.0940 -0.3212  0.1650
25732W        W41541  14.378   1.306   1.899 -0.0621 -0.0197 -0.0533
25733W        W41542   9.996  13.480  11.026 -0.0969  0.2733  0.1735
25734W        W41543  18.490   9.115   0.881  0.0351  0.0945 -0.0597
25735W        W41544   2.341   5.519   4.843 -0.0985  0.1789 -0.2434
25736W        W41545   2.177   4.375   1.781  0.1699 -0.0457  0.2503
25737W        W41546   6.851  11.701  14.832 -0.2038 -0.2649 -0.0178
25738W        W41547   9.799  14.429   3.857  0.0458  0.0769 -0.0255
25739W        W41548  10.737  13.685   3.639  0.3861 -0.1245 -0.0713
25740W        W41549  14.423  12.232   5.192 -0.0089 -0.5084  0.0917
25741W        W41550   0.901  13.725  13.233  0.3054 -0.1464  0.0606
25742W        W41551   7.670  15.089  12.451 -0.0518  0.1040  0.1135
25743W        W41552  17.482   7.528   0.355 -0.1191  0.1001  0.0411
25744W        W41553   1.895   7.078   1.270  0.2102 -0.0625 -0.0674
25745W        W41554  15.064   8.068  12.091 -0.0961  0.0455  0.0631
25746W        W41555   6.906   2.264   2.966 -0.3463  0.1971  0.2177
25747W        W41556  15.993   6.015  11.053  0.1381 -0.0151 -0.1787
25748W        W41557   0.672  13.082  15.043  0.3507 -0.0475 -0.5048
25749W        W41558   8.788  15.866  12.278  0.2350  0.0084  0.4941
25750W        W41559  14.104   3.373   5.413 -0.2961  0.3887  0.2190
25751W        W41560   7.142   0.371   5.024  0.1712  0.1637  0.0274
25752W        W41561  14.235   4.813  13.365  0.0933 -0.2214 -0.3029
25753W        W41562   8.415  18.210   4.563  0.1367  0.1584  0.1920
25754W        W41563   4.169   6.985   4.314  0.0368  0.1445  0.4009
25755W        W41564   5.687  17.746  15.351  0.2717  0.0535  0.0038
25756W        W41565   1.704  10.723  12.765  0.0524  0.0102  0.1052
25757W        W41566   3.665  12.564   2.012  0.2522  0.0473  0.1080
25758W        W41567  15.230   8.446  15.180 -0.2433  0.0492 -0.0388
25759W        W41568  13.330   4.452  11.456  0.0548  0.0940  0.2574
25760W        W41569  11.313   3.383  10.391 -0.3155  0.1480 -0.1603
25761W        W41570  17.990   6.486  12.822 -0.1399 -0.3002  0.0479
25762W        W41571  16.118  13.993   2.568 -0.0379 -0.2145  0.0270
25763W        W41572  17.175   9.621   4.551  0.1030  0.0383 -0.2947
25764W        W41573  12.318  15.126  11.271  0.2732 -0.0678  0.2349
25765W        W41574   4.375  12.623   0.440 -0.1462  0.0307  0.0040
25766W        W41575   6.747   6.564  14.316  0.1686 -0.0290  0.0940
25767W        W41576  16.748   8.024   5.567 -0.1833  0.1923 -0.0701
25768W        W41577  14.356  11.308   1.350 -0.0734 -0.0658 -0.0683
25769W        W41578  17.758  13.847   0.944  0.1095  0.2681 -0.0696
25770W        W41579  12.118   8.128   5.877  0.1561  0.2198  0.2005
25771W        W41580  14.554   7.344  14.835 -0.4736  0.2474 -0.1712
25772W        W41581   7.459   5.355   1.052  0.1611  0.0008  0.3256
25773W        W41582   3.893  18.122  14.783  0.0761  0.1749 -0.0335
25774W        W41583  11.813  16.364   4.727  0.2067  0.3838 -0.0321
25775W        W41584   4.597  15.443  10.383  0.2782 -0.0824  0.2320
25776W        W41585   3.065  12.203   4.911  0.3387 -0.0229 -0.1452
25777W        W41586  10.551  12.035   5.101  0.4940  0.2239  0.1148
25778W        W41587  17.086  18.626   3.879  0.0110 -0.2128 -0.2317
25779W        W41588   8.332   8.205  14.335  0.0943  0.2408 -0.0224
25780W        W41589  16.417  13.457  10.897  0.0305 -0.0441 -0.2931
25781W        W41590   9.029   0.027   0.529  0.0565  0.4394 -0.0892
25782W        W41591  17.886   2.773   0.888 -0.3826 -0.0308  0.2092
25783W        W41592   6.959  13.217   1.931  0.1363 -0.0667  0.0562
25784W        W41593   6.030   4.799  12.709  0.2861 -0.2109 -0.1958
25785W        W41594  12.292  16.557  14.052  0.1835  0.0542  0.3359
25786W        W41595  16.654  17.332  12.102 -0.0337 -0.0906 -0.2486
25787W        W41596  18.018  17.608   4.307  0.0261  0.0179 -0.3171
25788W        W41597   9.339   1.097  11.330  0.0921  0.1234  0.0302
25789W        W41598  12.612   8.033   0.612 -0.0396  0.0884  0.1625
25790W        W41599  10.723   4.195  15.119  0.0261 -0.4168  0.2069
25791W        W41600   0.188  17.932   4.901  0.0212  0.2131  0.2923
25792W        W41601   0.635  12.414   3.590  0.0465  0.1100 -0.2497
25793W        W41602   3.443  13.259  12.894 -0.2044 -0.0794  0.1655
25794W        W41603   0.433   6.913   0.202  0.0676  0.1372  0.1862
25795W        W41604   6.098  11.049   3.436 -0.1352 -0.0954  0.1019
25796W        W41605  13.807   7.197  14.165 -0.0457 -0.1020  0.1969
25797W        W41606  10.831   0.740  11.430  0.0151 -0.0510  0.0802
25798W        W41607   2.466  15.498  15.396  0.0937  0.1115 -0.0786
25799W        W41608  12.522  17.955   5.448  0.2246  0.1300 -0.0765
25800W        W41609  12.883  17.120   5.883  0.0048 -0.0067 -0.1701
25801W        W41610  13.574  10.149  12.408  0.2103  0.1820 -0.0344
25802W        W41611  15.357   6.847  10.803 -0.0533  0.1385  0.0910
25803W        W41612  11.689   9.882  14.110 -0.3008  0.2904  0.1360
25804W        W41613   0.379   6.452  13.066 -0.2778  0.3257 -0.3208
25805W        W41614   8.541  10.706   2.448 -0.0072  0.3269 -0.2026
25806W        W41615  12.059  17.540  13.335 -0.1172 -0.3564 -0.0484
25807W        W41616   5.721  11.523   1.247  0.3759  0.3882 -0.3253
25808W        W41617   1.476  15.687   0.423  0.0246  0.0902 -0.3286
25809W        W41618  16.279  17.593   3.261 -0.3892 -0.0878 -0.0499
25810W        W41619  11.909  10.444  12.704  0.0573 -0.1196  0.2271
25811W        W41620  12.714   5.811  12.562 -0.1178  0.2755  0.0769
25812W        W41621  15.996   7.051  14.653  0.1365  0.0097 -0.4358
25813W        W41622  14.188   0.456   4.450  0.0081 -0.2142 -0.2404
25814W        W41623  14.373  16.605  11.137 -0.1486 -0.2545 -0.0809
25815W        W41624  13.883  10.472  13.295  0.0183  0.0770  0.0304
25816W        W41625  12.948   9.911   5.617  0.1452 -0.2978  0.0391
25817W        W41626  14.804  15.220   1.839 -0.0673  0.2857 -0.4915
25818W        W41627   4.176  18.716   0.629  0.0818 -0.0658  0.0982
25819W        W41628  12.068   3.456   0.110  0.1234 -0.1807 -0.2301
25820W        W41629  13.206   5.738  11.888  0.2784 -0.3137  0.1060
25821W        W41630  11.314   4.499   5.206 -0.0258  0.2138 -0.0470
25822W        W41631  15.372   4.733  12.241 -0.0019  0.0008  0.1486
25823W        W41632   1.874  15.826   3.418  0.2044  0.1148  0.0083
25824W        W41633  18.638  17.282   4.073  0.0261 -0.1441 -0.0900
25825W        W41634  16.797   8.373  12.763 -0.0298 -0.1552  0.1648
25826W        W41635  15.121  11.533  13.661  0.2034 -0.0923  0.0291
25827W        W41636   3.704   4.457   0.806  0.1487  0.0257  0.1686
25828W        W41637   0.702  12.442   4.555  0.2855  0.1029  0.2050
25829W        W41638  17.571  15.012  12.081 -0.0758  0.1903  0.0984
25830W        W41639  12.314  17.140  15.215 -0.2815  0.1112  0.1422
25831W        W41640  13.797  11.909   1.754 -0.0117  0.1558 -0.1182
25832W        W41641   1.954   6.381   2.941 -0.2337  0.2989  0.0776
25833W        W41642   0.035  11.642   4.034  0.0844 -0.0846 -0.0950
25834W        W41643  15.154  14.341  13.601 -0.0280 -0.0174 -0.1036
25835W        W41644  14.646   2.866  14.895 -0.1272  0.0687 -0.4405
25836W        W41645  18.321   2.826   0.644 -0.0704  0.1568 -0.0340
25837W        W41646   5.870   9.699   4.463  0.0516 -0.0573 -0.0658
25838W        W41647   8.720   7.903   4.505 -0.1106  0.0825  0.2091
25839W        W41648  13.619   1.322   6.364 -0.2340  0.1893 -0.1700
25840W        W41649  12.356  12.349  14.180  0.1795  0.2526 -0.0947
25841W        W41650   6.850   8.456   5.262 -0.0055  0.0294  0.0595
25842W        W41651   2.417  18.325  11.365 -0.1719  0.2626  0.4735
25843W        W41652   0.214   2.948  14.382  0.2243 -0.0823 -0.2261
25844W        W41653  15.829   1.200   3.340 -0.0348 -0.1053  0.1423
25845W        W41654  14.497   8.754   1.970  0.2486  0.2174 -0.1266
25846W        W41655  14.087  14.469   4.571  0.1894 -0.3636  0.1746
25847W        W41656  12.600  12.258   3.711  0.0862  0.0092 -0.1316
25848W        W41657   8.916  11.696  10.438  0.1388  0.4068  0.1255
25849W        W41658   4.857  10.106  15.005 -0.1218  0.2580 -0.1321
25850W        W41659   5.452   0.767   4.255  0.0796 -0.0662  0.0210
25851W        W41660  12.618   0.136  10.840  0.0880  0.3049  0.2988
25852W        W41661  11.772  13.675  15.314  0.1124 -0.1300  0.1405
25853W        W41662  13.746  12.035   2.289 -0.1275 -0.0445  0.0965
25854W        W41663  12.286   9.961   3.352 -0.1437  0.0680 -0.1084
25855W        W41664  12.355   1.278   3.671  0.1995 -0.3879  0.0777
25856W        W41665  17.312   4.261   2.864 -0.0744  0.4727 -0.2792
25857W        W41666  12.087  17.175   3.002  0.1185  0.1193  0.0047
25858W        W41667   5.599   8.568  13.505 -0.0988 -0.2531 -0.2223
25859W        W41668  12.284   2.689   1.905  0.0660 -0.0681 -0.1763
25860W        W41669   6.389  17.592   1.458 -0.1642 -0.1916 -0.4025
25861W        W41670  10.107  15.344   2.725 -0.4596  0.0813 -0.2123
25862W        W41671   4.374  10.361  13.141 -0.0202 -0.1651 -0.1440
25863W        W41672  17.402  12.934   0.454  0.0069 -0.1844 -0.1727
25864W        W41673   0.715  10.939  14.781  0.4553  0.3413 -0.1440
25865W        W41674   9.383   3.252  11.044  0.1232 -0.0603  0.2080
25866W        W41675   7.202  12.684  13.530  0.3210 -0.1772  0.3066
25867W        W41676  14.578  14.438  11.646 -0.1054 -0.3769 -0.2025
25868W        W41677  10.298   9.250  13.655 -0.0900  0.1090 -0.0086
25869W        W41678   2.263   0.169   5.485 -0.1313 -0.2249 -0.1616
25870W        W41679  17.121  17.738  14.167 -0.0428 -0.0659 -0.1998
25871W        W41680  15.613   7.578  14.272 -0.0402 -0.0918  0.0045
25872W        W41681  10.261   2.666   4.282  0.1424 -0.0798 -0.0932
25873W        W41682  14.099  16.546  11.903 -0.1243 -0.1325  0.0315
25874W        W41683   9.320   1.468   3.227  0.0568  0.0987 -0.0262
25875W        W41684  13.193   3.126   2.410 -0.0574 -0.4270 -0.0774
25876W        W41685   0.160  12.597   4.469  0.0533 -0.1477 -0.1796
25877W        W41686  11.368   2.832   0.255 -0.1984  0.1218 -0.1491
25878W        W41687  17.469  14.595  12.440  0.0043 -0.0575  0.0700
25879W        W41688  15.429   7.862  12.531  0.0660  0.0044 -0.2256
25880W        W41689   6.785   8.912  14.040  0.2506  0.0414 -0.1558
25881W        W41690  14.977   0.940  11.714  0.1152  0.1695  0.0141
25882W        W41691  13.864  12.706  14.600 -0.3394  0.0042  0.2615
25883W        W41692   9.238  10.949   2.211 -0.0712 -0.0696  0.2135
25884W        W41693  18.500   3.992   0.818  0.0450 -0.0191  0.3273
25885W        W41694   9.542   3.801  11.988  0.4311 -0.0544  0.2167
25886W        W41695   5.770   7.266   2.652 -0.0889 -0.0388  0.2331
25887W        W41696   4.584   4.814  12.389  0.2961 -0.0433 -0.1408
25888W        W41697   3.912   2.074   2.541 -0.1337  0.0791  0.1683
25889W        W41698   3.241  14.336   0.409  0.0426 -0.2343 -0.1069
25890W        W41699  10.601   9.615  11.319  0.0877  0.1307  0.2365
25891W        W41700  11.185   1.940   5.921  0.3976 -0.1522  0.0226
25892W        W41701   8.879  10.485  11.368  0.1183  0.2881 -0.0333
25893W        W41702  13.708  17.570   1.277  0.1062  0.1318  0.0523
25894W        W41703   8.903   4.404   0.505  0.0325  0.1304 -0.0943
25895W        W41704  10.571   9.504   2.205  0.2201 -0.0044  0.3316
25896W        W41705  12.937  18.301  14.667 -0.0250  0.0791 -0.0252
25897W        W41706   0.894  18.260  13.362  0.3332 -0.0131 -0.1730
25898W        W41707  10.936  12.466  13.824  0.0136 -0.2832  0.1030
25899W        W41708   3.284   1.515   4.029  0.0514 -0.0219  0.0087
25900W        W41709   4.669  16.283  14.827 -0.0105  0.2075  0.0079
25901W        W41710  15.813   7.187   3.222  0.2900  0.2309 -0.0385
25902W        W41711  13.239  11.461   4.758 -0.0944 -0.4086 -0.1721
25903W        W41712  18.779   4.497   0.125 -0.1025 -0.2171  0.0823
25904W        W41713   0.350  11.352  10.468 -0.1075 -0.0063 -0.1849
25905W        W41714   9.618   7.112   4.540 -0.0434 -0.3535  0.1297
25906W        W41715   6.049   1.852  15.255 -0.3093  0.0465 -0.1880
25907W        W41716   6.862   2.914   4.983  0.1382 -0.2766  0.0956
25908W        W41717  18.643  10.368   3.942  0.4392  0.1573 -0.0644
25909W        W41718  14.559  13.953   1.047 -0.0701 -0.0858 -0.1751
25910W        W41719   3.918  15.802   4.308  0.1214  0.1230  0.2270
25911W        W41720  18.688  14.221   5.335  0.0818  0.0730  0.1962
25912W        W41721  12.896   1.433  11.645  0.0547  0.3141 -0.1085
25913W        W41722  18.325  12.661  11.546  0.2384  0.0840 -0.0016
25914W        W41723   2.214  15.835   1.066 -0.0578  0.0285  0.0527
25915W        W41724   2.864  13.647   1.398 -0.1431 -0.0808 -0.2173
25916W        W41725   0.123  12.584   1.422 -0.2422  0.0292 -0.3234
25917W        W41726  11.378   4.884  13.930  0.1908  0.2403  0.1939
25918W        W41727   8.994   3.417   1.564  0.0107  0.0071  0.0301
25919W        W41728   4.592  16.685   0.660 -0.0013  0.1038  0.1600
25920W        W41729   3.596  11.785   0.104  0.1842  0.1873  0.2661
25921W        W41730  16.326  17.369   4.319 -0.2027  0.1016  0.0419
25922W        W41731   8.954   8.423   4.806  0.1852  0.5231 -0.4725
25923W        W41732  11.869   5.069   3.233  0.3899  0.2714 -0.2632
25924W        W41733   7.121  16.491  10.900  0.2437  0.0872 -0.1112
25925W        W41734  18.705  14.515   1.363 -0.2731 -0.0302 -0.1994
25926W        W41735   6.981  11.266  15.150  0.2169  0.0702 -0.1439
25927W        W41736   3.871   7.786  11.999 -0.0057  0.2961  0.0626
25928W        W41737   4.178   1.989  11.444 -0.0592  0.3246 -0.1982
25929W        W41738  14.928  18.139  13.518  0.2768  0.1370  0.0025
25930W        W41739   8.419   6.247   3.170 -0.0847 -0.0011 -0.1087
25931W        W41740  14.645  13.334   4.791 -0.1480 -0.0636 -0.4254
25932W        W41741  17.668   0.983  12.229 -0.0337  0.1317 -0.4504
25933W        W41742   8.920  17.769  13.040 -0.1800 -0.2948 -0.3341
25934W        W41743   6.585   5.096   0.255 -0.0282 -0.0020 -0.0369
25935W        W41744   1.273   3.102  15.020 -0.1387  0.1721  0.0644
25936W        W41745   1.924   8.623  15.189 -0.0047 -0.3880  0.1386
25937W        W41746   3.227  18.770   0.059  0.2378 -0.4682 -0.1949
25938W        W41747  11.272   1.709   1.806  0.1285 -0.1908  0.1655
25939W        W41748   4.450  18.697   0.111 -0.1985 -0.0026 -0.3517
25940W        W41749  10.399   3.811   0.198 -0.1571  0.0488 -0.0103
25941W        W41750  16.016   7.698  13.975 -0.2101  0.1994  0.1569
25942W        W41751   3.631   9.421   2.470  0.1487 -0.0006  0.0580
25943W        W41752  17.786   8.887  11.851  0.2684  0.2858  0.1841
25944W        W41753   6.191  15.695  15.383 -0.0534  0.3141 -0.3307
25945W        W41754  13.871   9.406   1.717  0.1295 -0.3234  0.4461
25946W        W41755   7.377  10.769   3.263  0.0263  0.0216  0.0732
25947W        W41756   5.253  11.143  14.610 -0.0949  0.2318 -0.3549
25948W        W41757   7.792  16.466   0.355  0.1706  0.1283  0.0533
25949W        W41758  16.392  10.302   2.930 -0.0979  0.1394  0.1332
25950W        W41759   3.489   3.798  10.622  0.0712  0.0110  0.1968
25951W        W41760   2.367  14.477  10.366 -0.0192 -0.2245  0.0030
25952W        W41761   6.705  11.369   1.370  0.4236 -0.1294 -0.0943
25953W        W41762  11.711   8.978  14.734 -0.2275 -0.1946 -0.0754
25954W        W41763   8.927   7.673  13.748  0.1789 -0.0189 -0.2865
25955W        W41764  18.095  11.911   1.733 -0.3067 -0.0855  0.0639
25956W        W41765   9.213  16.232   1.525  0.0603  0.2258  0.1858
25957W        W41766  18.580  12.863  14.145 -0.1928 -0.0032  0.0041
25958W        W41767  16.360  11.563  13.322  0.1419  0.0216 -0.1411
25959W        W41768   3.312  17.564  12.006  0.3136 -0.1120 -0.1539
25960W        W41769   7.040   8.123   4.249  0.1941  0.1964 -0.1149
25961W        W41770  17.963  10.355  12.967  0.2789  0.0669 -0.2040
25962W        W41771   3.421  17.228   9.318 -0.1721 -0.1256 -0.0126
25963W        W41772   1.779   8.656   4.907  0.1757  0.1990  0.0272
25964W        W41773  10.736  10.138   3.102 -0.1032 -0.0040  0.0997
25965W        W41774   2.978   4.120  13.707  0.0300  0.2405  0.0027
25966W        W41775   5.976  11.501   0.669  0.0547  0.1042 -0.2782
25967W        W41776  13.034  12.093  12.106  0.1747  0.1701  0.0941
25968W        W41777  16.312   5.726  15.525  0.1223  0.1566 -0.1099
25969W        W41778   6.008  12.403   1.660 -0.0208 -0.0185  0.0881
25970W        W41779   1.452  18.734  15.044  0.1493  0.1400  0.0533
25971W        W41780  18.000  17.640   4.915 -0.1736 -0.1829 -0.0034
25972W        W41781  14.609  10.496  10.433  0.2701  0.0467  0.1735
25973W        W41782   7.040  16.704   2.374  0.1567 -0.3025  0.5483
25974W        W41783   9.326   7.763  13.045  0.2511 -0.0953  0.0331
25975W        W41784  10.423  14.829  12.583  0.1776 -0.0611 -0.3207
25976W        W41785  14.597   4.727   2.012  0.0662  0.3263  0.0525
25977W        W41786  14.366   7.464  11.295 -0.0091  0.1804  0.1478
25978W        W41787   2.129   8.144   5.665 -0.0108  0.1471 -0.0293
25979W        W41788   2.889  13.353  15.558 -0.0341 -0.1463 -0.0482
25980W        W41789  14.369   3.337   3.816 -0.0384 -0.2427 -0.4258
25981W        W41790   1.842   1.293  10.765 -0.0533  0.4189 -0.3077
25982W        W41791   6.677   1.595  12.592  0.1964  0.0750 -0.1398
25983W        W41792   2.330   7.980  13.986  0.1103  0.3307  0.0813
25984W        W41793  15.446  14.996   3.348  0.0326  0.0833 -0.0005
25985W        W41794  16.793   4.309   3.962 -0.0227  0.0201  0.1905
25986W        W41795  15.624   2.908  12.007  0.1240 -0.2255 -0.3950
25987W        W41796  14.362   4.473   2.476  0.0947 -0.0250  0.0100
25988W        W41797   9.895   8.847   3.670 -0.0478 -0.0382  0.1916
25989W        W41798   0.248   5.137  12.777 -0.3033 -0.3782  0.1977
25990W        W41799   8.542  12.210   5.417 -0.3367  0.0425 -0.0912
25991W        W41800  10.684  17.187   3.098  0.0524  0.1513  0.0669
25992W        W41801   8.961  13.019   3.930  0.1635  0.4142  0.0316
25993W        W41802  12.956  16.418   5.303 -0.3140  0.2808 -0.2957
25994W        W41803  14.453   6.555   1.806  0.0046  0.2951  0.0599
25995W        W41804   5.481   3.705   0.706  0.0332  0.0749  0.0334
25996W        W41805  10.609  14.621  15.056 -0.2952 -0.0109  0.0098
25997W        W41806  16.106   5.563  13.403  0.1776 -0.1755 -0.0126
25998W        W41807  10.399   3.928  14.334  0.0247  0.1907 -0.0716
25999W        W41808  18.291   5.366  12.699  0.1462  0.1677 -0.0304
26000W        W41809   2.803   2.486  10.901  0.3398 -0.2131  0.0922
26001W        W41810  10.666  12.154  11.927  0.3608 -0.2254  0.0904
26002W        W41811   9.451  17.134  13.731 -0.0289  0.0987 -0.1141
26003W        W41812  14.755   4.967   0.526 -0.0688 -0.1035  0.2266
26004W        W41813  16.055   9.614   2.290 -0.1749 -0.0128 -0.1082
26005W        W41814   6.066  13.970  12.276  0.3095  0.2344 -0.0374
26006W        W41815   9.585  17.512   5.618 -0.0709  0.4426 -0.1911
26007W        W41816   3.219  16.598  12.411  0.0299 -0.3364 -0.1057
26008W        W41817   1.154   5.019  13.169 -0.3670  0.0984  0.2565
26009W        W41818  17.722   6.676   0.654  0.3068  0.3093  0.1422
26010W        W41819  10.939  13.170   3.729  0.1035 -0.0170  0.0307
26011W        W41820   7.023   2.134  14.816 -0.2772  0.0196  0.0843
26012W        W41821   8.630   8.694  13.487  0.0780  0.4067  0.0544
26013W        W41822  14.607   5.627   1.042 -0.0155 -0.3321 -0.3752
26014W        W41823   9.788  15.362   2.379 -0.4649  0.0426  0.1740
26015W        W41824   3.688  17.040  13.750  0.1132  0.1732  0.0951
26016W        W41825   2.217   7.297   3.277 -0.1994 -0.2763  0.1790
26017W        W41826   2.644   3.368   2.597  0.2442 -0.0776  0.0587
26018W        W41827   8.846   3.866   5.538 -0.2403 -0.0887 -0.0437
26019W        W41828   1.772   4.071   2.538 -0.3673 -0.2282 -0.1567
26020W        W41829  15.946  11.894  12.167 -0.1423  0.1885 -0.1479
26021W        W41830  16.898  12.256   2.749  0.2241  0.2504  0.1630
26022W        W41831  18.083  17.984  13.418 -0.0002  0.1436  0.3226
26023W        W41832   4.616  12.647  10.695  0.1780 -0.1471 -0.1943
26024W        W41833   4.045  18.152   2.782 -0.0299  0.0954  0.3316
26025W        W41834   8.074  16.480  13.141 -0.0768  0.2577  0.3064
26026W        W41835   5.380  10.801  10.521 -0.1209 -0.2412 -0.1291
26027W        W41836  12.811   2.689  13.368 -0.0512  0.3428  0.1701
26028W        W41837   0.517  18.182   4.229 -0.0811  0.3391 -0.2522
26029W        W41838   5.268   1.383   4.218 -0.2905 -0.4166 -0.1092
26030W        W41839   3.773   4.775   3.285 -0.2095  0.0580  0.0653
26031W        W41840  14.668   0.317   1.854  0.1569 -0.2843 -0.0203
26032W        W41841  14.112  11.144  12.567  0.0386 -0.0930  0.0041
26033W        W41842  15.314   7.968   5.239  0.1334 -0.2219  0.4169
26034W        W41843  17.024   1.681  15.439  0.2374 -0.0973 -0.1588
26035W        W41844   6.019  10.085   3.073 -0.0922  0.3710  0.0305
26036W        W41845  14.820   3.041   5.827  0.2498 -0.1292 -0.2466
26037W        W41846  16.894   3.636  13.191 -0.1682  0.2359 -0.0295
26038W        W41847   1.794  15.433  12.799 -0.1580 -0.0320  0.0737
26039W        W41848  15.530  17.981  12.616  0.1458  0.0946 -0.0522
26040W        W41849   4.995  10.439   0.202  0.0125 -0.2100  0.0097
26041W        W41850   7.741  12.148   2.725  0.2207  0.1666 -0.1232
26042W        W41851   9.835   5.648   0.891 -0.0634 -0.3130  0.4670
26043W        W41852   9.557   2.980  14.510  0.0190  0.1171 -0.0975
26044W        W41853   3.349   5.519   3.610 -0.5409  0.2161  0.3565
26045W        W41854  18.354  11.428  14.168 -0.0570  0.2488  0.2182
26046W        W41855   8.308   6.092   0.022  0.2837  0.3491  0.3630
26047W        W41856  18.104  12.342  12.845  0.2622 -0.0995  0.1833
26048W        W41857   8.996   6.253  14.680 -0.0971 -0.1859  0.1708
26049W        W41858  18.631  13.132  15.190 -0.1266  0.1050 -0.0945
26050W        W41859   4.108   7.018  13.471  0.1661 -0.0596 -0.0606
26051W        W41860  14.050  16.007  13.845 -0.3351 -0.1153 -0.0390
26052W        W41861   0.104   3.319   5.285  0.0176  0.1267  0.1842
26053W        W41862  13.304  17.073  12.738 -0.0223 -0.1289  0.2912
26054W        W41863   1.061  17.662   1.783  0.0367  0.0812  0.2122
26055W        W41864  11.771  11.009   1.227  0.4903 -0.2785  0.3307
26056W        W41865  14.909  14.689   1.912  0.1084 -0.1713 -0.2071
26057W        W41866  11.113   1.098   2.817 -0.1481 -0.0169 -0.0876
26058W        W41867   9.490  14.911   1.849 -0.3023  0.4269  0.0377
26059W        W41868   9.431   9.646  11.379 -0.2995 -0.0012 -0.0458
26060W        W41869  12.412   0.920  11.246 -0.1665 -0.0575 -0.2690
26061W        W41870   4.593   3.984  14.357  0.1436 -0.0099 -0.2028
26062W        W41871   1.914   5.993  12.345 -0.0891  0.1185 -0.1099
26063W        W41872  14.973  13.952   1.373 -0.2045  0.0697  0.0610
26064W        W41873   5.114   1.568  10.926 -0.0556  0.1238 -0.1349
26065W        W41874   6.457   2.568   3.270  0.1092  0.0463  0.1478
26066W        W41875  16.138   2.860  11.842 -0.2322  0.1104 -0.0900
26067W        W41876  13.649  14.754  10.408  0.0277 -0.0075 -0.0724
26068W        W41877  17.441  14.372   0.980 -0.3842  0.2970  0.0681
26069W        W41878  18.687   0.006   3.020  0.2819 -0.2581  0.2611
26070W        W41879   6.446   4.354   2.004 -0.0935  0.0357 -0.2627
26071W        W41880  16.609   3.566   1.171 -0.0976 -0.0564  0.0274
26072W        W41881   0.202  13.379   0.415  0.2694  0.0869 -0.0930
26073W        W41882   6.267   9.106   5.317  0.1226  0.0145 -0.2136
26074W        W41883  17.453   7.006   4.178 -0.2651 -0.0506  0.0452
26075W        W41884  15.896  17.190  11.357  0.3453 -0.2333 -0.1581
26076W        W41885   3.145   5.941   3.458 -0.0200  0.1216 -0.1211
26077W        W41886  16.249   8.181  15.397  0.0469  0.4722 -0.1611
26078W        W41887   3.958   9.624  13.487 -0.0799 -0.0187  0.2240
26079W        W41888   7.884  12.666   2.105  0.3274  0.0576  0.0859
26080W        W41889   3.936   3.189   4.423 -0.0193 -0.0585  0.0567
26081W        W41890   4.379  16.369   4.240 -0.0729  0.1520 -0.2862
26082W        W41891   8.849  18.537   4.580  0.1738 -0.5680 -0.1027
26083W        W41892   3.920   0.789  13.202 -0.2981 -0.1191 -0.1888
26084W        W41893  15.043   1.726   0.286  0.0907  0.1161 -0.2713
26085W        W41894   0.666   0.160   1.246 -0.2637  0.0252  0.3915
26086W        W41895   0.549   2.097  13.011  0.0130  0.1227  0.3400
26087W        W41896  10.099  14.525  13.545  0.2270  0.0533  0.0787
26088W        W41897   2.538   9.008   5.567  0.2065 -0.0819  0.0464
26089W        W41898  11.659   6.354  11.534 -0.0835 -0.0822 -0.1081
26090W        W41899   7.604  10.734   4.567  0.4157  0.1048 -0.2287
26091W        W41900   9.400  10.148   2.223  0.0534 -0.0777  0.0751
26092W        W41901   7.925  15.164  14.068  0.2770 -0.4532 -0.1512
26093W        W41902  14.731   3.273   4.853  0.0778  0.0889 -0.1297
26094W        W41903   9.711   3.326  12.871 -0.1456 -0.2763 -0.0665
26095W        W41904   9.679   2.584  12.814  0.0529 -0.1635 -0.0943
26096W        W41905  10.425  16.073   2.290 -0.0033  0.0812  0.5799
26097W        W41906   2.054  13.447  13.200 -0.0632 -0.2335  0.3465
26098W        W41907  12.398   4.708  14.799 -0.0870 -0.0373 -0.1102
26099W        W41908   5.715  17.199   4.840 -0.2487 -0.0578  0.3540
26100W        W41909  13.710   1.230   4.521  0.1922 -0.0756 -0.1246
26101W        W41910  18.646   7.157  12.707 -0.2248 -0.1654  0.4204
26102W        W41911   6.180   3.171   0.955 -0.1870  0.1461  0.1498
26103W        W41912   1.162   9.040  12.588  0.2025  0.4345  0.0706
26104W        W41913   5.365   8.824   2.728  0.1257  0.1228  0.1342
26105W        W41914   4.505  10.932   4.054  0.2014 -0.1292  0.0379
26106W        W41915   5.184  10.583   2.773 -0.0839  0.1296  0.0392
26107W        W41916  16.572  12.265   4.773 -0.0194 -0.1186 -0.0152
26108W        W41917  16.257   3.959  11.894  0.0179 -0.2776  0.0860
26109W        W41918  10.648  17.374  12.404 -0.0593 -0.4022  0.0934
26110W        W41919  16.150   3.758  15.200  0.0307  0.2908 -0.3119
26111W        W41920  12.176  10.939  15.148  0.2314 -0.5451 -0.0919
26112W        W41921  15.209  12.069  10.851 -0.0584 -0.2754  0.2681
26113W        W41922   3.347  14.408  14.950  0.2077 -0.1405 -0.0864
26114W        W41923  17.889   4.561  13.100 -0.0588 -0.1848  0.2691
26115W        W41924   3.336   0.207   0.823  0.1582  0.0847  0.0037
26116W        W41925   6.153   6.092   5.076  0.3279  0.2002  0.1872
26117W        W41926   0.159  12.274  10.905  0.2715 -0.0654  0.1876
26118W        W41927   7.399   5.917  14.447 -0.2052  0.1208 -0.0633
26119W        W41928   6.493   5.459  14.477  0.4190  0.0290 -0.0533
26120W        W41929   6.270   5.827   1.608 -0.1164 -0.1392 -0.1114
26121W        W41930   3.853   2.013   3.077  0.2400  0.3348  0.3000
26122W        W41931  15.641   8.716  11.195  0.2324 -0.2315 -0.1431
26123W        W41932   8.836   3.948   1.620  0.3154  0.1334  0.1612
26124W        W41933   2.301  10.506  13.835 -0.2113  0.3594 -0.1049
26125W        W41934  10.525   9.833   4.213 -0.1575  0.1506 -0.0518
26126W        W41935   4.262   4.613   0.017 -0.2559  0.1205  0.2761
26127W        W41936   2.483   1.341  12.687  0.0157  0.2784 -0.2294
26128W        W41937   5.512  16.286   2.738 -0.1635 -0.0964  0.1959
26129W        W41938  17.179  15.131  11.161  0.0052 -0.1238  0.0377
26130W        W41939  12.571  10.839   4.193 -0.0907  0.1786  0.3770
26131W        W41940  11.805   8.263  10.968  0.1593 -0.0478  0.1008
26132W        W41941  15.065  12.233   3.898  0.0483  0.1709 -0.0272
26133W        W41942   1.595   0.615   3.348 -0.2298  0.0536  0.1281
26134W        W41943   3.615  18.381   3.942 -0.2416  0.0861  0.4417
26135W        W41944  10.863   1.059  15.319  0.0494 -0.0780 -0.1044
26136W        W41945  16.840   0.111  14.928  0.2726  0.0436  0.2197
26137W        W41946  17.106  18.032  12.110  0.1079  0.2511 -0.0506
26138W        W41947   6.866   5.126  14.210  0.2390 -0.1379 -0.1552
26139W        W41948  12.685  17.095   0.069  0.1566  0.1167 -0.0330
26140W        W41949  14.449  12.223   1.191  0.0576 -0.2695 -0.3106
26141W        W41950  16.583   6.243  12.508  0.1305 -0.1450  0.2034
26142W        W41951   8.170   4.995   5.582  0.0090 -0.1197  0.1209
26143W        W41952   2.737  12.751   0.340  0.0839  0.2745 -0.1014
26144W        W41953  11.180  13.444  12.029  0.1701  0.0871  0.3583
26145W        W41954   4.272  17.745   3.135  0.0710 -0.2821  0.1877
26146W        W41955  13.746   6.921  11.901 -0.0517 -0.0972  0.1147
26147W        W41956  10.981  11.177  13.658  0.0395  0.0958  0.5697
26148W        W41957   8.655   5.074  11.957  0.0104  0.2943  0.0464
26149W        W41958  14.071  15.528   2.578  0.0825 -0.0899  0.0820
26150W        W41959  12.563   2.867  12.318 -0.0863  0.0472 -0.0910
26151W        W41960  14.797   6.648   2.937 -0.0000  0.0097 -0.0956
26152W        W41961  17.612   3.752   2.926  0.3227  0.0393  0.3413
26153W        W41962   0.657  16.460  14.082  0.2962  0.2271 -0.0698
26154W        W41963  10.002   9.848  10.883  0.1741  0.0181 -0.1725
26155W        W41964  10.903   1.364  13.002  0.2593  0.1040  0.0878
26156W        W41965   5.157   8.190   2.070  0.0691  0.0023  0.3071
26157W        W41966   8.051  11.159   3.054  0.1513 -0.0326  0.3551
26158W        W41967   7.498   3.680  11.742  0.0373 -0.4068  0.2827
26159W        W41968  18.370   6.359  12.451  0.2816 -0.1029 -0.2316
26160W        W41969   0.690   6.592  11.316 -0.3654  0.0828 -0.1261
26161W        W41970   1.284  14.056  13.184  0.1108 -0.1793  0.0340
26162W        W41971  16.767   7.497   1.784 -0.1270  0.0511  0.0470
26163W        W41972   0.102   5.971   3.976 -0.4216  0.2744  0.1030
26164W        W41973  16.103   4.246  15.556 -0.0775  0.0158 -0.2756
26165W        W41974  13.370  14.710   3.354 -0.0701  0.0669  0.1265
26166W        W41975   1.020   7.454   4.071  0.4970 -0.0326  0.2322
26167W        W41976   5.343   5.214  14.472 -0.1441  0.0690 -0.1042
26168W        W41977  14.400   9.289  11.801  0.2591  0.1637 -0.0856
26169W        W41978  15.903   4.869   3.992  0.3283 -0.0456 -0.1801
26170W        W41979   1.751  13.075  11.479 -0.0082  0.1884  0.1594
26171W        W41980  14.963  17.064   5.396  0.0354 -0.1900 -0.2398
26172W        W41981  14.935   3.813  13.658  0.0477  0.1872 -0.0055
26173W        W41982   8.124   3.327  12.160  0.1071 -0.0923 -0.1060
26174W        W41983   6.094  17.937  12.889 -0.0267  0.1802 -0.1199
26175W        W41984   1.580   3.738  11.956  0.1119  0.2020 -0.0890
26176W        W41985  14.256   8.045  14.198 -0.0089 -0.1031  0.2623
26177W        W41986  13.752  14.731  14.543  0.1290  0.1856 -0.1330
26178W        W41987  12.595   7.698   2.355 -0.1405  0.0121  0.0043
26179W        W41988   5.705   0.685  15.248  0.2317 -0.2272 -0.1869
26180W        W41989   0.929   6.091  10.117  0.1203 -0.1156 -0.0592
26181W        W41990   2.513   7.558  12.500  0.0681  0.0723  0.1187
26182W        W41991  15.084  13.651   4.941 -0.1710  0.1639  0.2806
26183W        W41992  11.990   5.586   0.846 -0.0428  0.0140 -0.1126
26184W        W41993   7.557  10.156  12.846 -0.0105  0.0261  0.2032
26185W        W41994  17.009   4.288   3.274 -0.1944  0.2713 -0.2043
26186W        W41995  11.740   6.049   0.890  0.1878  0.0017  0.0126
26187W        W41996  14.452   0.373   0.167  0.0277  0.1068  0.1906
26188W        W41997  11.032   3.980  12.405  0.0253 -0.0001  0.0648
26189W        W41998  18.292   5.582   0.720 -0.0257  0.1772 -0.1038
26190W        W41999   7.886  11.099  14.570  0.1843 -0.0512  0.2488
26191W        W42000  13.700  12.408   1.815 -0.1926 -0.0998 -0.0341
26192W        W42001  12.182  10.564  10.952 -0.2254  0.1681  0.1361
26193W        W42002  17.558   5.270   4.814 -0.0469  0.0113  0.1208
26194W        W42003  16.373   4.786   0.847 -0.1358 -0.4036 -0.1242
26195W        W42004  15.448  13.399   0.050 -0.2493  0.1162 -0.1865
26196W        W42005  18.361   9.837   9.812 -0.1863 -0.0160 -0.1517
26197W        W42006   9.818   9.086   4.104 -0.2093 -0.2291  0.0893
26198W        W42007   9.600   3.806  13.781 -0.1187 -0.2777  0.0660
26199W        W42008  13.863  10.613   1.533 -0.1110 -0.0329  0.0036
26200W        W42009  18.699   4.173  12.341  0.1839  0.0121  0.0376
26201W        W42010  16.917   1.238   0.263 -0.0284  0.1327  0.1034
26202W        W42011  11.668  13.473  11.523  0.2506 -0.4288  0.5539
26203W        W42012   6.050   8.519  14.933 -0.2392  0.0136  0.2703
26204W        W42013  10.562  14.830   9.721  0.0133  0.1837  0.2012
26205W        W42014   2.646   3.067   0.733 -0.1083 -0.1359  0.1327
26206W        W42015   9.364  14.389   1.719 -0.0935  0.0067 -0.1380
26207W        W42016  15.829   6.646   4.540  0.0445  0.2186 -0.1337
26208W        W42017   5.312   3.507   1.890 -0.0079 -0.0605 -0.2080
26209W        W42018  15.178   1.202   0.326 -0.0720  0.0667 -0.0622
26210W        W42019   8.080   7.234  12.981 -0.1490 -0.2802  0.2182
26211W        W42020  10.550  11.888   2.960 -0.1782 -0.1084 -0.1299
26212W        W42021  18.425  17.936  13.827 -0.3036  0.0290  0.0039
26213W        W42022  16.747   8.800   1.873  0.0894 -0.2232 -0.0665
26214W        W42023   6.359   8.752  11.450 -0.2154  0.2451  0.1915
26215W        W42024  18.495  10.283  13.929  0.0322 -0.1759  0.1047
26216W        W42025   8.673   4.790   4.557  0.2210  0.1290  0.0579
26217W        W42026   5.312  13.215  15.226 -0.0039  0.0325  0.0817
26218W        W42027   2.917  12.100  11.585 -0.0783 -0.0279  0.2415
26219W        W42028  13.636  15.187   0.850  0.0820  0.4454  0.2415
26220W        W42029   3.921  18.205  10.991 -0.0484  0.0996  0.2514
26221W        W42030   3.932  17.169  14.649  0.3412  0.0193  0.1566
26222W        W42031   4.889   7.807   1.761 -0.1368  0.0881 -0.1917
26223W        W42032  15.019  13.090   1.558  0.0790 -0.0136  0.0413
26224W        W42033   7.507  16.433   2.434 -0.0183 -0.0448  0.0072
26225W        W42034   3.844   6.198   1.207  0.1369 -0.2537 -0.3586
26226W        W42035  14.283   8.662  14.812 -0.2975 -0.1009 -0.1690
26227W        W42036  18.208  15.388  11.814 -0.0105  0.2565  0.0729
26228W        W42037   3.313   5.141  12.500  0.1329 -0.3078 -0.1339
26229W        W42038  17.970   6.614   3.235  0.2809 -0.1334 -0.2994
26230W        W42039  18.330   6.100   4.758 -0.1346  0.0558  0.4363
26231W        W42040   3.512   1.968   1.830 -0.1109 -0.2287  0.2155
26232W        W42041  14.133   1.728   3.128  0.2764 -0.0277 -0.0128
26233W        W42042   3.576   7.666  12.396 -0.1161 -0.0038 -0.1755
26234W        W42043  12.732  16.965   4.371  0.2745 -0.1022 -0.3936
26235W        W42044  12.785   2.457   5.404  0.1187  0.0353 -0.1114
26236W        W42045   5.168   6.760   3.169 -0.1305 -0.1632 -0.2535
26237W        W42046  12.087  17.674   0.557 -0.3258 -0.0114 -0.1293
26238W        W42047  15.526  16.686   4.580  0.2845 -0.0701  0.3743
26239W        W42048  13.080   1.238   2.896  0.0510 -0.0944 -0.2931
26240W        W42049   0.100  12.976   4.136 -0.0227  0.2889 -0.1744
26241W        W42050  15.623   0.419   2.680  0.0233 -0.4166  0.2500
26242W        W42051   5.248  15.010   0.642 -0.2261  0.1041  0.0527
26243W        W42052   7.906   0.366   1.092 -0.2939 -0.3869  0.1322
26244W        W42053   2.362   6.272  12.372 -0.1345 -0.0304 -0.1174
26245W        W42054  12.803   5.790   2.436  0.0034  0.0994 -0.2634
26246W        W42055  12.814   8.816  12.822  0.0767  0.1828  0.1447
26247W        W42056  13.284   4.616  14.902  0.2644  0.1687  0.2696
26248W        W42057   0.768   6.755   1.908 -0.1142 -0.1835  0.1958
26249W        W42058  11.373   6.486   1.060  0.0467 -0.2397  0.1860
26250W        W42059  17.060  12.462   1.974 -0.1799 -0.0201 -0.4510
26251W        W42060   9.362  12.159   2.661  0.1840 -0.0620 -0.1264
26252W        W42061   4.479   0.039   9.833 -0.3625  0.0677 -0.5523
26253W        W42062  11.605  14.858   3.777  0.0416 -0.2287 -0.1445
26254W        W42063  14.599   9.086  13.214 -0.2250 -0.0084  0.0007
26255W        W42064  15.103  16.251  11.820  0.1422  0.0408  0.0494
26256W        W42065  10.992   8.864  11.571 -0.3103  0.0603 -0.1294
26257W        W42066   1.567  12.018   4.504 -0.1763  0.0955  0.2781
26258W        W42067   6.012  11.324  11.738 -0.3480 -0.1283 -0.0463
26259W        W42068   6.487  10.096   2.779  0.2632 -0.1061  0.0604
26260W        W42069   1.387   4.128   4.034 -0.2779  0.2211 -0.0897
26261W        W42070  12.215  11.595  11.620  0.1264  0.1085  0.0292
26262W        W42071  16.603  11.577  13.789  0.2882  0.1705  0.0110
26263W        W42072  15.988  14.272  13.976 -0.3267 -0.1157 -0.1822
26264W        W42073   4.361  16.200   3.476 -0.2104  0.1619  0.1429
26265W        W42074   3.419   8.336   1.487  0.1027  0.1336  0.0203
26266W        W42075   5.506   1.667  10.652  0.0645 -0.2191  0.0848
26267W        W42076   4.181   1.270   3.212 -0.4083  0.0661 -0.2254
26268W        W42077  17.619  12.908   2.724  0.2065 -0.0229  0.1592
26269W        W42078  16.259  15.991   3.166 -0.1567  0.1021 -0.1193
26270W        W42079   3.467   6.467   0.411  0.3180 -0.1211  0.1492
26271W        W42080   9.403   6.051   4.805  0.1112 -0.0528 -0.0710
26272W        W42081  14.848  15.189   0.861 -0.0047 -0.0460  0.1507
26273W        W42082   0.307  10.710   3.828  0.0140 -0.0007 -0.0654
26274W        W42083  10.814   1.179  12.314 -0.0862  0.2333 -0.0762
26275W        W42084   5.580  17.880  14.893  0.3100 -0.1515 -0.0805
26276W        W42085   2.745   3.530   1.079 -0.2898 -0.5244 -0.0528
26277W        W42086   2.395   8.456   1.510  0.1774 -0.3437 -0.1419
26278W        W42087  10.818   4.136  14.102  0.2020  0.1932 -0.2437
26279W        W42088   6.248   4.307  13.387  0.0289 -0.0115  0.1737
26280W        W42089   6.007   9.746  10.328  0.2194 -0.0147  0.2641
26281W        W42090  12.130  14.901  12.720  0.1895  0.3060  0.2716
26282W        W42091   8.876   6.684   3.029 -0.1779 -0.0091 -0.0415
26283W        W42092   1.247   5.032  11.347  0.0905  0.2260  0.1158
26284W        W42093   7.204   9.656   0.985 -0.0821 -0.1693 -0.0854
26285W        W42094   2.070   1.017  13.560 -0.4791  0.2843 -0.1676
26286W        W42095   2.774  17.908   3.053 -0.0571 -0.0522  0.2022
26287W        W42096  15.680   0.941   4.976  0.0288 -0.1638 -0.0916
26288W        W42097   5.447  10.541  10.099 -0.1781  0.3532 -0.1867
26289W        W42098  14.092  10.766  12.935 -0.0321  0.1860  0.0572
26290W        W42099  16.525   4.866   0.276 -0.2369  0.1066 -0.0432
26291W        W42100   8.439   8.197  12.802  0.0684 -0.1378  0.0474
26292W        W42101  16.389   7.263  10.725 -0.0988 -0.2025 -0.1357
26293W        W42102   3.770   8.832   1.624 -0.4151  0.1203  0.2262
26294W        W42103   3.286  15.710  10.597 -0.0393  0.0053  0.3115
26295W        W42104  16.418   3.142   3.074  0.4616  0.1099  0.2200
26296W        W42105   0.876   2.292   3.049  0.2658 -0.0620  0.1899
26297W        W42106  12.057   3.699  11.054  0.1516 -0.1745  0.0120
26298W        W42107   2.720   5.090   4.943 -0.0570 -0.3122 -0.0204
26299W        W42108   5.059   1.261   2.566 -0.1778 -0.0128  0.0997
26300W        W42109   0.399  11.447  14.648 -0.2046 -0.2588  0.0333
26301W        W42110  13.791  18.467   2.372 -0.0424  0.2659  0.2993
26302W        W42111  10.040  10.721   4.930  0.1218 -0.1245  0.0427
26303W        W42112   6.079   4.532  10.573 -0.3520 -0.2948  0.0863
26304W        W42113  16.671  14.095  14.831  0.1364 -0.0745 -0.2212
26305W        W42114  18.175  15.355  12.399 -0.0086 -0.0831 -0.0805
26306W        W42115   3.820  18.441  10.355 -0.1230 -0.0075  0.2864
26307W        W42116  18.777   2.327   3.692  0.4061 -0.1422 -0.0439
26308W        W42117   2.143  12.859  11.779  0.0163 -0.2811  0.1548
26309W        W42118  16.435   0.062   6.142  0.0183 -0.4716 -0.1688
26310W        W42119  15.364  11.722   2.737 -0.1979  0.0120  0.1097
26311W        W42120  11.987  16.222   3.001 -0.3477  0.0100 -0.4441
26312W        W42121   2.602   5.292   0.158  0.0065 -0.0577 -0.1113
26313W        W42122  15.908  12.617  10.865  0.2235 -0.1644 -0.2589
26314W        W42123  18.333   7.453  15.560 -0.3453  0.0630 -0.3918
26315W        W42124   3.022   7.004   2.692 -0.0696 -0.0018 -0.0909
26316W        W42125  18.615   7.498   2.471 -0.1611  0.0967  0.1563
26317W        W42126  16.689  10.205   1.639  0.2210  0.1928  0.0276
26318W        W42127   6.787   7.025  12.057  0.1265  0.1013  0.1416
26319W        W42128  15.957   6.232   2.888  0.1865 -0.0059  0.1754
26320W        W42129   7.069  14.409   2.618 -0.3102  0.0729 -0.0098
26321W        W42130   8.601  18.288  12.097  0.1956  0.1540  0.0808
26322W        W42131   0.337   6.444   1.040  0.1359 -0.0757 -0.1240
26323W        W42132  16.690   6.927   2.993 -0.0571  0.0834  0.1472
26324W        W42133   3.822  14.331  13.172  0.1443 -0.0518 -0.0735
26325W        W42134   9.735   9.352   2.797 -0.1129  0.0276  0.0587
26326W        W42135  15.556  12.258  14.000 -0.0652  0.0588 -0.1105
26327W        W42136   6.842  14.509  15.317 -0.1198 -0.1203  0.2805
26328W        W42137  15.238   6.014   3.513 -0.0488  0.0317 -0.2474
26329W        W42138   4.426   8.504   5.932  0.2560  0.0106  0.2624
26330W        W42139   0.417   0.185  14.355  0.0298  0.0216  0.1016
26331W        W42140  16.999  16.596  14.609 -0.1283  0.0501  0.1355
26332W        W42141   3.192  11.133   1.048  0.1098 -0.0932  0.1455
26333W        W42142   2.821  11.095   5.592 -0.1779 -0.1888 -0.4488
26334W        W42143   3.963   5.761  13.648  0.0859 -0.0005 -0.4550
26335W        W42144  16.017  13.790  13.991 -0.3971 -0.0502  0.1134
26336W        W42145   4.984   3.967   0.614  0.2667 -0.2850  0.0185
26337W        W42146   0.815   4.781   1.678  0.0033  0.0381 -0.2579
26338W        W42147  18.272  18.360   4.808  0.3756  0.0520  0.0045
26339W        W42148  18.753   4.288   3.077  0.0042 -0.1297  0.1974
26340W        W42149   9.297   9.934   1.706 -0.2395  0.0246 -0.0346
26341W        W42150   2.088   0.648   0.185 -0.1547  0.1626  0.0771
26342W        W42151   5.402   9.993   4.657  0.1709 -0.1004 -0.2209
26343W        W42152   2.247   7.640  10.883 -0.0598  0.0232 -0.1340
26344W        W42153   7.359  17.688  13.133  0.0711 -0.0596  0.1727
26345W        W42154   0.008  11.356   2.830 -0.0268  0.1994  0.2412
26346W        W42155  11.224  15.350  10.747 -0.2977 -0.0918  0.0503
26347W        W42156   8.490  10.415  14.867 -0.0219 -0.0751  0.0072
26348W        W42157   7.184  17.001   5.702 -0.1452  0.1291  0.2576
26349W        W42158   5.718   8.961  14.940 -0.0610  0.0289  0.2516
26350W        W42159  13.779   1.916  13.962  0.1668 -0.0504 -0.0871
26351W        W42160  15.974   0.408  10.480 -0.6121 -0.1110 -0.1132
26352W        W42161   1.154  10.050  13.201 -0.0625 -0.0010  0.1164
26353W        W42162  11.683  14.280  14.288  0.2845 -0.2280  0.1670
26354W        W42163  15.246   7.681  12.943  0.0968  0.0413  0.2832
26355W        W42164   0.661   5.492   1.239  0.1955 -0.1997 -0.3858
26356W        W42165  17.820   8.665  14.359 -0.2463  0.1297  0.0548
26357W        W42166  14.308   1.738  12.034 -0.0294 -0.1721 -0.0285
26358W        W42167  13.869  11.717   1.214  0.0333  0.2054  0.2135
26359W        W42168   4.985   6.679   3.671 -0.1173 -0.3157  0.1019
26360W        W42169  11.049   9.618  12.995 -0.1290 -0.0167  0.0219
26361W        W42170  10.713  14.057  14.212  0.0463 -0.1297  0.0772
26362W        W42171   5.853  18.513   5.125 -0.1339 -0.2427 -0.1468
26363W        W42172   4.644   5.502   0.170 -0.2838 -0.0953  0.2234
26364W        W42173   3.046   4.746  11.865  0.1218 -0.0693 -0.2037
26365W        W42174  15.915  13.239   2.118  0.1914  0.3749  0.1878
26366W        W42175  11.714  17.565   4.760  0.1613 -0.3560 -0.0358
26367W        W42176   2.906  18.682   3.808 -0.1419  0.0862  0.1219
26368W        W42177  17.111   8.949   5.048 -0.0085  0.3841 -0.2477
26369W        W42178  15.359   9.083  13.979  0.0998  0.4691 -0.1624
26370W        W42179   7.403  15.175   1.560  0.1043  0.1208  0.0816
26371W        W42180  10.632   8.910   2.217  0.0409  0.1256  0.0657
26372W        W42181   5.108   4.052  11.969 -0.0650  0.2585 -0.1684
26373W        W42182  10.092   0.835   4.836 -0.2662  0.2701  0.2219
26374W        W42183  18.456   8.627   3.954 -0.1099 -0.0657  0.0463
26375W        W42184   7.732   1.431  14.961  0.2258  0.0638 -0.2230
26376W        W42185   0.018  12.165   4.121 -0.0045 -0.1644  0.0590
26377W        W42186   4.838  15.756  10.777 -0.1703  0.2552  0.0832
26378W        W42187   9.339  17.249   4.919  0.1080  0.1698 -0.0447
26379W        W42188   5.885  13.036   2.851 -0.1413  0.0677  0.2827
26380W        W42189  11.991  11.851   5.363 -0.0649  0.2271  0.1614
26381W        W42190   3.730  13.336  15.215  0.2599 -0.0640 -0.0037
26382W        W42191   6.570   6.112   2.439 -0.2259 -0.1567 -0.0708
26383W        W42192   9.060  15.850   2.480 -0.0271 -0.0131 -0.0658
26384W        W42193   7.981  13.147   3.507  0.1272 -0.2422 -0.0378
26385W        W42194  12.465   7.842   1.932  0.0582  0.2569  0.1127
26386W        W42195  18.316   3.863   5.738 -0.0753 -0.1093  0.0883
26387W        W42196  14.423   9.473   3.115  0.2529  0.1255 -0.3078
26388W        W42197  16.314   9.673   4.439  0.0427  0.1976 -0.0925
26389W        W42198   3.007   5.541   4.171 -0.3955 -0.1576 -0.0639
26390W        W42199   1.492  10.570   0.257  0.0066 -0.0031  0.2268
26391W        W42200  18.376   8.441  12.955 -0.0422 -0.0347  0.1383
26392W        W42201  18.089  17.155   4.297 -0.1933 -0.1887 -0.0623
26393W        W42202  14.895   8.991   5.058  0.1040 -0.0501 -0.1510
26394W        W42203  11.782   9.072  14.063  0.0415 -0.2697 -0.1080
26395W        W42204   9.831   1.668   1.295  0.0700  0.0618 -0.1817
26396W        W42205   5.793   0.233   4.949 -0.0764 -0.0380 -0.3480
26397W        W42206  14.136   4.108   4.002  0.1367 -0.0863 -0.1614
26398W        W42207  15.544   9.806   1.401 -0.2643 -0.1000  0.0794
26399W        W42208  10.433  15.077  11.349 -0.1056  0.1148 -0.1049
26400W        W42209  10.271   6.591  14.166  0.1680 -0.0033 -0.1675
26401W        W42210   8.710   7.783  14.640 -0.2796 -0.0949 -0.0819
26402W        W42211   0.744  16.520  14.677 -0.2121 -0.1145 -0.2845
26403W        W42212   2.458  11.112   1.470  0.2436  0.1689 -0.0136
26404W        W42213  13.247   4.820  13.570 -0.0415 -0.4058  0.4044
26405W        W42214   2.504  12.591  11.500  0.0344 -0.0473  0.0808
26406W        W42215   7.631   5.120   1.495 -0.1023 -0.0290  0.0412
26407W        W42216  15.423   3.116   1.044  0.0843 -0.0028 -0.2283
26408W        W42217   3.867  14.398  12.243  0.4552  0.2387 -0.1287
26409W        W42218   3.593  11.313   4.583  0.2075 -0.0986  0.0555
26410W        W42219   7.072   1.901  11.219  0.2474  0.4022 -0.2505
26411W        W42220  12.240  18.743   4.478  0.1473 -0.2880 -0.3072
26412W        W42221   9.985   2.369  12.114  0.2611 -0.1691  0.0565
26413W        W42222   1.671   9.142   2.242  0.1369  0.0270  0.1039
26414W        W42223   0.195   2.968  11.947 -0.0973  0.2585  0.1041
26415W        W42224   4.916   9.566   3.790  0.2038  0.0012  0.1078
26416W        W42225   5.889   0.579   0.233  0.1652 -0.2795  0.1439
26417W        W42226   8.599   4.747   3.506 -0.0188 -0.0112  0.3608
26418W        W42227   8.857  10.534  13.071 -0.2347  0.0144  0.1123
26419W        W42228   4.765  10.520   4.208  0.0055  0.1374 -0.0733
26420W        W42229   0.359  12.206   2.939 -0.1023  0.0368  0.0896
26421W        W42230   8.659   8.130   3.430  0.2124  0.0916  0.1571
26422W        W42231   4.195  15.431  14.538 -0.0217 -0.3348  0.0731
26423W        W42232   3.539  12.186  10.825 -0.2147  0.2436 -0.1600
26424W        W42233   1.056   9.887  10.507 -0.0697  0.2549 -0.0526
26425W        W42234  11.896  16.577   4.229 -0.0834 -0.0939 -0.4261
26426W        W42235   9.506   2.328   4.936  0.1362 -0.1466  0.0401
26427W        W42236  15.909  16.332  13.622  0.1093  0.1703  0.0412
26428W        W42237  16.363   5.571   3.641 -0.1662 -0.1187  0.1720
26429W        W42238  12.732   0.552   5.736  0.0789  0.1238  0.1103
26430W        W42239   8.756   9.692  13.145  0.2319 -0.1712 -0.1460
26431W        W42240  14.189   8.146   4.448 -0.2750 -0.0995 -0.0150
26432W        W42241   4.821  10.889   3.568  0.1589  0.1610 -0.4319
26433W        W42242   2.934   3.825  10.700  0.2299  0.0058 -0.1182
26434W        W42243   0.889  11.481  10.466 -0.2773  0.0217  0.0549
26435W        W42244   2.760   4.602   1.211 -0.0484 -0.1698  0.0948
26436W        W42245   5.377   9.727  12.153  0.2925 -0.0347 -0.2373
26437W        W42246  10.754   6.570  15.376 -0.3413 -0.0884  0.0098
26438W        W42247   5.685  12.729   1.806  0.1137  0.0272  0.2623
26439W        W42248   0.383  12.061  13.253  0.0971  0.2205  0.0961
26440W        W42249   3.275   7.828  11.068 -0.0979 -0.1973  0.0964
26441W        W42250  10.170  13.372   3.211 -0.0082  0.0237 -0.1148
26442W        W42251  11.256   9.968   2.046  0.1848 -0.0507 -0.1294
26443W        W42252   9.232  15.123  12.108  0.1935  0.1534 -0.3895
26444W        W42253   2.647  17.670  10.782  0.0639 -0.1994  0.1591
26445W        W42254  17.755   9.747   4.883  0.1948  0.0277  0.1187
26446W        W42255   6.638  16.438   4.665 -0.0745  0.1863  0.0926
26447W        W42256   8.009   9.448   1.967  0.3231  0.0748 -0.3435
26448W        W42257  17.883  12.629  13.262 -0.1411  0.0134  0.0742
26449W        W42258  14.976   2.600   5.097  0.4679  0.3142 -0.1498
26450W        W42259   6.847   2.196   1.941 -0.1522 -0.2321 -0.0964
26451W        W42260  10.820  10.292  11.299  0.0859  0.0229  0.3872
26452W        W42261   5.854   1.766  11.408 -0.1035  0.1745  0.3320
26453W        W42262  17.998  11.879  14.596  0.1261  0.2017  0.1972
26454W        W42263  17.569   4.625  10.842 -0.2280 -0.1332 -0.3577
26455W        W42264   5.972  17.473   1.706 -0.1309 -0.0329 -0.2682
26456W        W42265   9.821  10.928  12.358  0.0384 -0.1302 -0.2305
26457W        W42266   8.169  13.640   1.366 -0.1723 -0.2337 -0.4099
26458W        W42267  11.833   2.743  13.168  0.0152 -0.2445 -0.1247
26459W        W42268  13.481   1.371   1.824 -0.1818  0.2904 -0.1734
26460W        W42269   5.389   0.962  11.387  0.1200 -0.0220  0.0090
26461W        W42270   5.955   5.499  11.248 -0.1527 -0.1936 -0.0909
26462W        W42271   7.568   0.441  13.255 -0.1604  0.0519  0.1904
26463W        W42272   5.014   6.863   1.831  0.2109  0.0827  0.2553
26464W        W42273  17.819  12.047   4.912 -0.1304  0.0747 -0.0587
26465W        W42274  13.175   9.910  13.753 -0.1913  0.1752 -0.2303
26466W        W42275  12.183   9.050  10.416  0.1081  0.1721 -0.0061
26467W        W42276  14.822   7.322   1.352 -0.0090 -0.1469  0.3876
26468W        W42277  15.846  14.373   1.447  0.0929  0.2383  0.4997
26469W        W42278  17.209   9.909   3.159 -0.0927  0.1672  0.0368
26470W        W42279   2.122   7.319   9.944 -0.0850  0.3107  0.0152
26471W        W42280   8.698  11.703   3.088 -0.0372  0.2667  0.2006
26472W        W42281  16.665   5.168  14.942  0.0349  0.4699  0.0861
26473W        W42282   8.171   4.801   3.210 -0.3131 -0.3322  0.0013
26474W        W42283  12.031   6.987   0.008 -0.4612  0.0829  0.0825
26475W        W42284  10.057   0.558  11.611 -0.0365  0.0115  0.0661
26476W        W42285  12.487   0.068   4.039 -0.0017  0.0906  0.2192
26477W        W42286   0.901   9.540   1.230 -0.1225  0.2153  0.0722
26478W        W42287   6.513  18.275  13.141 -0.0218  0.0015  0.0492
26479W        W42288  11.407   2.907  13.019 -0.0225 -0.1230 -0.0032
26480W        W42289  14.062   4.670   5.226  0.1075  0.2562 -0.0749
26481W        W42290   5.233   1.355   1.054 -0.2289  0.1520  0.0113
26482W        W42291   5.748   4.249   3.203 -0.2950  0.0513  0.0478
26483W        W42292   8.470   2.240   5.436 -0.5028 -0.0905 -0.0609
26484W        W42293   1.997  12.229  14.456 -0.1134 -0.0744  0.0477
26485W        W42294  15.191  14.463  15.456  0.0790  0.1030  0.0411
26486W        W42295  18.440   6.727   3.082  0.1544 -0.3073  0.1424
26487W        W42296   7.762   2.845   1.232  0.0865 -0.0763  0.1495
26488W        W42297   0.687   8.033   4.668 -0.0583  0.0932  0.0640
26489W        W42298  13.056   2.695  12.434 -0.2671  0.3142 -0.1351
26490W        W42299   0.834   7.210   0.211  0.4396 -0.1275 -0.2457
26491W        W42300  16.011   5.882   0.292  0.3089  0.2770  0.1634
26492W        W42301   6.044  11.157   0.254 -0.1522 -0.1490 -0.0378
26493W        W42302  12.766   9.236   2.786  0.2386  0.0159  0.0414
26494W        W42303   2.856  16.437   4.147 -0.1311 -0.0006 -0.2226
26495W        W42304   7.146   1.704  11.708  0.1803 -0.1740  0.1490
26496W        W42305   5.910   9.524  13.721  0.0585 -0.0246  0.4489
26497W        W42306  18.424  17.675  15.045  0.2534 -0.1284  0.4618
26498W        W42307   7.169   9.003  13.651 -0.0276  0.1620 -0.1261
26499W        W42308  12.754  16.048   5.006 -0.3168  0.1992 -0.0037
26500W        W42309   6.892  17.829  14.978  0.3124  0.0249  0.3666
26501W        W42310  18.140   1.211  13.999 -0.5014  0.3863  0.0748
26502W        W42311   5.252  17.336   9.509 -0.0526  0.1091  0.0248
26503W        W42312   5.106   8.794   6.110  0.2263 -0.2504  0.7951
26504W        W42313  15.074   6.949  12.177  0.1192 -0.5392 -0.1117
26505W        W42314  13.307   3.218  13.111 -0.0808 -0.1319 -0.0280
26506W        W42315   3.299   3.827  12.328 -0.0500  0.0033 -0.2068
26507W        W42316  10.489   3.654   1.604  0.0770 -0.1428  0.0948
26508W        W42317  18.597  10.814  10.902 -0.0606  0.0798 -0.0677
26509W        W42318   3.760  13.579   3.646  0.2575 -0.1022  0.0842
26510W        W42319  10.282   6.349   4.678 -0.1578 -0.0912  0.1072
26511W        W42320  13.802   2.021  12.663  0.2990 -0.0217  0.1028
26512W        W42321   9.663  12.201  13.422  0.1406  0.0058 -0.1713
26513W        W42322   9.373   7.287   2.244  0.1440  0.1034 -0.1345
26514W        W42323  16.254  15.990  13.767  0.1446  0.1565 -0.1397
26515W        W42324  11.447   6.329   1.948 -0.0686 -0.1356  0.0220
26516W        W42325   4.782   9.758  11.414 -0.1768 -0.0332  0.1957
26517W        W42326   9.571   7.689  15.540  0.2678  0.1437 -0.1512
26518W        W42327  16.078  10.010   0.180  0.2347 -0.1925  0.2125
26519W        W42328  10.873  17.386   5.476 -0.0822 -0.1383 -0.2379
26520W        W42329   5.408  10.317  13.013  0.0929 -0.1400  0.0733
26521W        W42330   4.036  16.638   4.476  0.1924  0.3402  0.0915
26522W        W42331   6.767  13.997   3.832 -0.0030 -0.1182  0.0306
26523W        W42332   9.035  12.624  12.397  0.1290 -0.1196  0.1661
26524W        W42333  10.625  10.789  15.422  0.0790  0.0224 -0.1363
26525W        W42334   5.359  14.161  10.812  0.0065 -0.1929 -0.0075
26526W        W42335   6.304  16.983   3.344 -0.1732  0.0365  0.0619
26527W        W42336  17.317  13.275  12.470 -0.2060 -0.3521 -0.1343
26528W        W42337   8.719  15.968  14.871 -0.1999  0.1272  0.2817
26529W        W42338   3.854  12.068  13.101 -0.2235  0.0436 -0.0187
26530W        W42339  15.004  17.624  14.489 -0.1514  0.0822  0.3235
26531W        W42340   5.048   7.313   3.385  0.1872  0.1582 -0.1398
26532W        W42341   7.249  18.319   3.398  0.0330  0.0910 -0.1057
26533W        W42342  10.716   9.301  13.400 -0.1123  0.1341  0.0943
26534W        W42343  15.938   6.641   5.818 -0.3809  0.0153  0.0156
26535W        W42344   9.813   7.146   4.042  0.3943 -0.0151 -0.2178
26536W        W42345   2.810  16.862   2.997  0.1856 -0.2105 -0.3909
26537W        W42346  15.590  13.800   0.456 -0.1016 -0.0807  0.0106
26538W        W42347   6.971   8.378  12.805  0.0159 -0.1614 -0.2101
26539W        W42348  10.715   2.591   4.403  0.0252  0.3685  0.2565
26540W        W42349   7.790   1.122  14.498  0.5601 -0.1236 -0.0570
26541W        W42350  15.962  12.417   0.984  0.0585 -0.0342  0.0486
26542W        W42351   6.301   5.177  10.387 -0.4154  0.0951  0.1366
26543W        W42352  15.047  18.563   0.755  0.1012 -0.0431 -0.1485
26544W        W42353   0.207  18.478   0.466  0.1615  0.2937  0.4104
26545W        W42354   1.801   1.035  12.374 -0.0135  0.0884 -0.0274
26546W        W42355   9.199   0.803  12.858  0.1201 -0.2831  0.0265
26547W        W42356   5.250   5.434  12.169 -0.1670 -0.3072 -0.3672
26548W        W42357   4.616   1.197  14.914 -0.0128  0.1215  0.0279
26549W        W42358   4.686  17.107  13.374 -0.0760  0.2260  0.4340
26550W        W42359   6.198   5.823   4.176  0.4142  0.0840  0.0883
26551W        W42360   4.593   2.886  12.817 -0.0714  0.2174  0.1455
26552W        W42361  10.417  10.722   2.849  0.0042  0.0839  0.0045
26553W        W42362   5.758   6.578   4.958 -0.0209 -0.1474 -0.0752
26554W        W42363   8.745   0.386  15.111  0.1373  0.3879  0.0561
26555W        W42364  12.889   6.238  13.924 -0.2480  0.2789  0.1121
26556W        W42365   9.346   7.165  14.506  0.0392 -0.0669 -0.0224
26557W        W42366   5.682  16.142   4.551  0.0927 -0.4068 -0.1929
26558W        W42367   5.906  16.905   0.950  0.2956 -0.4802  0.0160
26559W        W42368  14.098  10.464  11.564  0.0831 -0.0533 -0.0331
26560W        W42369  16.093   6.537  13.427 -0.0028 -0.3797  0.3443
26561W        W42370  10.498   1.474  11.670 -0.1297  0.5643 -0.1170
26562W        W42371   9.079   4.352   1.182 -0.0775  0.0310 -0.0315
26563W        W42372   8.561   6.894   0.436 -0.0248  0.0979 -0.0108
26564W        W42373   1.097   4.723  12.753 -0.1294 -0.2983  0.2306
26565W        W42374   0.268  10.335   4.187 -0.2412 -0.1399  0.1245
26566W        W42375   8.255  11.774  12.701  0.1212  0.2926  0.0402
26567W        W42376  17.457   5.969  12.460 -0.1265 -0.0107 -0.0463
26568W        W42377   2.149  13.461  13.699 -0.3847  0.0553  0.4170
26569W        W42378   8.511  15.952   3.708 -0.2138 -0.1165 -0.1924
26570W        W42379   5.793  16.025  15.136  0.0759 -0.0648  0.1527
26571W        W42380  15.135   4.690  15.190 -0.0084  0.1305 -0.1161
26572W        W42381   7.962   7.586   1.278  0.1051  0.1925 -0.2180
26573W        W42382  13.125  17.601  14.848 -0.1856  0.1601  0.1312
26574W        W42383   2.527   7.193  11.603  0.3415  0.1551  0.2694
26575W        W42384  12.160  15.435  14.985 -0.1887  0.0303 -0.2220
26576W        W42385  12.446  17.053  12.131  0.1240 -0.0540  0.1305
26577W        W42386   8.775  17.056  15.311  0.0488 -0.2687  0.2043
26578W        W42387  14.114   5.522  14.146 -0.1851 -0.1139 -0.1868
26579W        W42388  11.027  14.250  10.730 -0.0293 -0.0146  0.1961
26580W        W42389   3.391   7.171   1.290 -0.0653  0.2602 -0.2167
26581W        W42390   3.541   1.943  10.673 -0.0204  0.1907 -0.1222
26582W        W42391  18.450  10.731   1.365 -0.3072  0.1940 -0.2424
26583W        W42392   8.672   5.799  14.711 -0.3588 -0.2398  0.0174
26584W        W42393  15.857  18.603   2.684 -0.1396 -0.1816 -0.0393
26585W        W42394   1.336  13.044  13.303  0.1606 -0.2686 -0.1651
26586W        W42395   8.761  11.055  10.568  0.2654 -0.1233  0.1317
26587W        W42396   5.381   5.597  12.633 -0.0141 -0.1327 -0.1446
26588W        W42397  18.103   6.162   4.087  0.0490  0.1303 -0.0016
26589W        W42398   8.654   9.175  13.135  0.3380 -0.1734 -0.0438
26590W        W42399   3.745  13.018   9.794  0.1381 -0.2990 -0.1188
26591W        W42400   4.056  11.697   4.415  0.4967  0.1946 -0.2827
26592W        W42401  16.284  12.175  12.372 -0.0712  0.1267 -0.0627
26593W        W42402  13.176  16.806  11.889 -0.2310  0.0852  0.2973
26594W        W42403   4.551   0.209  10.769  0.1190 -0.1150  0.1450
26595W        W42404  15.462  16.574  10.914 -0.0345 -0.1762 -0.2535
26596W        W42405  13.299   1.823  13.904 -0.0002  0.0975 -0.1231
26597W        W42406   2.017   7.825   2.718 -0.1458  0.0208  0.0918
26598W        W42407  16.561   5.689  12.766 -0.0008  0.0151 -0.0400
26599W        W42408   1.912  10.317   3.903  0.0683 -0.2331  0.1207
26600W        W42409  15.001  15.307  12.908  0.0796 -0.3595 -0.0133
26601W        W42410   9.498  10.680  13.559  0.0215 -0.1293 -0.2873
26602W        W42411  12.746   3.443   2.309  0.2591  0.0776  0.0902
26603W        W42412  12.078   4.415   4.642 -0.3125 -0.0610  0.0877
26604W        W42413   4.887  15.845   4.110  0.1135  0.0015  0.3164
26605W        W42414   7.116   5.156   3.515  0.0702  0.0109 -0.0201
26606W        W42415  16.166  18.516   2.253 -0.2041  0.0026  0.1399
26607W        W42416  15.998   1.796  12.979 -0.3824  0.1864 -0.0775
26608W        W42417   3.105   6.765  13.400  0.2699  0.0803  0.0313
26609W        W42418  13.772   6.658   0.655 -0.1663  0.1841 -0.0284
26610W        W42419   3.840  11.231  10.789 -0.1361 -0.2807  0.2008
26611W        W42420  13.268   2.834  14.559 -0.2975 -0.4464 -0.3453
26612W        W42421   1.601  14.547   3.778  0.1709 -0.2721 -0.1802
26613W        W42422  13.260   7.692  11.540 -0.1174 -0.0208 -0.0710
26614W        W42423   0.973   9.205  13.620  0.1651 -0.1791 -0.0564
26615W        W42424  10.069   7.251   4.781 -0.0927  0.2126 -0.2331
26616W        W42425  11.088  16.299   3.291  0.1144 -0.0388  0.1941
26617W        W42426  17.978   8.260   0.005 -0.1556  0.0636  0.2298
26618W        W42427   9.754   2.315  10.864  0.0697 -0.1740 -0.3360
26619W        W42428   6.447   7.417  14.683  0.1147 -0.0708  0.1332
26620W        W42429   0.140   1.937  13.342 -0.1572  0.1084  0.2216
26621W        W42430  12.008  11.796   0.453  0.1121 -0.0245 -0.0294
26622W        W42431  16.135   8.859  11.905  0.0422 -0.1429 -0.2069
26623W        W42432   1.674   5.146  12.285  0.1811  0.1470 -0.0671
26624W        W42433   2.640  12.095   0.403  0.0566 -0.0141 -0.1203
26625W        W42434   0.287  18.642   4.483 -0.3109 -0.2287 -0.0419
26626W        W42435   7.887  12.824  10.927 -0.1883 -0.2427 -0.2752
26627W        W42436   2.376   1.696   0.882 -0.1128  0.2067  0.1964
26628W        W42437  16.627   2.531   0.188  0.3357  0.1407 -0.1676
26629W        W42438   6.813   4.629   2.259  0.2767 -0.0968 -0.0706
26630W        W42439   9.634   1.402   5.241 -0.2667 -0.1841 -0.2154
26631W        W42440   7.844   2.241   4.665  0.1880  0.1779  0.0950
26632W        W42441  12.886   1.963  11.189 -0.0888  0.1103 -0.2974
26633W        W42442   6.743   1.718  10.412 -0.3669 -0.1294  0.1356
26634W        W42443  15.776   3.972  11.991  0.0713  0.1959  0.0666
26635W        W42444   2.362   7.375  10.443  0.2338 -0.0490 -0.1684
26636W        W42445   1.449  13.554   4.218  0.1799  0.0274 -0.6772
26637W        W42446  11.453  11.603   4.189  0.2057  0.0718 -0.2475
26638W        W42447   3.199  15.120   2.927  0.3220  0.0543 -0.1073
26639W        W42448   8.811   4.987  14.823 -0.1740 -0.1299  0.1668
26640W        W42449   4.468  17.780   0.321 -0.1006 -0.0190  0.0584
26641W        W42450   6.191  12.628  13.999 -0.1656  0.2695  0.0225
26642W        W42451   5.764   2.265  11.373 -0.1036  0.1622 -0.3118
26643W        W42452   8.841  14.052  11.629 -0.0858  0.3243  0.1245
26644W        W42453   8.119  13.475   0.088 -0.0661  0.0086  0.0057
26645W        W42454  14.925   6.885  15.487  0.0711  0.3374  0.0135
26646W        W42455   8.903   3.208  10.921 -0.0348 -0.1350 -0.0767
26647W        W42456  18.212   8.994   0.019 -0.3734  0.3478  0.0561
26648W        W42457  18.053   4.478   2.030 -0.1581 -0.1629  0.0049
26649W        W42458  16.508  18.146  15.372 -0.1768 -0.0159  0.1140
26650W        W42459  17.331  10.897   3.047  0.4127 -0.3170 -0.1977
26651W        W42460  12.294   3.094   2.414 -0.0203 -0.2236  0.2565
26652W        W42461   4.176  14.697  12.897 -0.0663  0.0196  0.1362
26653W        W42462  15.631   0.512   0.814  0.0720 -0.0828  0.0262
26654W        W42463   7.416   6.519  15.458 -0.2834 -0.0567  0.3622
26655W        W42464   0.166   3.381   3.477 -0.4532  0.2163  0.3324
26656W        W42465  16.318   1.719   1.167 -0.0864  0.0905 -0.1700
26657W        W42466   2.530   2.476   2.542  0.0172  0.2641 -0.3394
26658W        W42467   2.530   4.467  10.969 -0.0943  0.1084 -0.0344
26659W        W42468   5.634   3.483   1.468 -0.1534  0.1869 -0.2403
26660W        W42469  12.248  17.890  14.915  0.0873  0.1124  0.3808
26661W        W42470   6.831  10.811  10.677  0.0042  0.3004 -0.0122
26662W        W42471  10.321  16.424   0.238 -0.2917 -0.2500 -0.0258
26663W        W42472   7.969   4.543   0.845 -0.0812 -0.0135 -0.3758
26664W        W42473  12.896  12.188   0.050 -0.0396  0.0117 -0.0835
26665W        W42474   6.353   5.646  11.624 -0.0907  0.2511 -0.0817
26666W        W42475  10.973   6.466   1.919 -0.1291  0.2563  0.0502
26667W        W42476   0.089  14.812   4.111  0.0252 -0.3494 -0.0769
26668W        W42477   3.407  15.090   4.862 -0.0453 -0.0248 -0.0671
26669W        W42478   0.536  18.064   3.708  0.4386  0.0892 -0.1511
26670W        W42479  16.441  11.077  14.018  0.1143 -0.3299 -0.3015
26671W        W42480   4.233   5.356   1.816  0.2867  0.1507  0.1033
26672W        W42481   7.993  14.068   2.655 -0.2046  0.3320  0.6172
26673W        W42482   8.394   0.785  11.897  0.1369 -0.2475 -0.0531
26674W        W42483   7.088  13.955  11.111  0.2131 -0.2633 -0.2321
26675W        W42484  14.496  13.229   4.119  0.0680  0.0573  0.2926
26676W        W42485   1.444  18.202  13.358 -0.1412  0.1191  0.2495
26677W        W42486  11.293   0.816  15.098 -0.0187 -0.4420  0.4963
26678W        W42487   7.688   3.869  11.304 -0.0054 -0.0954 -0.2077
26679W        W42488  14.882   0.237   3.638  0.0980 -0.1509 -0.0915
26680W        W42489   9.021  14.318   3.829 -0.1569 -0.0082  0.2922
26681W        W42490  13.271  15.383  12.591 -0.2055  0.0523 -0.1219
26682W        W42491   2.348   2.265  14.610  0.3193 -0.0565 -0.0048
26683W        W42492   0.440  17.853   1.175 -0.0579  0.2379  0.0049
26684W        W42493   4.564  15.323   3.005  0.0647  0.1336 -0.0239
26685W        W42494   5.668   9.836   5.429 -0.1265  0.0951 -0.0007
26686W        W42495   4.545   0.952   1.642  0.1159 -0.1085  0.0524
26687W        W42496   7.553  10.132  13.356 -0.0414 -0.0805  0.1147
26688W        W42497   2.416   1.774  12.445 -0.2476 -0.0263 -0.0667
26689W        W42498   1.170  16.277   3.261  0.2699  0.2234  0.3095
26690W        W42499  15.829  16.617  10.159  0.0758 -0.4346  0.0790
26691W        W42500   9.179   8.494   5.727 -0.3633  0.3524  0.3971
26692W        W42501   4.252   7.110  13.931 -0.0535  0.1252  0.0711
26693W        W42502  12.458  16.134  13.839 -0.1928 -0.2079 -0.0259
26694W        W42503   7.901   9.532   4.819  0.2736 -0.0049  0.1640
26695W        W42504  16.170   9.694  12.299 -0.2876 -0.0025 -0.0691
26696W        W42505   0.365   1.938  12.328  0.1077 -0.2086  0.0753
26697W        W42506   7.530  13.183  10.692 -0.0432 -0.1598 -0.1730
26698W        W42507   9.388  12.854  12.058  0.1941 -0.2340 -0.0302
26699W        W42508   4.316   0.464  11.200 -0.0265 -0.0031  0.0278
26700W        W42509   5.939  17.852   0.554  0.1731 -0.0530 -0.1739
26701W        W42510   6.891   9.857   4.003  0.0450  0.0749 -0.1132
26702W        W42511  13.008   3.347  11.747 -0.1175 -0.4260  0.1781
26703W        W42512   3.190  18.726  12.834  0.0814  0.1800  0.0005
26704W        W42513  14.586   7.342   0.326  0.1211  0.0857  0.2957
26705W        W42514   7.327   3.335  12.782  0.1759  0.0976 -0.1532
26706W        W42515  16.237   8.515  11.232  0.3156  0.0528 -0.1071
26707W        W42516  12.074   6.631  11.737  0.3058 -0.2044  0.1237
26708W        W42517  15.554   7.815   4.466  0.2834 -0.1728 -0.2884
26709W        W42518   2.765   9.454   4.228  0.2012  0.0914  0.1566
26710W        W42519  16.160  15.897  10.441  0.1650  0.1620 -0.0546
26711W        W42520  17.352  12.357   9.885 -0.1686 -0.1054  0.0378
26712W        W42521   9.258  13.196  10.619 -0.0808  0.3106 -0.0490
26713W        W42522  10.666   5.748   0.825 -0.0263 -0.1203  0.0922
26714W        W42523   3.422   9.172   1.501 -0.0599  0.0945  0.1165
26715W        W42524  14.846   1.966   1.603 -0.0817 -0.0366  0.3239
26716W        W42525   7.841  12.342   0.990 -0.0516 -0.0890  0.0598
26717W        W42526  10.593  10.617   3.320  0.1924 -0.2369  0.4219
26718W        W42527  12.539   7.075   0.164  0.0930  0.1933 -0.0147
26719W        W42528  17.039   8.947  14.709  0.2633 -0.0743 -0.0012
26720W        W42529   9.729   5.242   2.514 -0.2725 -0.0136 -0.1466
26721W        W42530  17.449   8.797  12.534 -0.0810 -0.0003 -0.3532
26722W        W42531  11.667   8.279  13.100 -0.2490  0.1388 -0.0147
26723W        W42532  10.523  13.916  12.381  0.1811 -0.1289 -0.1227
26724W        W42533   3.071   3.796   1.382 -0.1145 -0.6436 -0.0175
26725W        W42534   6.115  18.197  10.474 -0.3053 -0.3748 -0.1361
26726W        W42535   1.024  14.175   3.035  0.2969  0.0306  0.1336
26727W        W42536   4.657  14.128   3.055 -0.3767 -0.0386  0.0497
26728W        W42537  16.953   0.441  12.391 -0.0350  0.1564  0.0217
26729W        W42538   7.301   8.603  13.307  0.2764  0.0007  0.0663
26730W        W42539  14.672  11.531   1.670 -0.4149 -0.0629 -0.3722
26731W        W42540  14.973  11.992   2.401 -0.0173 -0.1964 -0.0886
26732W        W42541  14.696   5.786   1.993  0.1721 -0.3524  0.0856
26733W        W42542  18.538   6.267  15.156  0.6104  0.1544 -0.1646
26734W        W42543   7.206   3.001   3.298  0.1067  0.0404  0.1387
26735W        W42544   8.466  17.658  15.524 -0.2235  0.1550  0.0843
26736W        W42545  15.553  11.033  12.467 -0.0213 -0.0005 -0.1003
26737W        W42546   5.049  13.002  14.849 -0.0603 -0.3572 -0.0320
26738W        W42547   1.045   7.970  14.918 -0.1791 -0.1373 -0.1120
26739W        W42548   2.987  13.248  10.664  0.0634  0.1330  0.1171
26740W        W42549  14.044   2.975  12.709  0.0587  0.0641  0.0340
26741W        W42550   9.303  18.107  10.700  0.0295  0.1757 -0.0560
26742W        W42551   7.978  14.377  13.104  0.0004  0.0446  0.3687
26743W        W42552   5.618  17.389  14.825  0.1088  0.1905  0.1864
26744W        W42553  16.695  14.839  14.671 -0.1119  0.1353 -0.3496
26745W        W42554  13.051   2.271   0.470 -0.1390  0.2489  0.5463
26746W        W42555  18.498   0.337   0.155  0.2091  0.2781 -0.0739
26747W        W42556  14.004  15.014   2.463  0.1222 -0.0724  0.1663
26748W        W42557   5.163  13.170  13.813  0.0677 -0.2259  0.2119
26749W        W42558  11.736  11.288   4.452 -0.1114  0.1501 -0.0987
26750W        W42559  10.483   0.505   2.539 -0.2061 -0.0429 -0.3796
26751W        W42560   3.390   3.025   3.182  0.1204 -0.1863 -0.0518
26752W        W42561   2.722  12.829  15.379 -0.2880  0.1596  0.2478
26753W        W42562  11.931   2.274  13.571 -0.0631 -0.0455  0.1607
26754W        W42563  16.891  13.262   3.141 -0.4696 -0.0720 -0.2851
26755W        W42564  18.440   5.931  12.662  0.1804  0.0503  0.2201
26756W        W42565  14.748   1.371   1.567 -0.2593  0.0411  0.3033
26757W        W42566   6.996  16.916   4.495  0.1331 -0.0798  0.2291
26758W        W42567   6.260   3.692   0.996  0.0529 -0.0660  0.0963
26759W        W42568   5.111  16.040   0.974  0.1114 -0.1866 -0.1403
26760W        W42569  14.681   0.447   4.317  0.1674  0.3112  0.1520
26761W        W42570  18.757  18.109   1.739 -0.2165 -0.0853  0.3205
26762W        W42571  15.039  16.541   4.678  0.0865  0.1531  0.2423
26763W        W42572  14.893   0.855   2.928  0.5350 -0.0702 -0.4950
26764W        W42573  10.687  17.992  14.875 -0.2428 -0.1202  0.0875
26765W        W42574   2.960  12.107   2.001 -0.1195  0.2314  0.1041
26766W        W42575  12.649   7.027  12.324 -0.2165  0.3272 -0.2367
26767W        W42576  12.268  13.845   0.521  0.0100  0.1339  0.3817
26768W        W42577  17.440   8.120   4.489 -0.0806 -0.1467 -0.4219
26769W        W42578   3.132  11.627   2.857 -0.2124  0.0417  0.1039
26770W        W42579   1.938   6.642  10.804  0.2490 -0.1463  0.3089
26771W        W42580  10.262   1.268   3.382  0.2548 -0.2098 -0.0490
26772W        W42581   4.425   9.225  14.173  0.3613 -0.1345  0.0730
26773W        W42582   0.155  10.866  10.454 -0.0177  0.2715  0.0643
26774W        W42583  11.844   7.926   4.918  0.0950  0.1462  0.0280
26775W        W42584   7.303  13.438  15.311  0.1947  0.0002  0.1541
26776W        W42585   7.993   5.687  11.674 -0.1422  0.0914  0.2386
26777W        W42586  12.656  16.597  14.716  0.4045  0.1908  0.0665
26778W        W42587   9.177  15.569   5.620  0.3706  0.0357 -0.1011
26779W        W42588   4.155  12.999  15.137  0.1128 -0.1421  0.2111
26780W        W42589  10.088   1.775   3.614  0.1650  0.0815 -0.0911
26781W        W42590   9.329  15.969  11.771 -0.0220 -0.2594  0.0787
26782W        W42591  14.755  17.078   4.831  0.0366 -0.0235  0.1072
26783W        W42592   2.725  13.705   5.052 -0.0742 -0.2585 -0.0905
26784W        W42593  15.229   9.576   1.738 -0.1452 -0.3937  0.0005
26785W        W42594   4.803   3.759  15.351 -0.0370 -0.0290 -0.0217
26786W        W42595  16.015   5.148  10.554  0.3489  0.0210  0.0656
26787W        W42596  13.739   4.966   5.535  0.0983 -0.3881  0.0193
26788W        W42597   0.220   7.542  15.353  0.0092  0.1473 -0.0607
26789W        W42598  18.466   9.468  13.156 -0.1864 -0.0422 -0.1675
26790W        W42599  12.343   1.943   2.920 -0.1270 -0.0181  0.0511
26791W        W42600   2.416   8.054   3.952  0.0610  0.1174 -0.0317
26792W        W42601  12.279   8.918  14.152 -0.2112 -0.2447 -0.0552
26793W        W42602   5.518  10.604  15.182  0.1902  0.1076  0.0389
26794W        W42603   6.099  15.956   4.182  0.0893 -0.1830  0.4205
26795W        W42604   5.426  11.101  15.084 -0.1856  0.2345  0.1250
26796W        W42605   1.696  18.473   3.541  0.2204  0.1105 -0.1523
26797W        W42606  17.832  16.255  10.802  0.2750 -0.3696 -0.1628
26798W        W42607  18.132   9.584  12.121  0.0598  0.2292 -0.0960
26799W        W42608   4.432   9.505   3.567  0.2423 -0.1857 -0.2371
26800W        W42609  17.215  17.930  13.730 -0.2717 -0.4046 -0.0831
26801W        W42610  15.129   5.055   1.441 -0.1180  0.0259  0.1022
26802W        W42611   1.945  17.873   2.357  0.0804 -0.1088  0.1592
26803W        W42612  18.272   7.716   3.571  0.0462  0.0082 -0.0285
26804W        W42613   5.220  13.592   1.849  0.3515  0.0227 -0.0309
26805W        W42614  14.576   0.076  14.056  0.0320  0.0569 -0.2313
26806W        W42615  16.844  13.771   3.109 -0.0644 -0.2366  0.1416
26807W        W42616   2.882   0.828  15.378  0.0251  0.2510 -0.0945
26808W        W42617   0.683   2.965  11.087  0.3541 -0.0137 -0.1491
26809W        W42618   5.123  16.097   2.408 -0.2507 -0.0554 -0.1173
26810W        W42619  10.346  14.986   3.471 -0.0545 -0.0325 -0.0292
26811W        W42620   7.252   6.121   5.916  0.0157 -0.2008 -0.0299
26812W        W42621  10.804  15.848   1.058  0.1629  0.1770 -0.1676
26813W        W42622   5.308   6.740  12.805  0.1766  0.0052 -0.0890
26814W        W42623   6.666   9.521  14.236 -0.1075 -0.0598  0.0559
26815W        W42624  14.576  17.836   3.273  0.1771 -0.1085  0.0076
26816W        W42625  17.081   4.476  12.115  0.0752  0.0022 -0.0638
26817W        W42626  17.980   3.842   0.833  0.1571 -0.0548 -0.0408
26818W        W42627   3.581  13.911  11.297 -0.3285 -0.0284  0.1672
26819W        W42628  18.542   0.984   2.487  0.0159 -0.1692 -0.0027
26820W        W42629  14.495  17.211   3.928  0.1482  0.3029  0.0723
26821W        W42630  10.283   8.910  10.658 -0.1114  0.0318  0.1259
26822W        W42631  11.938   9.946   1.549 -0.2450 -0.0050 -0.2374
26823W        W42632  18.276   6.102  14.573  0.2039  0.3926  0.0737
26824W        W42633  13.607  15.580   3.879 -0.0694 -0.1126  0.1869
26825W        W42634  14.422   8.874  10.864 -0.1446 -0.0142  0.1192
26826W        W42635   1.454  16.270   3.999 -0.0130 -0.0386 -0.2366
26827W        W42636   4.457   7.881  13.573  0.0883  0.0068  0.2166
26828W        W42637  18.538  12.929  12.109  0.0022  0.0964 -0.1185
26829W        W42638   3.127  10.023  14.396  0.1610  0.3204 -0.1210
26830W        W42639  13.092  18.765  13.135  0.0204  0.1367  0.0942
26831W        W42640  10.190  16.861  15.550  0.0282  0.1073 -0.2022
26832W        W42641   1.138  18.494   1.372  0.0995  0.4032 -0.0146
26833W        W42642   9.457   2.191  12.999  0.0110  0.1500  0.2222
26834W        W42643   0.691   5.190  14.159 -0.0978  0.3542  0.1053
26835W        W42644   9.706  18.433   0.048  0.1061  0.1459  0.1399
26836W        W42645   9.227  10.704   3.773  0.1337  0.0278 -0.1171
26837W        W42646  16.318  10.665   0.951 -0.2405 -0.1268 -0.3243
26838W        W42647  16.285   7.219  15.459 -0.1154 -0.2141  0.0996
26839W        W42648   3.046   8.974   2.722 -0.1490  0.0529  0.2656
26840W        W42649   4.813  12.099   2.553  0.2071 -0.1355  0.1060
26841W        W42650  16.582   6.301  14.780  0.1319 -0.2156  0.0472
26842W        W42651   0.506  12.967  13.789 -0.4345  0.0600  0.1134
26843W        W42652   4.815  18.146  13.555 -0.0939  0.2493 -0.3292
26844W        W42653   5.137  15.658  11.728 -0.3047 -0.1104 -0.1086
26845W        W42654   8.778   2.871  12.704  0.0887  0.0523  0.1773
26846W        W42655   2.105   6.626  15.218 -0.1772  0.4319 -0.0627
26847W        W42656  17.943  17.511   2.146 -0.1416  0.0409 -0.2737
26848W        W42657   7.702  15.051   3.309 -0.0112  0.2286 -0.0362
26849W        W42658   5.984   4.529   1.564 -0.1141 -0.0383  0.2701
26850W        W42659   9.171  10.324  11.795  0.0652 -0.0972  0.1576
26851W        W42660   0.953  18.698   4.902 -0.0375 -0.1165 -0.3433
26852W        W42661  16.115   2.621   3.438 -0.1458 -0.0192  0.1130
26853W        W42662   0.112   1.956   0.454  0.0630  0.1798  0.1684
26854W        W42663   3.918  18.106  11.629  0.1296  0.5963 -0.3989
26855W        W42664   7.968   1.336   1.841  0.0569 -0.2049 -0.3165
26856W        W42665  11.422   4.802  10.854 -0.0136  0.3302  0.0728
26857W        W42666   4.652   0.462   2.183 -0.3018  0.0627  0.2364
26858W        W42667  10.917   8.123  10.662  0.0453  0.1536 -0.3199
26859W        W42668   9.263   4.175   1.657  0.1209 -0.0297  0.1300
26860W        W42669  11.500   9.544  11.379 -0.3760  0.0615  0.0161
26861W        W42670   1.144  16.688  14.379 -0.0128 -0.0999  0.2819
26862W        W42671  14.950  18.451  14.002 -0.2831 -0.0282  0.0940
26863W        W42672   2.098   7.380  12.342  0.1096 -0.0584  0.0436
26864W        W42673  15.717  11.116   4.244  0.2684  0.0494  0.0576
26865W        W42674   0.343  11.554   9.251 -0.0224 -0.3678  0.0687
26866W        W42675   0.141   4.444  11.955 -0.1620 -0.2552 -0.0316
26867W        W42676  17.478   6.649  14.399 -0.2563  0.0331 -0.0971
26868W        W42677   3.192   1.746  12.125  0.2369 -0.3290  0.3934
26869W        W42678  16.994  12.007   4.533 -0.2054  0.1052  0.0292
26870W        W42679   2.381   8.745  13.293  0.2774 -0.0061 -0.0962
26871W        W42680  15.943  11.555   3.535 -0.2029  0.1339  0.0446
26872W        W42681  14.949   2.350   4.584 -0.1735  0.1955 -0.1291
26873W        W42682  18.656   6.860  12.154  0.0047 -0.3396  0.2245
26874W        W42683   7.568   1.777   4.623  0.0741 -0.0620  0.1768
26875W        W42684   9.699  17.057  15.492 -0.3259  0.0982  0.0822
26876W        W42685   5.364   1.356   1.661  0.4912 -0.1775 -0.2783
26877W        W42686  17.945  13.686  15.479 -0.3838  0.0092 -0.1133
26878W        W42687   8.070  13.806  14.411 -0.1415 -0.2601  0.1797
26879W        W42688   7.276   1.726  13.449 -0.2082  0.1005  0.1253
26880W        W42689   9.105  16.812  14.033  0.1103  0.0994  0.1426
26881W        W42690   3.408  10.968   0.484 -0.2581 -0.1073  0.1010
26882W        W42691   7.314  15.291  10.990 -0.2024  0.0292 -0.0211
26883W        W42692  18.250  11.620  10.458  0.1650  0.2977 -0.1238
26884W        W42693   9.796   1.149   1.609 -0.1082 -0.2284 -0.0611
26885W        W42694   1.067  17.294  13.724 -0.1162  0.0388  0.0760
26886W        W42695  18.012   2.301   4.924  0.0408  0.2553 -0.3281
26887W        W42696   5.871  14.484  12.236  0.1371 -0.1363 -0.1690
26888W        W42697  14.956   2.930   1.006  0.1246 -0.1090  0.1511
26889W        W42698   6.602   6.806  10.341  0.1361  0.1263 -0.1523
26890W        W42699  16.230   1.471   2.044  0.1300  0.1186  0.0694
26891W        W42700   2.617  12.661  14.313  0.3514 -0.2618 -0.2594
26892W        W42701   7.440   8.588   1.896  0.1076  0.0701 -0.1452
26893W        W42702  13.700   9.123  12.626  0.0014 -0.1681  0.0628
26894W        W42703  14.895   1.130   5.400  0.1660 -0.4829 -0.0025
26895W        W42704   0.351   9.252   9.551  0.0106 -0.0851 -0.1533
26896W        W42705   1.796  17.559  14.080 -0.1086  0.1999  0.0122
26897W        W42706  10.294   0.025   3.912  0.0552  0.2261  0.1126
26898W        W42707   3.614  15.244  11.982 -0.1386 -0.1633  0.1377
26899W        W42708   4.846   6.613  12.357 -0.0864  0.2339 -0.0097
26900W        W42709   1.615  17.687  11.493 -0.4719 -0.2750 -0.2804
26901W        W42710   0.826  11.855  11.333 -0.1620 -0.2153  0.3242
26902W        W42711  12.997  18.510   2.383  0.1934 -0.1086  0.0459
26903W        W42712   6.664   4.864  10.697  0.0204  0.0447  0.2031
26904W        W42713   8.368   6.715   0.976  0.1128  0.1038  0.0844
26905W        W42714  11.074  17.433   0.067 -0.0366 -0.0254 -0.1150
26906W        W42715   9.906  13.960  10.790  0.1828 -0.0346 -0.0929
26907W        W42716   8.402  12.939  11.038  0.1592  0.0371  0.1189
26908W        W42717   2.731  13.261  12.311  0.1456  0.1170  0.0829
26909W        W42718   1.165   0.681  15.545 -0.1080  0.1912 -0.0422
26910W        W42719   5.144   7.890  14.167 -0.1760  0.0607 -0.0389
26911W        W42720  15.431   5.333  14.436 -0.1628  0.1587  0.0107
26912W        W42721   9.938  18.015   4.259  0.1296  0.3007 -0.3153
26913W        W42722  15.385  15.867  11.180  0.1521 -0.0973 -0.2701
26914W        W42723  18.463   1.359   4.602 -0.1566  0.0294  0.2221
26915W        W42724  14.440  14.075   2.137  0.1198 -0.2975 -0.0858
26916W        W42725  11.420   7.320  10.611  0.1510 -0.0093 -0.0764
26917W        W42726  13.800   8.225   1.271  0.0162  0.1374 -0.2544
26918W        W42727   3.714   5.599   4.289  0.1077 -0.2589 -0.0446
26919W        W42728   3.890   9.507   4.890  0.0812  0.0222 -0.1896
26920W        W42729   3.387   0.401  12.862 -0.1642  0.0413 -0.0577
26921W        W42730  15.635   0.723   4.138 -0.2014  0.0202 -0.0123
26922W        W42731  11.160   3.367  15.529  0.0373 -0.1910 -0.0999
26923W        W42732  18.007   7.347   4.476  0.1280  0.1994 -0.2419
26924W        W42733   2.674  18.635   0.147  0.1241 -0.0667  0.1053
26925W        W42734  13.782  12.969  14.233  0.1486 -0.0538 -0.1308
26926W        W42735  13.994   7.442   3.372 -0.2223  0.2677  0.0953
26927W        W42736   7.556   3.115   4.160 -0.1202 -0.1211 -0.1420
26928W        W42737   2.958  18.331  12.712  0.0710 -0.1519  0.3491
26929W        W42738   5.106  12.469   1.180  0.2714 -0.2327 -0.0819
26930W        W42739   8.056  15.771   4.974  0.0948 -0.1056  0.3049
26931W        W42740   2.928  15.135  10.766 -0.1608  0.2781  0.0115
26932W        W42741   7.680  14.810  15.313  0.0906  0.1203  0.2136
26933W        W42742   2.298   8.158   0.231  0.1092  0.1487 -0.2313
26934W        W42743   8.403  11.154  15.558  0.0338  0.0085  0.0094
26935W        W42744  18.310   9.582  14.979 -0.0710  0.0144  0.0334
26936W        W42745  10.006  14.158  14.809  0.1639 -0.1249 -0.2217
26937W        W42746   3.611  11.482   3.126 -0.3304  0.0339  0.0412
26938W        W42747  13.780   9.830  15.086 -0.3936 -0.1218 -0.0375
26939W        W42748  12.809   1.618   4.332  0.0878 -0.0659 -0.1924
26940W        W42749   6.411   6.357  14.007 -0.0674 -0.0578  0.1348
26941W        W42750  11.411   7.954  12.662 -0.0183  0.4588  0.2849
26942W        W42751  14.831   5.464   2.375  0.2995 -0.2037 -0.3000
26943W        W42752   8.851  12.802  14.150  0.4860 -0.0461 -0.1205
26944W        W42753  12.232   4.351   4.112 -0.1468 -0.0965  0.1438
26945W        W42754   2.464   8.320   0.993  0.2464 -0.2807 -0.1411
26946W        W42755   6.208   0.096   0.114 -0.0656 -0.0146 -0.0678
26947W        W42756  16.166   4.706   2.053  0.3494 -0.0649 -0.2988
26948W        W42757  10.914  12.283  10.974  0.1387 -0.1308  0.0703
26949W        W42758  11.385   2.366  11.176 -0.0712 -0.1758 -0.0297
26950W        W42759  14.868   1.037   4.333  0.0234 -0.2234 -0.0634
26951W        W42760   0.288   8.715  13.394 -0.0091  0.2388  0.0494
26952W        W42761  16.845   0.752  15.551  0.2971  0.0337 -0.0073
26953W        W42762   5.400   2.732  13.484 -0.0177  0.0613  0.0339
26954W        W42763   1.332  14.038  14.616  0.0437 -0.2361 -0.1741
26955W        W42764   9.502   1.696   2.801 -0.1104  0.1553  0.1238
26956W        W42765  17.656   3.305  14.390  0.0439  0.1200  0.2215
26957W        W42766  15.846  12.038   4.613 -0.0078  0.1399 -0.0794
26958W        W42767  14.742  15.693  15.033  0.0293  0.0729 -0.0513
26959W        W42768  11.938   3.948   1.549  0.2532  0.1766  0.0673
26960W        W42769  10.457  10.481  13.682  0.0918  0.4312 -0.0239
26961W        W42770  10.081  16.391  13.702 -0.1592 -0.0696  0.5177
26962W        W42771   6.606  14.610   2.159 -0.0954  0.0061 -0.3790
26963W        W42772  11.767  16.013  12.520 -0.2524  0.1344  0.3925
26964W        W42773   0.762  18.139   2.198  0.1026  0.1566  0.4486
26965W        W42774  17.421  12.941  14.368 -0.1007  0.3052 -0.1158
26966W        W42775   6.192  16.069  13.893  0.0667  0.0378 -0.0455
26967W        W42776  13.919  11.097  14.475  0.1564  0.0595 -0.0966
26968W        W42777   2.988  17.417   3.010 -0.3332  0.1824 -0.1243
26969W        W42778   2.826  15.159   0.095 -0.0637 -0.2641 -0.1612
26970W        W42779   4.940  10.613   1.414 -0.0652 -0.1078 -0.4451
26971W        W42780   3.524   8.710   4.643 -0.1282  0.0102 -0.0588
26972W        W42781  10.302  12.104  15.128  0.2143  0.0805  0.0054
26973W        W42782   3.883   6.205   4.255  0.3849  0.0602 -0.2147
26974W        W42783   4.076   4.101  11.257  0.1495  0.1518 -0.1043
26975W        W42784  16.354   3.454  13.542 -0.1331  0.0085  0.0081
26976W        W42785   2.465  18.285   3.571  0.1656  0.1802  0.2033
26977W        W42786   6.238  17.914   3.412 -0.2321 -0.0466 -0.1386
26978W        W42787  18.580  11.536  12.352 -0.5235  0.0823 -0.1110
26979W        W42788  15.197  12.043   0.643 -0.3837 -0.1371  0.0107
26980W        W42789   2.795   5.368  15.245 -0.0672 -0.0680  0.0805
26981W        W42790   6.048  17.537  14.582  0.1887  0.0984  0.0651
26982W        W42791   0.789  17.532  11.239 -0.0691  0.1413  0.1995
26983W        W42792   2.240  12.979   4.756 -0.1904  0.2494  0.1505
26984W        W42793   5.251   4.408   5.153 -0.1661  0.3647 -0.1351
26985W        W42794  17.171   9.203   6.124  0.1050 -0.0069  0.1724
26986W        W42795   8.750   0.979   2.511 -0.1884  0.0645 -0.0872
26987W        W42796  17.847  17.262  13.845  0.1505  0.1419  0.2079
26988W        W42797  12.225  15.492   3.551  0.3290 -0.2690 -0.1169
26989W        W42798   3.180  17.124   4.277 -0.1173  0.0101  0.1552
26990W        W42799  14.311  15.059  12.196  0.1560  0.3689 -0.1451
26991W        W42800   7.018  10.145  11.371  0.1275 -0.3682 -0.0216
26992W        W42801  12.777   7.423   0.997 -0.3209 -0.1398 -0.0930
26993W        W42802  12.702   4.493  12.433  0.1241 -0.1692 -0.0561
26994W        W42803   2.676  15.728   0.922 -0.0449 -0.2149  0.0540
26995W        W42804  17.355  17.446  13.849 -0.0612  0.0390 -0.1727
26996W        W42805  13.907  14.670  12.363  0.0863  0.0186  0.2706
26997W        W42806  17.742   3.287   3.449 -0.3411 -0.1802  0.1155
26998W        W42807   6.031   2.010   1.391  0.2884 -0.0305  0.1447
26999W        W42808   5.224   6.625   4.986  0.2114  0.0694  0.0891
27000W        W42809  16.147   1.956   0.705  0.4914 -0.1490 -0.1872
27001W        W42810   4.422   6.757  12.069 -0.1512  0.0115  0.5672
27002W        W42811   8.302   8.952  11.505  0.2158  0.2492  0.0954
27003W        W42812   7.894   0.730   3.116  0.2287  0.2399  0.4069
27004W        W42813  18.160  12.849  15.361  0.2885  0.1268  0.4953
27005W        W42814   4.058   3.751   3.225 -0.4302 -0.1167  0.2516
27006W        W42815   7.707   3.977   3.580 -0.0822 -0.0913  0.3886
27007W        W42816   5.880   6.743  11.483  0.2864  0.0383 -0.4221
27008W        W42817  14.458  13.189  15.506 -0.2496 -0.0311  0.3215
27009W        W42818  14.112   9.929   4.509 -0.2133 -0.0467 -0.0459
27010W        W42819  16.873   7.394   4.611 -0.3287  0.0297 -0.3626
27011W        W42820   9.314   1.752  12.136  0.1496 -0.1849 -0.3720
27012W        W42821  13.313  12.567  15.551 -0.1157 -0.0687  0.0759
27013W        W42822  16.436   9.229  12.141  0.0755 -0.1024  0.0233
27014W        W42823  11.294  10.149  13.389  0.0707  0.2774 -0.1178
27015W        W42824   2.570  12.284  12.426 -0.0137 -0.0226 -0.0108
27016W        W42825   7.602  17.272  13.454 -0.2563  0.4296  0.2272
27017W        W42826   4.734   2.896   5.144  0.1273 -0.0778 -0.0897
27018W        W42827  13.276  14.279  11.027 -0.2403 -0.3566 -0.2446
27019W        W42828  11.642  12.631   3.349  0.1502  0.3135 -0.2413
27020W        W42829   3.323  18.564  11.197  0.1554  0.1465 -0.1635
27021W        W42830   6.562  14.118   1.988 -0.0641  0.1307 -0.0108
27022W        W42831  10.399  11.856  13.737 -0.0455  0.1043 -0.0131
27023W        W42832   4.898   8.352   3.376 -0.1536  0.1232  0.0358
27024W        W42833   3.683   0.419  12.287  0.0682  0.1591 -0.2155
27025W        W42834  15.518   7.635   9.996  0.1116  0.3520  0.2417
27026W        W42835  11.471   2.767   3.832 -0.1161 -0.1105  0.0218
27027W        W42836  10.390   7.143   4.343 -0.1198 -0.3013  0.0033
27028W        W42837  11.863   3.160  13.531  0.0977  0.0509 -0.0850
27029W        W42838   3.213   7.850  14.135 -0.0591 -0.0885  0.1699
27030W        W42839  16.653  10.613  12.075  0.1604  0.0889 -0.0221
27031W        W42840   5.617   9.443   1.868 -0.2911 -0.0480  0.1752
27032W        W42841  10.139   0.035  10.019  0.2249  0.0207  0.1533
27033W        W42842  13.876   6.512   1.685 -0.0799 -0.0894 -0.1448
27034W        W42843  15.767  11.029  15.231 -0.4709 -0.2951  0.0220
27035W        W42844   2.140  18.595  11.058 -0.2792 -0.0070  0.0756
27036W        W42845   3.022   6.875   2.260  0.0526 -0.1354 -0.0223
27037W        W42846   4.434   9.444  13.192  0.2999 -0.2119  0.2468
27038W        W42847   4.149   6.980   3.683 -0.0173 -0.4836  0.1464
27039W        W42848   1.249   5.191  14.246  0.0405 -0.0909  0.0664
27040W        W42849   4.478  16.039  15.217 -0.0466  0.0208  0.2216
27041W        W42850  15.585   9.281  14.765  0.1824  0.1069 -0.3321
27042W        W42851  10.149  10.263   4.705 -0.0111  0.0499  0.2484
27043W        W42852   7.426   2.265   3.770 -0.0299 -0.3316 -0.1531
27044W        W42853  13.119   3.131  12.644  0.1542  0.0376 -0.0098
27045W        W42854  11.999  18.374   4.793  0.2908 -0.0484  0.1538
27046W        W42855   7.786   7.830   3.433  0.2095 -0.1018  0.1937
27047W        W42856   1.268  12.205   2.761 -0.1800 -0.0454  0.2920
27048W        W42857  11.982  13.165   1.919 -0.3490 -0.2970  0.1424
27049W        W42858   1.057  16.839  11.604  0.0969  0.2656 -0.1602
27050W        W42859  18.652  11.803  11.261 -0.3375  0.0282  0.0775
27051W        W42860   0.876   9.135   3.602  0.0524  0.1849 -0.3589
27052W        W42861   6.856  11.028  12.032  0.0183  0.3670 -0.2473
27053W        W42862  10.090  15.142   0.350 -0.1050  0.1701  0.2449
27054W        W42863   6.154   4.751  14.695 -0.1439  0.2378 -0.1480
27055W        W42864   6.611   6.082  12.040  0.0560  0.1616  0.1054
27056W        W42865   4.985  10.664  14.967  0.1410  0.0696 -0.2316
27057W        W42866   4.904   8.757   0.139  0.1460 -0.0722  0.1843
27058W        W42867   7.568  10.983  11.424  0.1723  0.1519  0.1887
27059W        W42868   7.834   8.985   1.778 -0.1928 -0.1339  0.1285
27060W        W42869   0.742   4.023  10.711 -0.0248  0.2124  0.1276
27061W        W42870  17.017   7.197   2.680  0.0971  0.1770 -0.0769
27062W        W42871   2.780  10.282  14.127  0.3017 -0.1987  0.0698
27063W        W42872   8.029   1.496   2.557  0.0714 -0.2717 -0.0009
27064W        W42873   5.581  14.282   2.542  0.2169 -0.1967 -0.2119
27065W        W42874   8.567  15.184  12.977  0.0505 -0.0584  0.1528
27066W        W42875  14.090   0.947  12.955  0.0085  0.1061  0.2795
27067W        W42876   9.157   3.242  14.403  0.1662  0.3369  0.2314
27068W        W42877   9.709  15.002  12.344  0.2802  0.2455  0.2957
27069W        W42878  13.253   5.570   1.942 -0.4302  0.1771  0.1641
27070W        W42879   4.766  13.904   0.590 -0.2559 -0.0727  0.2724
27071W        W42880  18.203   4.324   4.944  0.0890 -0.1145 -0.2031
27072W        W42881  10.096   4.783   4.289 -0.0490  0.1357  0.3313
27073W        W42882   5.519  11.966  14.850  0.0556  0.1330 -0.1884
27074W        W42883   6.923  12.655  14.998  0.0087  0.0180  0.0893
27075W        W42884  12.757  11.704   2.451 -0.1534 -0.1437 -0.0331
27076W        W42885   3.752  14.931   5.277 -0.3059 -0.1486 -0.1850
27077W        W42886  18.230  10.509  11.700  0.1652  0.0504 -0.2216
27078W        W42887   5.556   1.354  11.097  0.1188  0.2286 -0.0636
27079W        W42888   9.789   4.279   2.408  0.1622  0.2164 -0.2082
27080W        W42889   6.775  15.823   1.395  0.1173 -0.4135  0.1607
27081W        W42890  15.344  10.305   3.705  0.2870  0.2718 -0.0996
27082W        W42891  10.975   6.090  12.882  0.0222  0.0918 -0.0149
27083W        W42892   6.016   7.205  15.548  0.0955  0.1409 -0.1529
27084W        W42893   9.846   1.764  12.159  0.1578 -0.1845 -0.0660
27085W        W42894   6.397   6.912  14.300  0.4551  0.2842 -0.1624
27086W        W42895  13.130   0.103   1.295 -0.0752 -0.1234  0.2051
27087W        W42896  17.120   8.631   0.702  0.1395  0.1152 -0.3179
27088W        W42897  14.537  16.208   6.230 -0.2346  0.0422  0.1119
27089W        W42898  10.015   8.842   0.231 -0.4533  0.2306 -0.1574
27090W        W42899  14.720  16.333  14.319 -0.0013 -0.0731 -0.1551
27091W        W42900  11.731   7.690   3.604 -0.2130  0.0323 -0.2820
27092W        W42901   7.317  15.941   1.672  0.0778  0.0889 -0.1210
27093W        W42902   6.391  12.366   0.582  0.1226  0.1204  0.0653
27094W        W42903   0.664  15.398  13.918  0.0109  0.0084 -0.1366
27095W        W42904   3.110  17.158  10.240 -0.0775  0.0326 -0.3265
27096W        W42905   3.026   4.974  14.902  0.0478 -0.1215 -0.1631
27097W        W42906   8.075   4.814   3.833  0.0633  0.0566  0.1291
27098W        W42907  10.460   1.762  11.245  0.0153 -0.0480 -0.1460
27099W        W42908  14.457   6.260   2.259 -0.1040 -0.2568  0.2865
27100W        W42909  14.912   6.838   4.887  0.1263  0.1072 -0.0733
27101W        W42910  12.303  12.878   2.902 -0.0819  0.2371 -0.1848
27102W        W42911  18.389   6.753   5.952 -0.3205  0.1067 -0.0278
27103W        W42912  12.278   5.178  11.047  0.3012 -0.0181  0.0384
27104W        W42913  16.874   0.128   4.260 -0.3506 -0.0297  0.1107
27105W        W42914   8.665  17.293  12.449  0.0171 -0.0560  0.1029
27106W        W42915  13.323  16.013  12.883  0.0546 -0.0090 -0.1108
27107W        W42916  10.973  16.991   4.498  0.2830  0.0439 -0.1725
27108W        W42917   3.547   1.742  13.994  0.1502  0.1131 -0.0062
27109W        W42918  16.229   0.067   5.228  0.0602  0.0372 -0.4905
27110W        W42919  12.226   6.240  12.604 -0.3483  0.1878 -0.0674
27111W        W42920   9.262   9.936  15.001  0.1873 -0.1018 -0.0096
27112W        W42921  15.286  17.706  12.167  0.1490 -0.2024  0.2472
27113W        W42922  11.069   4.592   5.671  0.1357 -0.1566 -0.0779
27114W        W42923  14.481   6.080  13.343  0.1343 -0.0443  0.2548
27115W        W42924  14.198   5.161  10.569 -0.1185  0.2257  0.0081
27116W        W42925   1.186   6.438  11.717  0.0060 -0.1224 -0.4331
27117W        W42926   5.466   4.054   2.785 -0.1421  0.1454 -0.4046
27118W        W42927  16.564   4.985  11.704 -0.1738 -0.2053 -0.1851
27119W        W42928   4.102  14.865   3.029 -0.1624  0.0364 -0.1328
27120W        W42929  16.763   3.411  14.476  0.0160  0.1563  0.0099
27121W        W42930   3.384   2.755  14.222  0.1121  0.0403  0.0417
27122W        W42931   6.922   7.493   5.007  0.3879 -0.1797  0.0203
27123W        W42932  14.623  10.000  11.108  0.0241  0.0982 -0.0333
27124W        W42933   4.874  14.607  14.573 -0.1310 -0.0783 -0.2999
27125W        W42934   4.817   7.544   1.321  0.4787  0.0631  0.1519
27126W        W42935   0.983   5.824   0.243  0.0928  0.2088 -0.2440
27127W        W42936   9.026   0.053  14.085 -0.0953  0.1208  0.0318
27128W        W42937   9.715  13.338  14.823  0.2183  0.0642 -0.2641
27129W        W42938  10.826   8.870  15.311 -0.0592 -0.0537 -0.1698
27130W        W42939   5.266  15.951   0.515 -0.0967 -0.0094  0.0783
27131W        W42940  18.077   8.784   1.518 -0.0978 -0.2466 -0.4528
27132W        W42941  14.377   7.755  15.344  0.0750  0.1197  0.0233
27133W        W42942  15.369   5.192   4.598 -0.2977  0.3574 -0.2881
27134W        W42943   1.256   7.372   5.121  0.0890 -0.2889  0.1548
27135W        W42944   1.295  10.971   2.245 -0.1007 -0.4595  0.1382
27136W        W42945   5.583  17.047  12.484 -0.2462  0.2760  0.0922
27137W        W42946   9.707  18.263  14.719 -0.5264 -0.0965 -0.1807
27138W        W42947  12.854  11.864   1.953 -0.1897  0.0066 -0.4897
27139W        W42948   6.562  15.635   1.806 -0.0250  0.0923 -0.0525
27140W        W42949  10.907  11.749   5.338  0.1627 -0.0747  0.1260
27141W        W42950  14.361   4.103  15.404 -0.3139  0.0789  0.0185
27142W        W42951  10.788   6.824  11.775  0.1104 -0.0151  0.1754
27143W        W42952   6.384   8.169   5.168 -0.3223  0.1548 -0.1425
27144W        W42953  11.962  10.591   4.078 -0.1976  0.0789 -0.0226
27145W        W42954   2.361  13.544  14.112  0.1976 -0.0518  0.0740
27146W        W42955  18.323   0.034   5.027  0.1467  0.3074  0.2323
27147W        W42956  11.219   2.225   0.255 -0.0189  0.1597 -0.2319
27148W        W42957  18.550  16.778  11.108 -0.3113 -0.0530  0.0213
27149W        W42958   4.698  12.338   2.087 -0.1584 -0.1435 -0.1258
27150W        W42959   1.404   9.747  10.136  0.1686  0.1599  0.2579
27151W        W42960   7.225  17.080  12.419  0.3186 -0.0605 -0.4189
27152W        W42961   1.089   2.763  12.771 -0.0906 -0.1537 -0.0707
27153W        W42962  11.439   3.957  12.997  0.1032  0.0143 -0.1138
27154W        W42963   1.859   2.991   1.943 -0.2626  0.2122 -0.4510
27155W        W42964  15.292  15.906  12.044 -0.0916  0.1558  0.0169
27156W        W42965  10.180  13.794  12.824 -0.2952  0.3338 -0.2936
27157W        W42966  14.517   0.275   4.896 -0.0877 -0.0593  0.0173
27158W        W42967   3.754  10.386  11.855 -0.2441 -0.1031 -0.1212
27159W        W42968   8.393   3.279   3.222  0.0874 -0.3097 -0.2645
27160W        W42969  18.739   1.039  13.287 -0.1761  0.0924 -0.1672
27161W        W42970  15.651   4.544   3.368 -0.2214 -0.1125  0.2082
27162W        W42971   1.960  13.194   4.154 -0.1514  0.2309 -0.4260
27163W        W42972  12.731  11.087  13.790  0.1555 -0.0616 -0.0914
27164W        W42973   5.375   5.088   1.672 -0.0490 -0.0398  0.0726
27165W        W42974  13.285  11.772   1.651  0.1717  0.2863 -0.0111
27166W        W42975   6.758   8.338  11.385  0.0655 -0.0277 -0.2202
27167W        W42976  17.903   1.743  13.447 -0.1068  0.1372  0.4035
27168W        W42977   0.501  16.423  12.474  0.1733  0.5020 -0.3693
27169W        W42978   7.908   4.701   5.857 -0.0517  0.2211  0.4372
27170W        W42979  16.881   3.978  11.397 -0.0294  0.2382 -0.0628
27171W        W42980  11.642  14.948  12.578 -0.2158 -0.1198  0.0146
27172W        W42981  10.491  12.159   5.798  0.1505 -0.1930  0.4615
27173W        W42982   2.927   9.535   3.315  0.4350 -0.3193  0.0349
27174W        W42983   6.688  14.423  11.696  0.1380 -0.1748  0.0534
27175W        W42984  12.589  11.797   3.859  0.0423 -0.0141  0.1423
27176W        W42985   4.037   5.930   4.992 -0.0537 -0.0916 -0.1785
27177W        W42986   0.170   6.977   3.150  0.1686  0.0924  0.4046
27178W        W42987   0.186  14.402  10.819  0.1037 -0.0899 -0.1906
27179W        W42988   9.419   2.743  13.176 -0.2737  0.1942  0.0614
27180W        W42989  18.300  15.210   1.072  0.0286 -0.1191 -0.2304
27181W        W42990  12.110   9.454   4.017 -0.1389 -0.1406 -0.1712
27182W        W42991  16.544   8.772   4.798  0.1009 -0.0109 -0.0828
27183W        W42992  17.586  12.094  10.712 -0.6221  0.1205  0.0602
27184W        W42993  18.684   8.198  11.727 -0.3000 -0.2105 -0.1191
27185W        W42994   9.643   1.048   3.030  0.0723 -0.2897 -0.1165
27186W        W42995   8.555  11.572  13.932  0.0444 -0.1455  0.2481
27187W        W42996  10.503   2.240   1.867  0.3707 -0.0952  0.0764
27188W        W42997   9.730  14.828   0.528 -0.2555  0.0102 -0.0303
27189W        W42998   7.019   5.062  12.121 -0.1384 -0.0112 -0.1904
27190W        W42999   7.283   1.878   2.717  0.0518  0.0177  0.0484
27191W        W43000  16.611   9.982  15.013 -0.2140  0.4113  0.3475
27192W        W43001   1.841  18.021  13.624 -0.0207  0.0367  0.5497
27193W        W43002  17.116   9.811  13.839 -0.0526 -0.1589 -0.0339
27194W        W43003   2.098  12.072  11.793  0.0591 -0.1420 -0.0030
27195W        W43004  17.381  15.807   1.390  0.0178 -0.0595 -0.5314
27196W        W43005  15.923   5.330  11.629 -0.3730 -0.1224  0.0194
27197W        W43006  11.430   3.294   2.106 -0.0690  0.1217 -0.4388
27198W        W43007   5.690   7.522   4.431  0.2444  0.0117 -0.1098
27199W        W43008  11.202  17.638  12.203 -0.1351 -0.1045  0.1073
27200W        W43009  12.285  11.825  14.948 -0.0823 -0.1012 -0.2994
27201W        W43010   5.586  15.616   0.264 -0.0045 -0.1516 -0.0408
27202W        W43011   5.030   8.144   0.103 -0.1048  0.3127 -0.1337
27203W        W43012   9.810  16.186   2.323 -0.1561 -0.0735  0.1021
27204W        W43013  16.386  12.077  13.939  0.0941 -0.1933  0.2043
27205W        W43014   5.352   6.245  14.119  0.0549  0.0106  0.0178
27206W        W43015  16.585   3.947   1.513 -0.0842 -0.2718  0.1243
27207W        W43016   3.239   5.293   1.886  0.0877 -0.0275 -0.0610
27208W        W43017  17.352  10.663  14.786  0.2263  0.2763 -0.1863
27209W        W43018  11.002  14.203  15.066  0.1140  0.1285 -0.2540
27210W        W43019   5.212  15.908  14.134  0.0674 -0.0921 -0.0979
27211W        W43020  13.120  17.974   1.691 -0.0890 -0.2527  0.0535
27212W        W43021  16.625  13.016  11.154  0.1291 -0.1589  0.0243
27213W        W43022   1.567   6.714   4.774 -0.0914  0.1301  0.0625
27214W        W43023  12.408  10.211   1.858 -0.1449  0.0369 -0.1134
27215W        W43024   0.824   3.126   0.242 -0.0336  0.2752  0.1688
27216W        W43025  13.968  10.593   4.470  0.1205  0.0280  0.1991
27217W        W43026  14.360   7.492   2.962 -0.1645 -0.0806 -0.1055
27218W        W43027  11.674   9.976  11.528  0.3414 -0.1267 -0.0640
27219W        W43028  10.961  11.758  11.936  0.2338  0.2049 -0.2462
27220W        W43029   1.363   8.575  10.330  0.0952 -0.1120  0.2229
27221W        W43030  18.497   3.178  14.568  0.1085 -0.3529 -0.0407
27222W        W43031  12.811   9.889   3.456 -0.0308 -0.1672 -0.0658
27223W        W43032   3.590  18.514  10.781 -0.2035  0.3556  0.2338
27224W        W43033  12.539  10.534   2.874 -0.0233  0.0922  0.0184
27225W        W43034  10.379  17.157   5.816  0.1436 -0.2401  0.0289
27226W        W43035  15.474   4.302   5.132  0.3865 -0.1396  0.1250
27227W        W43036  13.136   6.707  13.256 -0.5222  0.0572 -0.0352
27228W        W43037  11.355  18.377   3.438 -0.1480  0.2541  0.3282
27229W        W43038  17.205  17.522   5.524 -0.1343  0.0617 -0.0614
27230W        W43039  12.061   2.029  10.428  0.1431  0.2099  0.1010
27231W        W43040   6.038  16.922  12.854  0.0259 -0.1130  0.2736
27232W        W43041  11.263  11.522  11.592 -0.1028  0.0143 -0.0140
27233W        W43042  16.384   8.379  14.465 -0.0691  0.1902  0.1119
27234W        W43043  17.379   2.225  11.058  0.0487  0.2427  0.3736
27235W        W43044   3.419  12.605  12.429  0.0291 -0.2028 -0.0514
27236W        W43045   4.076   2.610  12.648  0.0033 -0.3019  0.2393
27237W        W43046  18.013   2.935  14.572 -0.0364  0.1003 -0.0924
27238W        W43047   1.003   4.971   2.684  0.3331  0.1379 -0.0341
27239W        W43048  13.264  14.463   1.236  0.2010  0.0614  0.0178
27240W        W43049   6.856  12.893  13.212 -0.0706  0.2643  0.0314
27241W        W43050   1.155   5.743  14.289  0.1609  0.0696 -0.2684
27242W        W43051   7.381   9.815   3.715 -0.0641 -0.2946  0.0322
27243W        W43052  12.017  15.923  13.872  0.0806  0.1292  0.1139
27244W        W43053  17.098   0.123  11.950 -0.1578  0.1280 -0.2588
27245W        W43054   1.216  17.130  14.699  0.1391  0.0390  0.1552
27246W        W43055   1.409  10.367  11.188  0.2609  0.1046  0.1255
27247W        W43056  13.863   7.784   3.027  0.1640  0.0305  0.0734
27248W        W43057  16.361   2.987  14.475  0.2841 -0.1868 -0.3536
27249W        W43058   6.093   5.122  13.883 -0.0679 -0.2143 -0.1265
27250W        W43059  18.503   2.753  14.142 -0.0871 -0.1697  0.1738
27251W        W43060   0.839  18.752   3.064  0.3312  0.0720 -0.0788
27252W        W43061   8.657   8.583   4.403 -0.0913 -0.0890  0.0782
27253W        W43062   4.615  18.508  13.188 -0.1655  0.2123 -0.3007
27254W        W43063  12.923   4.848  12.077 -0.2188  0.0513 -0.1779
27255W        W43064  15.822   2.259  15.520 -0.1500 -0.1429  0.2804
27256W        W43065  10.539   1.254  12.729 -0.0051  0.3218 -0.0623
27257W        W43066   3.079   8.408  10.923  0.0961  0.3262 -0.3121
27258W        W43067  10.001  17.978   0.582  0.0963 -0.1040  0.3169
27259W        W43068   2.738   3.928  15.351  0.0539  0.0453 -0.3993
27260W        W43069   4.618   8.967  11.648  0.0266  0.1048 -0.0032
27261W        W43070   1.338   9.624  12.814 -0.6636 -0.1331 -0.0138
27262W        W43071   8.528   5.579  11.965  0.0816 -0.1036  0.0694
27263W        W43072   0.011   2.006  15.108 -0.0442 -0.2415  0.0631
27264W        W43073   1.984   9.715   0.299 -0.2355 -0.1974  0.0040
27265W        W43074  16.220   8.668   3.391  0.2274 -0.0323 -0.2519
27266W        W43075  11.943  14.856   1.883 -0.0935  0.1623 -0.0232
27267W        W43076   1.812   1.327  14.453 -0.0560  0.1153 -0.1491
27268W        W43077  14.977   1.514  13.859  0.0675  0.0704 -0.2087
27269W        W43078   7.347   9.959   4.237  0.1780  0.2583 -0.0711
27270W        W43079  13.076   2.399   2.930 -0.5214 -0.0460  0.2380
27271W        W43080   5.756  13.198  14.892  0.3245  0.1784  0.2556
27272W        W43081  13.245  10.578  12.841  0.0358  0.0987  0.1670
27273W        W43082   7.832  13.134   2.163  0.0053 -0.0062 -0.1015
27274W        W43083  15.325  15.558   0.821 -0.1610 -0.1454  0.1469
27275W        W43084  11.449   5.214   4.386 -0.0150 -0.1130 -0.0507
27276W        W43085   5.174  12.214  15.207  0.0217 -0.1009  0.0476
27277W        W43086  12.687   2.902   2.107 -0.0611 -0.1439 -0.2363
27278W        W43087   8.774   2.932  11.790 -0.0136 -0.1661 -0.0047
27279W        W43088   6.441   7.940  13.430 -0.3457  0.1881  0.0167
27280W        W43089  18.745  18.370   5.660 -0.1452 -0.1733 -0.0677
27281W        W43090   1.633  17.561   1.445 -0.0311  0.0461  0.3591
27282W        W43091   8.158   7.998   0.388  0.4229  0.2273  0.0435
27283W        W43092   8.401  15.943   0.747 -0.1236 -0.4783  0.0347
27284W        W43093   2.557  15.735  11.261  0.0655  0.0493  0.0990
27285W        W43094  14.145  12.360  14.346 -0.1493  0.3226  0.0357
27286W        W43095  10.536   8.742   0.180  0.0610  0.2112 -0.0953
27287W        W43096   5.700  12.268  13.035  0.3696  0.2243  0.2016
27288W        W43097   2.250   0.184  12.385  0.0087  0.0038  0.0724
27289W        W43098  18.090  14.571   0.335  0.0499 -0.2804 -0.2273
27290W        W43099   1.205  10.116   0.180  0.0613 -0.0890  0.1110
27291W        W43100  11.583  15.267   2.128  0.1977 -0.1388  0.1107
27292W        W43101   4.229  15.075  13.280  0.0665  0.2293 -0.0426
27293W        W43102  17.728   6.821   3.776  0.1302 -0.0361 -0.4222
27294W        W43103  15.609  17.851   0.311  0.2651 -0.0916 -0.1315
27295W        W43104  14.142  12.876   2.453  0.0294 -0.3070  0.1140
27296W        W43105   6.155   0.307  10.444  0.1091 -0.0104  0.2500
27297W        W43106  13.794   9.478  14.531  0.1482 -0.0754 -0.0870
27298W        W43107   1.735   1.008  14.906  0.3231  0.0576 -0.0756
27299W        W43108  15.600   7.038   5.453 -0.1889  0.1262  0.0124
27300W        W43109  18.061   1.174  12.542 -0.0068 -0.0484  0.0474
27301W        W43110  17.485  17.385   5.104  0.0329 -0.0239 -0.0055
27302W        W43111  16.606   4.514   4.670  0.1167  0.3102  0.0685
27303W        W43112  11.388   1.243  14.619 -0.1508 -0.2842 -0.1139
27304W        W43113   3.034  14.084  12.693 -0.0327 -0.0816 -0.2270
27305W        W43114  10.993  17.354   2.733  0.1526  0.2527  0.0812
27306W        W43115  12.492  15.584  11.846  0.0841  0.1897  0.1410
27307W        W43116  12.127  13.080   5.600  0.0880 -0.0563  0.0360
27308W        W43117  12.747   5.118  15.047  0.1188  0.4663  0.1577
27309W        W43118  14.755  12.647   1.713  0.1782  0.3066 -0.1199
27310W        W43119  11.426  16.688   4.555  0.3972  0.0554 -0.1203
27311W        W43120  10.359   9.310   1.797  0.1042 -0.2352  0.2162
27312W        W43121  10.560  17.310   4.545 -0.0067 -0.0233  0.0593
27313W        W43122   4.177  18.076   9.412  0.4547 -0.2930  0.1908
27314W        W43123   2.127  15.507  13.906  0.0911  0.0043 -0.1058
27315W        W43124  18.709   4.598   1.366  0.1351  0.2953 -0.1416
27316W        W43125  11.462  10.726   5.024  0.1163 -0.0204  0.2520
27317W        W43126  10.561  11.343   1.560  0.2279 -0.0304 -0.3009
27318W        W43127  15.507   5.284   4.058  0.0122 -0.2819 -0.4716
27319W        W43128   1.015  15.844   1.682 -0.0751  0.1237 -0.0612
27320W        W43129   8.478  10.868   3.159 -0.0409 -0.2083  0.1192
27321W        W43130   3.988   7.837  13.405 -0.3673 -0.1057 -0.0587
27322W        W43131  17.580  13.754   1.598 -0.0518  0.0001  0.0522
27323W        W43132  17.558   7.162   4.657  0.1671  0.0700 -0.2277
27324W        W43133   8.860  10.622   4.912  0.1777  0.0162  0.0926
27325W        W43134  14.933  17.521   3.080 -0.5291 -0.0163  0.1651
27326W        W43135   6.234  17.449   4.849  0.1729  0.4415  0.3507
27327W        W43136   2.762  10.097   4.846  0.2157  0.1009 -0.0538
27328W        W43137   5.687   7.662  11.039 -0.0085  0.3935 -0.1326
27329W        W43138  16.606   2.154   0.982  0.1746 -0.2514 -0.1816
27330W        W43139  14.798   4.639   1.493  0.0430  0.1209 -0.2245
27331W        W43140   4.485  17.700   2.223 -0.1995 -0.4752 -0.1672
27332W        W43141  17.077  12.614  12.907 -0.2479  0.2978  0.1666
27333W        W43142  18.057  16.167  13.511 -0.1079 -0.0005 -0.0027
27334W        W43143   5.548   2.258  13.547  0.2306 -0.1713 -0.3171
27335W        W43144   6.234   6.587   5.117  0.0909  0.1145 -0.1796
27336W        W43145  13.389   2.955   4.894  0.2102 -0.0141 -0.2592
27337W        W43146   1.349   6.610   3.837 -0.1897 -0.2020 -0.0232
27338W        W43147  18.001   4.348  10.889 -0.0151  0.1585 -0.4729
27339W        W43148  11.434  10.838  15.008  0.0839 -0.2763  0.1282
27340W        W43149   1.543   8.928   1.255  0.0305 -0.3095 -0.1341
27341W        W43150   3.228  11.562  12.950  0.0139  0.2465 -0.1184
27342W        W43151   5.823   3.294  14.294  0.1079  0.2022  0.4215
27343W        W43152   5.656  11.924   4.281 -0.0044 -0.2630 -0.2279
27344W        W43153   4.625   3.340   1.767 -0.1512 -0.5058  0.2891
27345W        W43154   6.173  12.313   1.136 -0.2033 -0.0772  0.0733
27346W        W43155   3.656   9.209   4.565 -0.1886  0.0417 -0.2824
27347W        W43156   9.508  17.985  14.015 -0.1879  0.0838  0.0244
27348W        W43157   7.842  15.605  13.858  0.0888 -0.0189  0.0500
27349W        W43158  17.018   1.501   4.342  0.0398  0.0193  0.2354
27350W        W43159  16.873  11.691  12.899 -0.2240  0.3451  0.0722
27351W        W43160  12.357  15.624  11.346 -0.1163  0.0957 -0.0277
27352W        W43161   8.058  15.075  14.941 -0.1362  0.0532  0.2016
27353W        W43162  13.821  13.626   1.634  0.1158  0.2808  0.1164
27354W        W43163  12.655  17.567   0.271 -0.0366  0.1181 -0.1887
27355W        W43164   3.262  13.525  12.093  0.2042 -0.1471 -0.1319
27356W        W43165   7.763   9.847  14.395 -0.0643  0.1003 -0.0623
27357W        W43166   7.554   9.628   2.002 -0.1708  0.2716 -0.2238
27358W        W43167   7.252   1.234  14.766  0.0508  0.0013 -0.0036
27359W        W43168   6.050   1.075   3.091 -0.1108  0.1466  0.2367
27360W        W43169   3.955  17.380  15.165  0.0368 -0.0689 -0.1417
27361W        W43170   9.708   9.925   1.359  0.1929  0.0727 -0.0660
27362W        W43171  12.254  16.031   1.044 -0.1958 -0.2239 -0.2566
27363W        W43172   2.100  12.397  12.216 -0.4026 -0.2970  0.0966
27364W        W43173  10.890  14.375  14.560  0.0896  0.1317  0.0855
27365W        W43174  16.770  11.898  14.849  0.0928  0.1244  0.0735
27366W        W43175   9.110  11.270   0.569 -0.2394 -0.1717 -0.1779
27367W        W43176  16.959  13.509  11.833  0.1375 -0.1903 -0.1522
27368W        W43177   1.838  16.522  13.668  0.1015 -0.0905 -0.2085
27369W        W43178   8.424  12.594  14.881 -0.0846 -0.2418  0.6653
27370W        W43179  15.515  14.077  12.038  0.2667 -0.3082  0.0547
27371W        W43180  18.510   5.562   4.395  0.0796  0.0445  0.7017
27372W        W43181  18.577   6.271   2.083 -0.0423  0.1262  0.0097
27373W        W43182   1.555   3.315   1.514  0.3168  0.0639 -0.4525
27374W        W43183  14.487   2.543   2.804  0.0545  0.1423 -0.1426
27375W        W43184  13.183   9.155   0.368  0.2364 -0.1020 -0.1871
27376W        W43185  14.216   2.227   1.216 -0.2675 -0.1651  0.1377
27377W        W43186   6.832  13.077  12.377  0.0910 -0.1299  0.0796
27378W        W43187  14.717   5.814   0.097  0.0195  0.4694 -0.1249
27379W        W43188   7.100  11.068   4.658 -0.0084  0.1212  0.1707
27380W        W43189  10.797   4.426  11.590 -0.1505 -0.1423 -0.0248
27381W        W43190  16.501  12.885  10.260 -0.1215  0.2910  0.0757
27382W        W43191   6.623   9.670   1.704  0.1828  0.1145 -0.1962
27383W        W43192  10.893   8.459  11.135 -0.0767  0.2376 -0.0554
27384W        W43193   0.038  10.438  12.805  0.2646  0.3694 -0.3583
27385W        W43194  18.126   1.771   4.887 -0.0333  0.0726  0.0348
27386W        W43195   1.265   8.663  13.214 -0.0155  0.1250 -0.0814
27387W        W43196   1.981  17.847   4.571 -0.1762 -0.0397 -0.1739
27388W        W43197   6.252  18.342   2.139  0.1812 -0.1035  0.4122
27389W        W43198   5.458  10.034  12.536  0.1667  0.2387 -0.3221
27390W        W43199  15.422   8.755   3.303 -0.4909 -0.0425  0.2544
27391W        W43200  12.457  13.317  11.803  0.1314  0.0947 -0.0177
27392W        W43201  10.792  16.074  11.999 -0.0349 -0.1937  0.0593
27393W        W43202   7.079  11.621   2.709 -0.0080  0.1947  0.1211
27394W        W43203   8.746   9.478   4.994  0.1305  0.0534 -0.0499
27395W        W43204  10.107  15.541  14.620  0.1076 -0.1749 -0.0555
27396W        W43205  14.350  17.334   1.995  0.1386  0.2469  0.3175
27397W        W43206  13.875   2.039   4.048  0.1469 -0.0955 -0.1055
27398W        W43207   5.364  13.009   1.442 -0.1390  0.2158  0.0319
27399W        W43208  13.154   4.905  15.338  0.3422 -0.0623  0.3280
27400W        W43209  12.211  16.032   1.526 -0.0824 -0.1492 -0.0920
27401W        W43210   3.580   4.801  12.667 -0.1227 -0.0362 -0.0631
27402W        W43211   1.974   2.116  12.116 -0.4088 -0.0373  0.2514
27403W        W43212   1.346   2.160  14.187  0.1079  0.0169 -0.0010
27404W        W43213   1.126   3.012   1.459 -0.0609 -0.3183  0.2017
27405W        W43214  17.234  10.856  10.813 -0.2371  0.0934 -0.0560
27406W        W43215   7.029   2.711  13.833  0.5160 -0.1917 -0.1675
27407W        W43216   0.450   1.182   1.685 -0.1527 -0.3002  0.2358
27408W        W43217   7.667  11.994   4.198  0.2370  0.1128  0.1383
27409W        W43218   9.645   4.728  12.500 -0.1293  0.0353  0.1273
27410W        W43219  17.739   1.675   3.942  0.1732 -0.0526  0.2772
27411W        W43220  12.186  14.134   3.615  0.3099 -0.0592  0.0058
27412W        W43221  17.303  15.574   0.318  0.2279 -0.0977  0.0260
27413W        W43222   3.144   0.865   5.107 -0.0429  0.3743 -0.0145
27414W        W43223   2.911   2.949   0.219  0.0877  0.0350  0.0639
27415W        W43224   2.998   9.587   1.470  0.0347  0.0629 -0.1983
27416W        W43225  12.039   5.025   1.915  0.0481 -0.0320 -0.1550
27417W        W43226   6.453   9.337   3.413  0.1532 -0.0999  0.4260
27418W        W43227   9.866  12.417   0.082  0.4907 -0.1564  0.0744
27419W        W43228  10.197  13.994  11.825  0.0112 -0.0676 -0.1146
27420W        W43229   7.047   0.899  12.173 -0.1921  0.1849  0.2493
27421W        W43230   0.545  13.575  14.365 -0.0848 -0.4015  0.2021
27422W        W43231   5.919   4.983   2.808 -0.0671 -0.1355 -0.1835
27423W        W43232  11.388  10.969   2.173 -0.0994 -0.3822 -0.1032
27424W        W43233  10.747   6.408  12.009  0.2557  0.1966  0.1319
27425W        W43234   2.736  13.785  12.427 -0.2142  0.1048 -0.1524
27426W        W43235   7.155  14.256  12.095  0.2677 -0.1076 -0.3030
27427W        W43236  10.843   2.419  13.114  0.0514  0.0164 -0.0592
27428W        W43237  17.400  12.272   5.511 -0.0307 -0.1036 -0.1080
27429W        W43238  16.177   1.241  11.558  0.3052 -0.0544 -0.0941
27430W        W43239   8.099  17.321  14.949  0.2351  0.1303  0.2031
27431W        W43240  13.107  15.839   3.824 -0.1577 -0.0818 -0.2466
27432W        W43241   4.133  12.755  14.049  0.5343 -0.0171  0.0023
27433W        W43242   2.052   3.519  14.793 -0.1957 -0.0790  0.2479
27434W        W43243  15.235   8.078  14.882  0.3075  0.2856 -0.0599
27435W        W43244   9.906   5.282   5.020  0.4097  0.0896  0.1460
27436W        W43245  13.952   2.951  10.971 -0.3203  0.0668  0.0936
27437W        W43246   4.000   7.422  11.148 -0.2116 -0.1910 -0.0361
27438W        W43247   7.404   7.558  12.612 -0.2343 -0.0649 -0.0137
27439W        W43248  14.831  13.392  10.820  0.1839  0.1474 -0.4106
27440W        W43249  14.167  12.217   5.720 -0.0522 -0.0280  0.1966
27441W        W43250   0.031   8.188   2.614  0.0187  0.1188 -0.0830
27442W        W43251  16.847  10.534   3.029  0.3001 -0.1272  0.0092
27443W        W43252  16.033   3.304  11.797  0.2519  0.3084 -0.1074
27444W        W43253   8.904  15.340  12.441 -0.4221  0.2196  0.0164
27445W        W43254   8.352   4.586  14.551 -0.2045 -0.0043  0.0238
27446W        W43255   0.466   0.168   1.680 -0.2454 -0.0718  0.0663
27447W        W43256   8.722   3.266  13.430 -0.0633  0.0377 -0.3202
27448W        W43257  16.812  12.901   0.569 -0.2301  0.1002 -0.4414
27449W        W43258  14.866  18.123  14.645  0.0000 -0.0999 -0.1146
27450W        W43259  11.864   8.583  11.952 -0.0253  0.1261  0.0357
27451W        W43260  10.830   6.430   2.412  0.1149  0.0568 -0.0122
27452W        W43261  12.537  16.550  11.099  0.0389  0.0405  0.1525
27453W        W43262   6.101  15.555   1.682 -0.2101 -0.0082 -0.2985
27454W        W43263   9.014   2.615   1.121  0.2521  0.0843 -0.4655
27455W        W43264   1.476   3.854   0.425 -0.0558  0.2634 -0.0844
27456W        W43265   6.809  18.379   2.948 -0.1704 -0.1340  0.0596
27457W        W43266  14.757   9.511   5.688 -0.1087 -0.1203 -0.0755
27458W        W43267  11.342   2.217   2.192 -0.1330  0.0010  0.2756
27459W        W43268  10.887   3.491  10.569 -0.1120  0.0634 -0.2602
27460W        W43269   4.864  11.753  15.130 -0.1488 -0.1016 -0.0882
27461W        W43270   2.381  12.001   4.129  0.1516 -0.0093 -0.1573
27462W        W43271   1.136   8.909   3.062  0.5352 -0.1034 -0.0568
27463W        W43272  14.362   7.397   1.723 -0.0276  0.1990 -0.0228
27464W        W43273  18.282  17.296   5.712 -0.0606 -0.0195 -0.0026
27465W        W43274  17.319   8.926   0.073 -0.0483 -0.0221  0.1114
27466W        W43275  11.511  10.007   3.805  0.2152  0.2159  0.1611
27467W        W43276   0.774  14.572  11.543  0.1191 -0.2223 -0.2833
27468W        W43277  17.493   4.433  13.509  0.0915  0.1372  0.2294
27469W        W43278   8.206  10.836  11.814  0.1736 -0.1722  0.1374
27470W        W43279  18.781   9.227   4.645  0.1042 -0.0072 -0.1097
27471W        W43280   7.913   7.232   2.103 -0.2449  0.2640 -0.1083
27472W        W43281  11.372  10.475  12.007 -0.0863  0.2103 -0.0314
27473W        W43282  18.601   7.896   1.704 -0.1104  0.1115 -0.2609
27474W        W43283   9.484   2.697  11.431 -0.0796 -0.0267  0.1998
27475W        W43284  15.188   3.581  15.383 -0.2135 -0.3381 -0.2152
27476W        W43285   6.576  15.965   0.825  0.1899 -0.2737 -0.3958
27477W        W43286   7.804   1.470  11.576  0.2674 -0.0911  0.1070
27478W        W43287  17.711  17.585   1.334 -0.0413 -0.2379 -0.1202
27479W        W43288   6.598   3.746   1.401 -0.0933  0.0865 -0.1688
27480W        W43289   7.362   2.160   1.643 -0.0896  0.2360  0.2082
27481W        W43290  16.784  12.020   2.104  0.0522  0.0886  0.0679
27482W        W43291  10.286   5.281  11.487  0.1932 -0.0471  0.0886
27483W        W43292   9.884  14.361   9.509 -0.1146  0.0203 -0.0058
27484W        W43293   0.535  10.626   0.955 -0.2294 -0.0688  0.2176
27485W        W43294  10.699   3.371  11.944 -0.1024 -0.0279 -0.0721
27486W        W43295  17.854  12.824   0.252 -0.0029  0.1082 -0.2337
27487W        W43296   4.031  14.374  11.760  0.2230  0.0728 -0.4126
27488W        W43297   4.802   4.453   4.273  0.3743  0.0967 -0.2433
27489W        W43298   8.100   9.655   5.787  0.0307  0.2427  0.0134
27490W        W43299   7.900   9.161   2.340 -0.0568 -0.1701  0.0476
27491W        W43300  17.527   4.488   3.513  0.2947  0.3583 -0.1670
27492W        W43301  16.275   1.069  14.232  0.3276 -0.2221  0.0637
27493W        W43302  13.322  10.689   0.119  0.1519  0.3122 -0.1324
27494W        W43303  11.449  13.686   5.576  0.1582 -0.2225  0.0432
27495W        W43304  15.115  15.233  13.620 -0.1008 -0.0379  0.0071
27496W        W43305  17.712  11.484  14.386  0.2097  0.0725 -0.1164
27497W        W43306   0.584   5.194  14.985 -0.1722  0.0643  0.0490
27498W        W43307   7.485   8.667  10.238  0.2158 -0.4530  0.2934
27499W        W43308   3.320  17.347   2.523  0.3494 -0.2669  0.0173
27500W        W43309   1.480   3.536   5.618  0.0394  0.1755  0.0325
27501W        W43310   7.535   9.424   2.527 -0.0069 -0.3932 -0.0013
27502W        W43311  12.371   0.751   2.111  0.0262 -0.0243  0.0419
27503W        W43312  12.969   4.671   2.076  0.0352  0.0730 -0.1198
27504W        W43313   1.574   3.314  10.167  0.0360  0.2738 -0.1562
27505W        W43314  10.296   1.767  15.395  0.1923 -0.1624 -0.0293
27506W        W43315  15.768  14.947   0.570 -0.1765 -0.0953  0.2027
27507W        W43316  13.382  12.618  11.068 -0.0504 -0.1442  0.0711
27508W        W43317  12.240  16.732   3.870  0.0194  0.0240  0.0397
27509W        W43318  16.662  14.889   0.464 -0.0796  0.1153 -0.1663
27510W        W43319   5.998   4.935   3.972 -0.0760  0.1474 -0.1017
27511W        W43320  17.326   3.523   1.961  0.3217  0.1293  0.1298
27512W        W43321  15.081   9.053   3.060 -0.0097  0.1054 -0.5186
27513W        W43322  17.156  17.821  11.585 -0.1269  0.0062  0.0562
27514W        W43323  13.068   7.964   0.105 -0.1259  0.0413 -0.0222
27515W        W43324  11.845   9.728  11.953 -0.1174 -0.2357  0.0688
27516W        W43325   1.139  11.327  11.226  0.0591  0.0488 -0.0513
27517W        W43326   4.628  12.240  10.950  0.3189  0.2461 -0.1387
27518W        W43327   7.262   8.281  12.418  0.2665 -0.1139  0.0586
27519W        W43328  10.482   5.689   4.282 -0.1767 -0.1073  0.0940
27520W        W43329   6.343  17.357  14.139 -0.1252 -0.0575  0.0445
27521W        W43330   4.050   1.729   1.706  0.0323  0.2061  0.3480
27522W        W43331  13.009  10.907  10.755 -0.3984 -0.3857  0.1545
27523W        W43332   0.774   8.073   1.770 -0.1683 -0.0080  0.2925
27524W        W43333   8.495   1.500   1.746 -0.2875  0.0890 -0.0394
27525W        W43334  14.399   6.849  15.139  0.0330 -0.1060  0.1813
27526W        W43335   5.971   4.468  12.342  0.1300 -0.1412  0.1481
27527W        W43336  10.708   1.028  13.722  0.2740 -0.0858  0.1296
27528W        W43337   6.866  17.522  13.026 -0.4514 -0.0527 -0.3306
27529W        W43338   3.562   2.735  12.954  0.0576 -0.2711  0.1415
27530W        W43339  11.936   6.988   0.546 -0.1505 -0.0506 -0.2699
27531W        W43340   5.036  11.803   2.910 -0.0328 -0.0679 -0.1140
27532W        W43341   0.196  11.947   3.457  0.2350 -0.1600 -0.5550
27533W        W43342   8.595  14.888   3.441 -0.0954  0.3488  0.1454
27534W        W43343   7.791   5.302   0.210 -0.2747  0.4386 -0.2669
27535W        W43344   8.062   8.786   3.720  0.0275  0.1217  0.1587
27536W        W43345   0.931   5.589  13.367 -0.3027  0.1061 -0.1589
27537W        W43346   9.276  17.124  11.898  0.1054  0.2531 -0.2576
27538W        W43347   8.536   8.545   2.085 -0.1565  0.2056  0.4298
27539W        W43348   3.412   4.735   4.817  0.2310  0.0646  0.3168
27540W        W43349  10.296   6.576  11.838  0.1131 -0.0660  0.2346
27541W        W43350  11.320  14.671   5.045 -0.2083 -0.1000 -0.1214
27542W        W43351  10.831  16.169   0.152 -0.2145  0.0586  0.1706
27543W        W43352  14.282  13.578   1.095 -0.0819  0.1131 -0.0910
27544W        W43353   9.859  15.378   3.990 -0.1424  0.0638 -0.1216
27545W        W43354   3.601   2.173  11.288 -0.0476  0.1522  0.0244
27546W        W43355   5.974   4.566   3.638 -0.0848 -0.0182 -0.0037
27547W        W43356  18.547   6.053   4.305  0.0819  0.2837  0.0359
27548W        W43357  16.462   1.375  13.289  0.0033  0.2128  0.1923
27549W        W43358   3.274   6.736   3.034 -0.1532  0.0561  0.2916
27550W        W43359  16.839  15.776   1.505 -0.1306 -0.0323  0.0760
27551W        W43360  14.434  15.661   2.217  0.2996  0.3232 -0.0348
27552W        W43361  10.237  14.248   0.468 -0.1116 -0.1310  0.1152
27553W        W43362   0.230  10.245   3.588  0.4028 -0.1324 -0.1742
27554W        W43363   7.007  18.478  14.073  0.2277 -0.0638 -0.0522
27555W        W43364  15.533  12.042   1.089 -0.0443 -0.0107  0.2172
27556W        W43365  11.851  18.657  11.842 -0.2442 -0.0136  0.2759
27557W        W43366   5.610   7.313   3.915 -0.1058  0.4538 -0.0483
27558W        W43367  18.519  12.813   2.985  0.0121 -0.5450  0.1572
27559W        W43368  18.341   9.691   3.415  0.0469  0.1360  0.0232
27560W        W43369   6.303  10.673   2.645  0.1533 -0.1763  0.4917
27561W        W43370   2.897   7.286  14.873  0.0132  0.1702 -0.1569
27562W        W43371  14.669  12.976   3.201  0.0238  0.0309 -0.0056
27563W        W43372  17.799  17.886   0.874  0.1806  0.1716  0.3300
27564W        W43373  17.910  13.872   5.050  0.0129 -0.0458  0.1604
27565W        W43374  11.579  18.055   4.811 -0.2999 -0.0495  0.1115
27566W        W43375   9.376  14.263   3.395 -0.2910  0.3568 -0.3963
27567W        W43376   5.500   8.435   5.243 -0.0483  0.0335  0.1025
27568W        W43377   3.572   0.773  11.490 -0.0221  0.2760 -0.0968
27569W        W43378   5.405   1.974   2.815 -0.1412  0.1479 -0.2621
27570W        W43379  11.295  10.906   4.564  0.2078  0.2187  0.1290
27571W        W43380   3.556  14.392  10.838 -0.0317  0.0207 -0.2431
27572W        W43381   8.515  16.765  11.708  0.1543  0.0986  0.1231
27573W        W43382   4.697  16.430  15.454 -0.4523 -0.0266  0.1866
27574W        W43383   0.243  12.964   0.792  0.0686 -0.1431  0.3622
27575W        W43384   6.878  17.923  13.348  0.3405 -0.2514 -0.0494
27576W        W43385   8.245   7.778  12.874 -0.4984 -0.1150 -0.1514
27577W        W43386  18.426  14.357  10.470 -0.1202  0.2331 -0.0318
27578W        W43387   0.399  14.931  14.866  0.1445  0.1637 -0.0044
27579W        W43388   0.458  11.729   4.392  0.1721  0.0678 -0.1455
27580W        W43389   7.171   9.146  11.237 -0.3491  0.1859 -0.0772
27581W        W43390  12.821   1.675  13.672  0.2468 -0.0172  0.1721
27582W        W43391  12.651   5.430  13.228 -0.0714 -0.2284 -0.2494
27583W        W43392   0.676   7.363  13.433 -0.2190  0.1853 -0.2412
27584W        W43393   7.693  14.756   1.452  0.0273 -0.1490  0.0515
27585W        W43394   8.956   1.101  13.719  0.0490  0.0784 -0.2068
27586W        W43395   5.750   6.466   2.493 -0.0094  0.0156  0.1034
27587W        W43396   6.931   7.464  11.032  0.0576  0.0862 -0.0915
27588W        W43397  16.746  12.180  12.929  0.2726 -0.0323 -0.3198
27589W        W43398  10.861   3.635  14.160 -0.0933 -0.0839  0.2507
27590W        W43399   3.906  13.730  14.435 -0.0268 -0.2695 -0.1725
27591W        W43400  16.384  13.477  13.715 -0.1410  0.0596  0.1799
27592W        W43401  18.397   1.997  13.426 -0.1279  0.1253 -0.0419
27593W        W43402  13.620  17.860   5.939 -0.1106 -0.0285  0.1438
27594W        W43403   4.486  16.418  11.216  0.1710 -0.0678 -0.1818
27595W        W43404  15.230  13.804   2.174  0.0058 -0.3296 -0.1181
27596W        W43405   7.096   9.482   2.762 -0.0444 -0.2494  0.0646
27597W        W43406   5.649  12.257   2.024 -0.0991  0.0241  0.3133
27598W        W43407  13.735  16.338   3.272  0.0527 -0.0269  0.0443
27599W        W43408  17.779   9.938  12.774  0.0573  0.0015  0.1967
27600W        W43409  13.503  16.801   3.108 -0.2073  0.1059  0.0104
27601W        W43410   7.231  12.913  15.319 -0.0294  0.2991 -0.1601
27602W        W43411  10.989   6.021  10.448 -0.1265 -0.2018  0.0222
27603W        W43412   2.568  17.359   3.249  0.1867 -0.0042  0.0496
27604W        W43413  14.082   2.729   2.125  0.1557 -0.1368  0.0796
27605W        W43414  14.759   9.367   1.497  0.0187 -0.0407 -0.0107
27606W        W43415  12.782  18.388  11.591 -0.1838  0.1797  0.3574
27607W        W43416   0.342   5.504  12.099 -0.1329 -0.0700 -0.3800
27608W        W43417   3.079   4.339  10.735 -0.2147 -0.1979  0.1156
27609W        W43418   3.361   7.696  11.563 -0.1682 -0.1690  0.2387
27610W        W43419   5.330   4.956   2.149  0.2160  0.0705 -0.2549
27611W        W43420   8.557   7.696  12.456  0.0646  0.1779  0.1287
27612W        W43421  11.496  16.252   2.877  0.2672 -0.0197 -0.1260
27613W        W43422  15.052   5.843   5.041  0.2509 -0.0962  0.1042
27614W        W43423   1.024  12.992   3.641  0.0190 -0.1735 -0.0127
27615W        W43424  17.323   6.739  10.474  0.0240  0.0120  0.0359
27616W        W43425  17.960   0.573  11.898 -0.0833 -0.1520 -0.1331
27617W        W43426  13.727  14.678   4.238  0.0773  0.3115  0.0334
27618W        W43427  16.261  14.738  12.212 -0.1365  0.4322 -0.3872
27619W        W43428   9.355   3.755   2.900  0.4053  0.1730 -0.0568
27620W        W43429   1.169   9.630   4.505 -0.0704 -0.0934 -0.0386
27621W        W43430   2.352  11.653   3.789 -0.1415 -0.0557 -0.3637
27622W        W43431   3.019  13.402  13.273  0.0603 -0.2368 -0.2210
27623W        W43432   2.133  10.927   2.011 -0.0855  0.2906 -0.1699
27624W        W43433   7.015   4.209   2.392 -0.0368 -0.0129  0.0202
27625W        W43434  11.147  18.110   2.927 -0.1054  0.2415 -0.0745
27626W        W43435  15.499  13.138   2.466  0.4169  0.0568 -0.0952
27627W        W43436   6.444   2.815  11.510  0.1373 -0.0441  0.0137
27628W        W43437   9.472  10.025   5.380 -0.2973 -0.0529  0.4621
27629W        W43438  11.828  15.037  14.674  0.1218 -0.0931  0.1770
27630W        W43439  17.822  16.132   2.815  0.0168  0.1030 -0.3753
27631W        W43440   2.620  16.155  15.198 -0.1615  0.1585 -0.1917
27632W        W43441  13.800  10.250   3.465 -0.2057  0.1524 -0.0728
27633W        W43442  14.104   6.599  15.452 -0.3421  0.0045  0.0812
27634W        W43443  14.078   4.534  15.190  0.2144  0.2366 -0.2084
27635W        W43444   3.309   9.320   5.402  0.0137  0.1191  0.0815
27636W        W43445  16.201  17.134  15.257  0.0739 -0.1552 -0.3978
27637W        W43446  14.381   0.270  12.063 -0.4109  0.0475 -0.0709
27638W        W43447  17.683  11.922   2.553 -0.0521 -0.0803 -0.1896
27639W        W43448  15.488  11.282   3.312  0.4953  0.4930 -0.1839
27640W        W43449  16.283  13.462  14.227  0.1899  0.3123 -0.1981
27641W        W43450   8.585   5.155   1.743  0.2434 -0.1978 -0.0726
27642W        W43451   0.958  12.632  13.603 -0.1999  0.0409 -0.0299
27643W        W43452   2.353  15.988   3.167  0.0711 -0.1776 -0.2830
27644W        W43453   8.454  13.308  10.293 -0.1365 -0.1634 -0.0242
27645W        W43454  15.756  18.761   0.735  0.4256  0.4157 -0.1039
27646W        W43455  12.827  16.441   1.995  0.1951  0.0978 -0.1233
27647W        W43456  15.946  18.072   4.570 -0.2802  0.3106 -0.2773
27648W        W43457  17.219  17.372   3.203 -0.1884  0.0039  0.1629
27649W        W43458   0.107   4.364   2.226 -0.0428 -0.4448 -0.0161
27650W        W43459  16.533  14.798   2.839  0.0576  0.1917  0.0938
27651W        W43460  11.814  11.013   4.866  0.2680  0.0772  0.0222
27652W        W43461   0.377  14.650   1.162  0.2639 -0.1753 -0.2399
27653W        W43462  11.461  12.923   4.541 -0.0001  0.3830 -0.1466
27654W        W43463  10.249  13.305   4.913  0.0151 -0.2127  0.0767
27655W        W43464   4.942   1.969   3.308  0.0157  0.2209 -0.0769
27656W        W43465   8.488  18.679  12.376  0.3125 -0.0870 -0.1849
27657W        W43466   9.401  14.688   3.726 -0.3355 -0.0123 -0.0864
27658W        W43467  14.416   5.560   1.632  0.3388 -0.2662 -0.1041
27659W        W43468   6.091  14.727   4.672 -0.0473 -0.1880 -0.3178
27660W        W43469   5.926  18.731  10.790 -0.1326  0.0869 -0.1298
27661W        W43470   6.989   5.055   5.468  0.1390  0.3595 -0.1346
27662W        W43471  11.876  16.406   3.777 -0.0775  0.0483 -0.3279
27663W        W43472   5.338  14.718  12.494  0.3098 -0.0178  0.1183
27664W        W43473   4.058  12.318  12.311  0.1614 -0.0441  0.1443
27665W        W43474   0.414   4.150   0.071  0.0696  0.2270  0.3550
27666W        W43475   1.437   1.768  14.556  0.0596  0.1787 -0.3417
27667W        W43476  13.888   3.223  12.245  0.0031  0.1489  0.1145
27668W        W43477   7.492   0.414  11.494  0.0526  0.0546 -0.2845
27669W        W43478  18.575   7.642  10.986  0.2976  0.0445 -0.1451
27670W        W43479  10.415  17.307   5.029 -0.0644 -0.0341  0.0674
27671W        W43480  14.401   1.553   5.027  0.1189 -0.1319  0.1780
27672W        W43481  15.284  11.579  15.383 -0.2573  0.1899 -0.0466
27673W        W43482   9.738   8.410   0.161 -0.0454  0.1646  0.0308
27674W        W43483  12.141   2.804  13.743  0.1386 -0.1213  0.0062
27675W        W43484  10.078  12.802  13.535 -0.1118 -0.3221  0.2909
27676W        W43485  12.086   7.922   1.531  0.1668  0.3811  0.2122
27677W        W43486   8.318  12.390  11.204 -0.3394  0.0784 -0.0034
27678W        W43487  10.523   5.010   1.812 -0.2190 -0.2603  0.0010
27679W        W43488  14.755   6.991   1.722 -0.1668 -0.0072  0.0133
27680W        W43489  10.449  13.878   0.057 -0.1673  0.1502  0.1953
27681W        W43490   8.280   8.903   0.199 -0.2126 -0.3371  0.2044
27682W        W43491  10.717   1.729  12.667 -0.0010 -0.1075  0.0905
27683W        W43492   8.930  16.459   4.871  0.1530 -0.3565  0.1620
27684W        W43493  13.561   7.356   1.718 -0.0038  0.0061 -0.0519
27685W        W43494   0.617   6.727  14.034  0.3002 -0.1416 -0.0496
27686W        W43495   0.251   6.583  15.226 -0.0830 -0.1335 -0.0664
27687W        W43496  15.936  13.968  11.721  0.2068 -0.2009  0.1955
27688W        W43497   1.479  16.989  13.578 -0.0941  0.0428 -0.0009
27689W        W43498  12.479   1.935  12.203 -0.1391  0.0402 -0.0427
27690W        W43499  12.894  13.432   4.928 -0.3962 -0.0109 -0.0660
27691W        W43500  12.078  14.612  14.272 -0.3131 -0.0062  0.3849
27692W        W43501  16.078   4.495   4.320 -0.1563  0.1474  0.2569
27693W        W43502  17.233   6.820   3.654  0.0029  0.1435 -0.1527
27694W        W43503  11.639  13.753   2.830  0.0496  0.1031  0.3900
27695W        W43504  18.768   2.397  13.634  0.1358 -0.1886  0.0031
27696W        W43505  15.572   1.222   2.746  0.5415 -0.0146  0.0822
27697W        W43506   8.609  16.469  14.661  0.0030  0.0792 -0.0406
27698W        W43507  13.052   8.105   5.678 -0.1083  0.0055  0.1407
27699W        W43508  16.842   2.854  11.895 -0.2649  0.1504 -0.1783
27700W        W43509   8.850  12.380  13.708  0.0141 -0.0662 -0.2261
27701W        W43510   1.836   0.145   3.415  0.0140  0.2926  0.0836
27702W        W43511   1.782   8.280  15.513 -0.1376  0.2726 -0.2227
27703W        W43512   3.192   2.310  12.112  0.1085 -0.1163 -0.1534
27704W        W43513   6.560  14.301  13.854 -0.1060  0.2339  0.0970
27705W        W43514  16.096  11.436  11.266 -0.3088 -0.2399  0.0247
27706W        W43515   3.679   3.813   0.673 -0.0985  0.0403 -0.1590
27707W        W43516  14.210   7.038   3.682  0.2324  0.5907 -0.0385
27708W        W43517  11.845   2.819   1.103  0.0832 -0.1203 -0.2047
27709W        W43518   8.020   1.189  13.440  0.0347  0.1467 -0.0131
27710W        W43519   0.060   0.814  14.505 -0.1313 -0.0448  0.2694
27711W        W43520  13.379   1.128   2.481 -0.0692  0.0072 -0.1851
27712W        W43521   8.259   7.273   3.130 -0.2807  0.2401 -0.0835
27713W        W43522  11.931  14.022   3.211  0.1145  0.2076  0.3754
27714W        W43523  16.823   7.786  14.094 -0.2903  0.2534 -0.2260
27715W        W43524   2.768  18.206   3.959 -0.2065 -0.0101  0.2893
27716W        W43525   6.615  12.041   3.597 -0.3481  0.0998 -0.1347
27717W        W43526   8.463   3.176   3.720 -0.1744  0.0533  0.3267
27718W        W43527   5.000   8.847  14.384  0.0471 -0.1172  0.0023
27719W        W43528  14.235  17.779   4.940  0.2312  0.0926  0.2709
27720W        W43529   7.089  16.657  12.218  0.1173  0.2267 -0.2306
27721W        W43530   8.339   8.120  14.862 -0.0794 -0.0051 -0.0831
27722W        W43531   2.483  13.687   9.387 -0.0866 -0.0600  0.2918
27723W        W43532   3.966   9.587  12.972 -0.1307 -0.4733 -0.0169
27724W        W43533  10.840   0.146  13.824 -0.0724 -0.0698 -0.0647
27725W        W43534   2.429   5.863   4.506 -0.0592 -0.0845  0.0032
27726W        W43535   8.686  15.188   0.593  0.2772  0.0707  0.1383
27727W        W43536  16.487   6.099   1.080  0.0222 -0.0056  0.1268
27728W        W43537   9.964   9.110   6.262  0.1197  0.0175  0.1708
27729W        W43538   2.361   2.178   0.890  0.0974  0.1132  0.0138
27730W        W43539  18.713   0.058   5.314 -0.2869 -0.1020  0.2372
27731W        W43540   9.853  18.145  13.684 -0.0294  0.2087 -0.1425
27732W        W43541   2.552  10.966  11.019 -0.0982  0.0596  0.2477
27733W        W43542  13.771   4.093  13.492  0.1288  0.0243 -0.2804
27734W        W43543  13.643   6.377  11.293  0.2263  0.3105 -0.0769
27735W        W43544  15.146   4.648  12.780 -0.0140 -0.0560  0.1865
27736W        W43545   8.940   2.745  12.263 -0.0780  0.1031 -0.0309
27737W        W43546  14.984  15.472   0.312 -0.0864  0.1362  0.2300
27738W        W43547   3.782   3.587   1.777 -0.0652  0.4586 -0.2115
27739W        W43548  14.467   8.546   2.462  0.2825  0.2024  0.2438
27740W        W43549   7.433   3.811  10.824  0.2099  0.0512 -0.0118
27741W        W43550   9.713   7.737  14.788 -0.3164 -0.3657 -0.6268
27742W        W43551  13.738   3.463   3.339 -0.2684 -0.0199 -0.0254
27743W        W43552   5.209   1.328  11.727 -0.2176  0.2021 -0.1234
27744W        W43553  10.072  17.661   2.640 -0.0973  0.0597 -0.1923
27745W        W43554  17.389  13.364  14.746  0.2274 -0.0409  0.1002
27746W        W43555   2.275   0.980   0.503 -0.2288 -0.0635  0.0830
27747W        W43556   6.283   3.833   1.893  0.0815  0.2659 -0.0432
27748W        W43557  11.817   1.645  15.491  0.0367 -0.2240  0.1193
27749W        W43558  11.824   6.013   5.067 -0.1171  0.0372  0.1306
27750W        W43559   7.758  16.978  15.049 -0.1126  0.1301 -0.0443
27751W        W43560  12.304  17.664  14.469 -0.2877 -0.1423 -0.1871
27752W        W43561   9.072   1.224  13.249  0.0064  0.0259  0.1805
27753W        W43562  17.786   6.966   2.403  0.1468 -0.2491 -0.0538
27754W        W43563  13.671   6.455   2.590 -0.1292 -0.5345  0.2680
27755W        W43564  11.398  15.880  12.134  0.0077  0.0247 -0.3052
27756W        W43565   5.327   5.925  13.269  0.1914 -0.1229  0.1430
27757W        W43566   1.069  10.682   4.500 -0.1252  0.0919  0.3076
27758W        W43567  18.504  18.727   1.264  0.1224 -0.1227  0.4251
27759W        W43568   9.526   9.124  12.607  0.3924  0.1046 -0.2626
27760W        W43569  10.550   6.916   3.684  0.1701  0.1180  0.1684
27761W        W43570   2.446  15.506  14.380 -0.0193  0.1701  0.2080
27762W        W43571  15.826   2.964   2.595 -0.0344  0.0832  0.1038
27763W        W43572   8.964  18.004   5.192 -0.1841 -0.0617 -0.1573
27764W        W43573   0.767   1.855  10.980  0.1956  0.3144 -0.2810
27765W        W43574  18.080  14.986  12.095  0.4626  0.2208 -0.1391
27766W        W43575  16.667   4.127   2.137  0.0732  0.3468  0.0893
27767W        W43576  10.396   2.301   4.649  0.4016  0.2763  0.0539
27768W        W43577  17.398   2.237  10.589  0.4868  0.0882 -0.0016
27769W        W43578   1.392   9.415   1.115 -0.0968  0.4815 -0.0646
27770W        W43579   6.127   0.960   5.138  0.5896 -0.1380 -0.3727
27771W        W43580  15.612   9.863   0.162  0.0277 -0.5696  0.0881
27772W        W43581  12.736   8.765  10.968  0.0500 -0.0378  0.0030
27773W        W43582   4.840   9.689   0.612  0.3457 -0.4197 -0.0784
27774W        W43583  18.023  10.691   0.931 -0.1055 -0.0905  0.1952
27775W        W43584   8.902  16.273  13.200 -0.1711  0.1176 -0.0771
27776W        W43585  10.680  10.865  13.887  0.0882  0.0839 -0.1965
27777W        W43586  11.287  14.632  12.403  0.1873  0.1441 -0.0766
27778W        W43587  12.323  14.846  14.785 -0.0862  0.0606 -0.2159
27779W        W43588   4.990   2.541   3.553  0.4696  0.1865  0.1464
27780W        W43589   6.560   6.210  11.019  0.0917 -0.0953  0.3369
27781W        W43590   4.934   9.442  11.931  0.0499 -0.0839 -0.2584
27782W        W43591   7.546  17.059   0.387 -0.1086 -0.1907  0.2696
27783W        W43592  14.997   0.260  12.771  0.4254 -0.1391 -0.2340
27784W        W43593   4.279   0.095  11.545 -0.0332 -0.0423  0.0751
27785W        W43594  14.708  17.281   2.305 -0.0649 -0.0234 -0.3196
27786W        W43595  18.369   2.995  11.167  0.3272  0.2470  0.0429
27787W        W43596  11.665   6.965   1.999  0.0422 -0.0439  0.1131
27788W        W43597  15.782   4.150  14.061 -0.1478  0.0609  0.3066
27789W        W43598   3.042  11.829   3.915 -0.6309 -0.1831 -0.1625
27790W        W43599  12.159   3.798   3.386  0.0899 -0.0170  0.2134
27791W        W43600   6.813   3.790  15.276  0.1357  0.0768  0.0208
27792W        W43601   1.934   8.220   5.116  0.3054 -0.1444 -0.0799
27793W        W43602   8.910  10.907  11.018 -0.1207  0.0838  0.0545
27794W        W43603  13.693   7.527   4.406  0.0719 -0.0842 -0.1084
27795W        W43604  14.125   1.447   2.692 -0.1797  0.0740  0.0844
27796W        W43605   0.597  13.378   0.150  0.0588 -0.1964  0.0993
27797W        W43606  13.518   7.819   5.519 -0.0572 -0.3486  0.0445
27798W        W43607   1.770   9.351  13.841 -0.2809 -0.2191 -0.2242
27799W        W43608  17.547  14.897   0.170 -0.2041  0.0885 -0.0999
27800W        W43609  11.442  16.820  12.714 -0.2322  0.1978 -0.0850
27801W        W43610  17.911   3.630   5.057 -0.1207 -0.2082  0.1492
27802W        W43611   8.170   2.601   5.275 -0.0204 -0.1718  0.0594
27803W        W43612  15.478  12.375  14.799 -0.1009 -0.0588 -0.2005
27804W        W43613   8.468  10.201  13.096  0.0219  0.0636  0.1545
27805W        W43614  10.426   9.333   3.518  0.0589  0.1268  0.1593
27806W        W43615   4.114   9.120  11.836 -0.1426  0.1012  0.2212
27807W        W43616   4.361  13.800   2.756  0.1286  0.1776  0.0077
27808W        W43617   2.797   2.889   2.442 -0.0752 -0.4547 -0.1412
27809W        W43618   7.009   2.807  10.961 -0.1851  0.1653  0.5429
27810W        W43619   2.645  12.431   4.117 -0.0462  0.2332 -0.2302
27811W        W43620  10.014  14.090  12.343 -0.2052 -0.2903  0.2413
27812W        W43621   6.076  11.892   4.535  0.1435  0.1590  0.0028
27813W        W43622   5.929   6.322   5.418 -0.0738  0.2874 -0.2043
27814W        W43623   3.319  17.682   4.338 -0.1711  0.0570  0.0040
27815W        W43624  14.033   1.927   0.531 -0.2430  0.0048 -0.5515
27816W        W43625  10.263   9.331   4.273  0.4083  0.0926  0.2200
27817W        W43626   1.490   9.808  15.548  0.1116 -0.0716 -0.0727
27818W        W43627  15.340   3.111   3.759  0.0741 -0.4008  0.0135
27819W        W43628   9.220   7.506  12.103  0.1174  0.2779  0.1752
27820W        W43629  11.529   2.103  14.725 -0.0238  0.0387 -0.0062
27821W        W43630   6.082  15.822   0.839  0.1034  0.1333 -0.0213
27822W        W43631   8.780   5.210  13.927  0.0137  0.0519 -0.0602
27823W        W43632  13.733  10.521  13.795 -0.1081 -0.2736  0.1246
27824W        W43633   4.024   1.839  13.101 -0.0320  0.1715  0.0757
27825W        W43634   7.464   5.765  11.738 -0.0101  0.1868 -0.1330
27826W        W43635   8.411  10.214   1.681  0.2274 -0.3326 -0.0637
27827W        W43636   1.935  14.194  12.639  0.1180 -0.2585  0.0072
27828W        W43637  17.244  13.799  12.640  0.1684  0.4289  0.1892
27829W        W43638   8.332  10.574   1.146 -0.4161  0.1934 -0.1538
27830W        W43639   2.469  14.283  12.203 -0.1197  0.1043  0.1000
27831W        W43640  15.693  14.700  14.761  0.0844  0.3837  0.1954
27832W        W43641   2.947  15.798  12.990 -0.1164 -0.0997  0.1214
27833W        W43642  14.322   8.786  12.884 -0.0572 -0.2919 -0.0700
27834W        W43643  10.358   8.915   5.335  0.1832 -0.0580 -0.2734
27835W        W43644   0.012   3.610   2.871 -0.5209 -0.3781  0.1117
27836W        W43645   2.714   7.635  13.955 -0.2650 -0.0955  0.0921
27837W        W43646  10.745   1.937  15.387  0.0638  0.1014 -0.0202
27838W        W43647  16.314   8.527  12.697  0.1068 -0.1829 -0.1007
27839W        W43648   6.824   0.561  12.597  0.1781  0.0650  0.0335
27840W        W43649  11.645   0.714   1.778 -0.0778  0.0247 -0.2026
27841W        W43650   7.453  11.418  13.737 -0.0480 -0.0342 -0.0401
27842W        W43651  11.422   5.591   2.055  0.0217  0.1692  0.2219
27843W        W43652   5.528   2.714  11.400 -0.4247  0.1419  0.1843
27844W        W43653  17.837   7.967   1.139 -0.1125 -0.2438 -0.0602
27845W        W43654  17.000  18.411   5.566  0.1464 -0.0237  0.0243
27846W        W43655   6.970  11.724  15.331 -0.1991 -0.1532 -0.0287
27847W        W43656  17.714   5.891   5.988  0.2619 -0.2837  0.0175
27848W        W43657  15.555  11.187  12.933  0.1735  0.0078 -0.0727
27849W        W43658  18.620   0.257  11.563  0.2388  0.2881  0.0051
27850W        W43659   3.111  10.841   3.913  0.1006  0.2437 -0.1184
27851W        W43660  17.961  15.443   5.182 -0.3741 -0.0118  0.0024
27852W        W43661  13.320   9.520  10.768  0.1132 -0.3993 -0.1063
27853W        W43662   0.554  12.665   2.813  0.5848 -0.1056 -0.3255
27854W        W43663   4.190  16.534  12.585  0.0614  0.0792  0.2458
27855W        W43664  17.059  10.440  12.411  0.0958  0.1258 -0.4940
27856W        W43665   9.283   4.083   3.240 -0.0325  0.1833 -0.3070
27857W        W43666   3.894  14.543  13.807  0.2261  0.0779 -0.4176
27858W        W43667   8.798  16.182   5.324  0.3580  0.0041  0.1983
27859W        W43668  16.725   1.610  14.367 -0.4674  0.0179 -0.0871
27860W        W43669  15.801   5.654   2.412 -0.4037  0.0811 -0.0481
27861W        W43670  12.795  12.048  12.744 -0.1167  0.4152 -0.1773
27862W        W43671   7.673  13.318  13.091  0.1115  0.2028 -0.1126
27863W        W43672   8.180   2.568   4.673 -0.0009 -0.3205 -0.1817
27864W        W43673   2.369  14.371   3.242 -0.2683  0.1012  0.1610
27865W        W43674  16.957  10.109  15.478  0.0660  0.1060  0.0834
27866W        W43675   3.684   3.275   0.122  0.0675 -0.2046  0.0841
27867W        W43676   5.358   4.458   2.407 -0.3060 -0.0794  0.2555
27868W        W43677   1.198   3.164  15.521  0.1947 -0.0129 -0.1888
27869W        W43678  17.489  12.881  12.953  0.1391 -0.1422  0.2786
27870W        W43679   1.779   0.046  14.204 -0.2586 -0.0916  0.0497
27871W        W43680   9.309  18.197   3.770 -0.1359 -0.0900 -0.2444
27872W        W43681   7.965   4.714  10.789  0.0058 -0.0132 -0.4666
27873W        W43682  12.104   0.242   1.374 -0.0510  0.0267  0.0600
27874W        W43683  14.878  18.112   0.900  0.2653  0.2492  0.0041
27875W        W43684  11.388   5.572   2.530  0.1964  0.1130  0.0611
27876W        W43685  13.429  14.619   5.082  0.2639 -0.0585  0.1061
27877W        W43686   2.996   2.932  14.444  0.1920  0.1085 -0.1919
27878W        W43687   3.908   8.798   4.205 -0.0501 -0.1444  0.0962
27879W        W43688   0.822   0.836   0.467  0.2065  0.0779  0.4290
27880W        W43689  18.087   3.599   0.279  0.0127  0.2328  0.3472
27881W        W43690  15.242   0.317   2.911 -0.0207  0.1623  0.1822
27882W        W43691  17.584  17.055   4.480 -0.1399 -0.2392  0.0491
27883W        W43692   8.575  16.487   4.132  0.0370 -0.0881 -0.2422
27884W        W43693  14.931  13.287   2.054 -0.1935 -0.0984  0.0570
27885W        W43694   8.812  13.253   0.795  0.0899  0.3469 -0.2533
27886W        W43695   0.967  15.360   3.725  0.1250 -0.2878  0.1946
27887W        W43696   0.218  17.913   2.125  0.0162 -0.0874  0.0796
27888W        W43697   0.713   2.072  10.395  0.3218 -0.1541 -0.2383
27889W        W43698  14.054   7.984  13.762  0.0659  0.1877  0.0714
27890W        W43699   7.779   7.271   3.875 -0.1388  0.1791 -0.2962
27891W        W43700  15.532   1.531   1.230  0.1416  0.1024 -0.1304
27892W        W43701  10.933  17.932   2.463  0.2048  0.0772  0.1304
27893W        W43702  16.130   8.420   2.064  0.2413  0.3434 -0.0373
27894W        W43703  12.152  12.496  12.195  0.2518  0.3517  0.1423
27895W        W43704   3.758  15.560   0.059 -0.1136  0.0581 -0.1157
27896W        W43705  15.210   0.207   0.590  0.0018  0.0412 -0.0710
27897W        W43706   9.764  14.600   3.300 -0.1420  0.1794  0.1296
27898W        W43707  18.533  13.484  11.911 -0.0730  0.1091  0.0430
27899W        W43708  13.152   8.503  10.930  0.3120  0.2431 -0.1281
27900W        W43709  11.230   2.483   1.092 -0.0439 -0.2394  0.1011
27901W        W43710  15.454  11.081  11.998 -0.0418 -0.0654 -0.3461
27902W        W43711  18.708  16.799   3.996  0.1050 -0.2054  0.0325
27903W        W43712   9.246   5.509  13.995  0.4151  0.2025  0.2609
27904W        W43713   7.898   4.695  14.075 -0.3743  0.2226 -0.0121
27905W        W43714  18.092   9.053  15.044 -0.1413 -0.6562 -0.1526
27906W        W43715  10.737  16.466  11.102  0.0231  0.0016  0.1822
27907W        W43716   3.951   0.953   5.420 -0.0760 -0.2323  0.1210
27908W        W43717  16.991  15.577  13.492  0.2714  0.0547  0.1077
27909W        W43718   2.909  13.771  10.682  0.1268  0.2292 -0.2145
27910W        W43719  18.103  10.956   2.898 -0.0435 -0.4677  0.0160
27911W        W43720   5.895  12.838  11.066  0.0305 -0.2459 -0.0165
27912W        W43721   8.195   5.209  11.834 -0.1712 -0.1093  0.1135
27913W        W43722   8.196   8.319   4.015 -0.2825 -0.6162  0.0242
27914W        W43723   4.645  16.015   2.324 -0.1374  0.0361  0.2187
27915W        W43724  12.281  16.938   4.994  0.3542 -0.2290  0.0394
27916W        W43725  11.245   4.207  14.445  0.1213  0.0451  0.0781
27917W        W43726  14.536   2.253  12.814  0.2587  0.0619  0.1669
27918W        W43727  13.946  13.290   3.943  0.0384  0.1901 -0.0774
27919W        W43728  13.236  12.168   1.899  0.0070 -0.0342  0.1148
27920W        W43729   7.033  15.578  13.291  0.0509 -0.0963  0.5308
27921W        W43730  16.099  13.716   4.389 -0.0894 -0.3101  0.1297
27922W        W43731  16.613   8.072   4.104  0.0364 -0.0471  0.0281
27923W        W43732  16.726  13.117   0.135 -0.0092  0.3065  0.1480
27924W        W43733   9.336   1.204   1.839  0.1389  0.0735 -0.2897
27925W        W43734  11.152   6.343   3.302  0.0256 -0.0832  0.0456
27926W        W43735   5.036   4.738   2.972  0.0321  0.3058 -0.0101
27927W        W43736  11.751  17.138   1.165 -0.2267 -0.1085 -0.1197
27928W        W43737  12.073  18.122  13.849  0.0237  0.1083 -0.2088
27929W        W43738  14.055  14.215  11.600  0.1684  0.3727 -0.0219
27930W        W43739   7.174   1.793  14.413  0.0887 -0.0009  0.2553
27931W        W43740   7.768  14.823   0.230 -0.1803  0.1046  0.1808
27932W        W43741   4.150   2.706  12.143 -0.0841  0.0933 -0.1420
27933W        W43742  18.344   9.141  14.588  0.1601  0.3379 -0.1520
27934W        W43743  16.388   5.967   4.823  0.3302 -0.2552  0.0577
27935W        W43744  13.725  11.872  10.791 -0.1623  0.2328 -0.0616
27936W        W43745   9.145   0.852   2.226 -0.0633 -0.0203  0.1050
27937W        W43746   9.685   2.483   4.325 -0.0320 -0.0678  0.0131
27938W        W43747   5.426   6.575   1.727  0.1845 -0.0381  0.0627
27939W        W43748  10.097   1.184  12.454  0.1134  0.0589  0.2192
27940W        W43749  16.339   6.614   4.186  0.0955 -0.4242 -0.1300
27941W        W43750   4.159   5.826  14.137  0.0794  0.0163 -0.3203
27942W        W43751  14.448  12.231  12.133 -0.1421 -0.2234  0.2572
27943W        W43752   4.869  18.183   4.465  0.0158 -0.0357 -0.0822
27944W        W43753  18.684  10.176   5.454 -0.0700 -0.3621  0.0690
27945W        W43754  16.998   6.016   1.883  0.1091 -0.0511  0.2172
27946W        W43755  15.064  16.077   4.832 -0.0015 -0.0367 -0.2064
27947W        W43756   3.591  14.938   3.814  0.0837 -0.2034  0.2417
27948W        W43757   4.474  12.575  11.290  0.1519  0.1881 -0.0596
27949W        W43758   5.422  14.674   2.861  0.1050 -0.0209  0.0967
27950W        W43759  17.364   1.170   4.540  0.4912 -0.0290 -0.1219
27951W        W43760  10.391   2.803   4.841 -0.0867 -0.0797  0.0676
27952W        W43761  11.307   1.471   3.309 -0.0858  0.1426 -0.2783
27953W        W43762   4.702  11.044  15.447 -0.0033  0.3798 -0.0409
27954W        W43763  18.685   6.779  11.063 -0.0441  0.0990  0.0659
27955W        W43764  11.037  10.284   3.422 -0.0458  0.0677 -0.1206
27956W        W43765  11.561   4.287   0.935 -0.2448 -0.1935  0.0116
27957W        W43766  17.253  18.405   1.708  0.0370 -0.1368  0.2383
27958W        W43767   6.574  17.182   3.952  0.2258 -0.1337 -0.1872
27959W        W43768  17.725   4.754   3.062  0.5688  0.0782  0.0450
27960W        W43769  17.037   7.639   3.878  0.0011 -0.1985 -0.2064
27961W        W43770   2.286  12.057  13.468  0.3289 -0.1651  0.2820
27962W        W43771   9.689   7.948   4.435 -0.3079 -0.3150 -0.3948
27963W        W43772  13.144   7.111   1.797  0.4436 -0.0620 -0.0926
27964W        W43773  15.298  13.443  11.161 -0.0525  0.0497 -0.1182
27965W        W43774  10.383  18.256   4.398  0.1033 -0.0944 -0.0700
27966W        W43775  14.029  12.939  12.270 -0.2009  0.0119  0.1664
27967W        W43776  11.256  14.156  11.594 -0.0392 -0.1313 -0.0652
27968W        W43777  12.480  15.598  10.800  0.4021 -0.2188  0.0548
27969W        W43778  17.384  11.142  11.187 -0.1021 -0.0314 -0.0927
27970W        W43779  17.124  10.582   9.790 -0.2178  0.0576  0.0046
27971W        W43780   1.822   5.026  15.320  0.0568 -0.1078 -0.1621
27972W        W43781  16.789  14.722  13.665 -0.2554  0.1470  0.3189
27973W        W43782  17.059  17.526  15.070  0.1955 -0.1867  0.1413
27974W        W43783   6.697   3.108   2.502 -0.0438 -0.2141 -0.2343
27975W        W43784   2.618   6.188  12.793  0.0971  0.2057 -0.1353
27976W        W43785   0.558   4.786  12.943 -0.2074 -0.0910  0.0360
27977W        W43786   4.154   1.297   5.025 -0.1807  0.0269 -0.0905
27978W        W43787   6.588  16.526   3.299 -0.1414 -0.1538 -0.2197
27979W        W43788  15.657  14.271   2.584  0.0682 -0.0044  0.1110
27980W        W43789  11.631  10.426  13.097 -0.1680  0.0389 -0.2959
27981W        W43790  10.546  16.973  13.816 -0.0283 -0.2278  0.1624
27982W        W43791   5.851   1.114   2.614 -0.0779 -0.1164 -0.2719
27983W        W43792  12.990   1.384  14.522 -0.0518  0.2473  0.3079
27984W        W43793   7.922  18.710   1.847 -0.2901 -0.2806 -0.1041
27985W        W43794   1.657   6.966   5.212  0.0087  0.0272  0.0633
27986W        W43795   0.535  11.311  15.112  0.1911  0.1545 -0.2114
27987W        W43796  17.839  11.193   5.355  0.1065 -0.2386  0.2431
27988W        W43797   5.700  10.409  13.496  0.1852 -0.3483  0.0749
27989W        W43798   0.700  14.728  12.618 -0.0593 -0.2726  0.2639
27990W        W43799   7.883  16.008  13.394  0.0538  0.2814  0.1366
27991W        W43800   9.441   5.702   0.034 -0.1872  0.0604 -0.0676
27992W        W43801   4.366   6.927  11.183  0.0044  0.0679  0.0915
27993W        W43802   5.490   1.791   1.247 -0.2035 -0.2015  0.0423
27994W        W43803  10.144   6.894   0.993  0.0161  0.1953  0.0165
27995W        W43804   6.930   3.784  13.076 -0.1865  0.1480  0.3561
27996W        W43805  16.999   5.311   4.799  0.0225 -0.1223  0.2767
27997W        W43806   6.472  17.706   3.858  0.4331 -0.0649 -0.0410
27998W        W43807   8.398   7.070  15.486 -0.0674  0.1447  0.1897
27999W        W43808   3.339  10.015   0.817 -0.2146 -0.0797 -0.3078
28000W        W43809   7.944   5.063   2.830 -0.0774  0.1923  0.0433
28001W        W43810   2.735   0.852   4.094 -0.0160  0.1842 -0.1585
28002W        W43811  10.326   1.335  15.146 -0.1609 -0.1673 -0.1869
28003W        W43812   8.462  14.647   1.069  0.1810 -0.0184  0.1058
28004W        W43813  10.423  16.174   1.021 -0.0009  0.0669 -0.0876
28005W        W43814   8.888  18.557   2.911  0.1182 -0.2155  0.2551
28006W        W43815   1.302   0.346  14.036 -0.0136  0.2941  0.0121
28007W        W43816  12.564  17.979  14.150 -0.0366 -0.0851 -0.0937
28008W        W43817   1.854   8.598  12.486 -0.1410 -0.2952  0.0603
28009W        W43818  12.439  18.054  11.872  0.1179 -0.3775 -0.3456
28010W        W43819  12.206  11.432   3.717 -0.2545  0.1860  0.1103
28011W        W43820  11.395  16.954  14.271 -0.1271  0.2353  0.1081
28012W        W43821  13.830   9.152   1.206 -0.0370  0.4628  0.0688
28013W        W43822   3.175  12.679   1.239 -0.1606  0.1491 -0.0096
28014W        W43823  11.479  13.925  13.899 -0.4419 -0.0830  0.1057
28015W        W43824   3.272   0.552   3.739  0.2111  0.1940  0.0048
28016W        W43825   7.481  18.283  14.190 -0.3174 -0.0851 -0.0249
28017W        W43826  13.629   2.357   4.342 -0.2200  0.2702  0.3425
28018W        W43827   6.221  15.400  13.992  0.2044 -0.1999  0.2138
28019W        W43828  17.781   6.836  15.296  0.0959 -0.0547 -0.1008
28020W        W43829  18.738   2.356  10.110 -0.3291 -0.2120  0.0618
28021W        W43830   9.008  15.191   3.406  0.0710  0.1131 -0.0502
28022W        W43831  17.340  15.883  11.626 -0.1565 -0.2404  0.0011
28023W        W43832  13.947  18.004   1.072  0.2408  0.0537 -0.2720
28024W        W43833   3.151   3.156   0.675  0.1612  0.0746  0.3121
28025W        W43834   8.115   0.546   0.671  0.5909  0.0647  0.2816
28026W        W43835   8.510   1.585  14.438  0.1767  0.0849  0.0109
28027W        W43836  16.044  13.527   2.529  0.0136 -0.0412  0.1544
28028W        W43837  18.273   0.915  13.585  0.0484  0.1356 -0.0039
28029W        W43838  15.543   8.281   1.437 -0.1144  0.0969 -0.3606
28030W        W43839  13.853   6.501   5.428 -0.3127  0.2246  0.3075
28031W        W43840  14.394  18.775   4.230 -0.2255 -0.0182  0.0462
28032W        W43841   4.920   6.878   2.359  0.0669  0.2537 -0.1989
28033W        W43842  10.674   2.082  10.116 -0.0740 -0.2399  0.2579
28034W        W43843  16.110  18.140  11.949  0.4382 -0.1032 -0.3523
28035W        W43844  15.206  17.470   3.484  0.2534  0.1606 -0.3234
28036W        W43845   2.315  15.352   0.820 -0.1226  0.1865 -0.2432
28037W        W43846   3.531  14.000   2.290  0.0201 -0.4305  0.0273
28038W        W43847  17.697  15.470  15.502  0.2417 -0.3784  0.1163
28039W        W43848   0.030  16.510   1.046  0.3697  0.0118  0.3466
28040W        W43849   9.735   4.722   1.030  0.2935 -0.0090 -0.2490
28041W        W43850   1.380   4.960  10.670 -0.0932 -0.1199 -0.0420
28042W        W43851  10.175   8.080  14.024  0.0805 -0.2789 -0.1040
28043W        W43852   6.162   0.618  15.052  0.1393 -0.0564 -0.1945
28044W        W43853   3.275   7.917   5.234  0.1611  0.2446  0.1065
28045W        W43854  18.162   3.346  14.952 -0.0647  0.1551  0.0342
28046W        W43855   9.600  12.703  13.546  0.2084  0.0439  0.0860
28047W        W43856  14.244  18.158   0.214  0.0101  0.2715 -0.0188
28048W        W43857  11.662   7.314   0.240 -0.1166 -0.2365 -0.2392
28049W        W43858  18.244   6.139  10.219 -0.0700 -0.0764 -0.0228
28050W        W43859  12.859   1.198  14.974  0.2098 -0.3619  0.1016
28051W        W43860   5.840  14.209  13.464  0.0152 -0.3209 -0.1524
28052W        W43861  13.414   7.736   1.999 -0.1221  0.1819  0.0953
28053W        W43862   2.118   0.066   2.832 -0.0081 -0.1685  0.0516
28054W        W43863   8.519   6.063   5.546  0.0693 -0.0606  0.1315
28055W        W43864  15.982  10.680  14.665  0.0801  0.0470 -0.0842
28056W        W43865  16.274  13.805  12.121  0.0096 -0.1278  0.0493
28057W        W43866   0.478  10.323   2.514 -0.2668 -0.2342  0.1446
28058W        W43867   1.942   3.602  12.223 -0.2820  0.1342 -0.1168
28059W        W43868   6.200  15.765   2.713  0.2643 -0.0306  0.2173
28060W        W43869   5.611   4.686  13.158 -0.2566 -0.0430 -0.1991
28061W        W43870  18.112  14.141   0.116 -0.2401  0.0636 -0.1694
28062W        W43871  13.558  13.077  14.825  0.0532  0.1644  0.1407
28063W        W43872   5.776  11.784   1.752 -0.4889 -0.0309 -0.0411
28064W        W43873   9.199  17.618   3.935  0.3519 -0.0650  0.0388
28065W        W43874   8.395  16.555   4.678  0.1294 -0.1484  0.4320
28066W        W43875  14.659  13.775   4.082  0.0471 -0.1221 -0.2645
28067W        W43876  17.561   4.852  14.957  0.1561  0.1694 -0.0889
28068W        W43877   9.838   6.202  12.132 -0.0908  0.0189 -0.0100
28069W        W43878   5.532  10.124   3.251  0.2302  0.0499 -0.0783
28070W        W43879  11.131  16.956   1.944 -0.1329  0.1755  0.0207
28071W        W43880   3.147  11.054  14.596  0.4924  0.0404 -0.2856
28072W        W43881   0.057  13.423  10.958  0.2596  0.1212  0.1720
28073W        W43882  10.151   9.616   1.450  0.1571 -0.0204 -0.2103
28074W        W43883   1.802  12.253   4.123 -0.1623  0.4072  0.1258
28075W        W43884  11.225   1.420  10.989 -0.0241  0.3257 -0.4539
28076W        W43885  14.787  13.673  12.387  0.2102 -0.3015 -0.0922
28077W        W43886   7.761   7.723  11.151  0.1341 -0.2494 -0.0926
28078W        W43887  14.746  12.970  11.711  0.2217 -0.0559  0.0213
28079W        W43888   3.668   5.945   3.767  0.2222 -0.0836 -0.1502
28080W        W43889  13.345  17.157  15.040  0.0257  0.0050 -0.2330
28081W        W43890  16.677   8.738  13.631 -0.2369 -0.3251  0.0876
28082W        W43891  12.859   7.043   5.098  0.0145 -0.2460  0.2561
28083W        W43892   6.678   4.644   5.158  0.1788 -0.4537  0.2697
28084W        W43893  15.768   2.550   1.947 -0.0741 -0.1305  0.0247
28085W        W43894   7.822   1.996   3.449 -0.0725 -0.3003  0.0674
28086W        W43895  11.209  13.474   1.808 -0.1370  0.0342  0.1050
28087W        W43896   5.012  17.054  12.883 -0.3229  0.1691 -0.3214
28088W        W43897   1.042  12.087  12.980  0.1956  0.0360 -0.3082
28089W        W43898   1.652  16.239  13.292 -0.0668 -0.0615  0.2773
28090W        W43899   2.189   8.317  11.815 -0.1724  0.0510 -0.0910
28091W        W43900  10.108   0.930   2.485  0.2460 -0.0164  0.0089
28092W        W43901   2.933  10.585  12.186 -0.2002 -0.0927  0.0731
28093W        W43902   0.371   3.968  12.521 -0.0602 -0.1146  0.4734
28094W        W43903   5.966   2.561   4.805 -0.0145 -0.0286 -0.0039
28095W        W43904  16.189  11.857   3.909  0.0387 -0.0952  0.5574
28096W        W43905   3.164   4.910   0.380  0.0149 -0.2052 -0.0450
28097W        W43906   3.553  17.497  15.477  0.1295 -0.1325 -0.1995
28098W        W43907  10.641   1.412  14.107 -0.4009  0.2567  0.4352
28099W        W43908  13.497   8.786   0.422 -0.0256 -0.0084 -0.0341
28100W        W43909   0.265   2.394  13.214 -0.3333 -0.0872 -0.0922
28101W        W43910  16.671  11.601   2.296  0.1908 -0.0072  0.1779
28102W        W43911   1.097  11.378   2.622 -0.0165  0.0923 -0.0674
28103W        W43912  14.144  10.713   1.954  0.0075  0.2773  0.2023
28104W        W43913   0.213   1.840   1.365  0.0242 -0.3488  0.0124
28105W        W43914  13.349  12.730   0.712 -0.0396  0.0642  0.0533
28106W        W43915   0.262  10.103   4.630 -0.0990 -0.5616  0.1246
28107W        W43916  18.212  11.319  10.071  0.1272  0.1681 -0.0946
28108W        W43917  18.131  11.468  13.753  0.0469  0.2384  0.1336
28109W        W43918   0.593  10.084  14.534 -0.0402  0.0820  0.0253
28110W        W43919  11.313  16.809   3.477 -0.2372 -0.0166  0.2080
28111W        W43920   6.500  12.155  11.914  0.0759  0.0510  0.0102
28112W        W43921  12.542   7.098   0.679 -0.2713  0.1760  0.1446
28113W        W43922   3.508   6.840   3.530  0.1589  0.0334  0.0241
28114W        W43923   7.866  17.034   5.068  0.0669 -0.0972 -0.0098
28115W        W43924   0.123   9.979  15.412 -0.0117 -0.3820 -0.0198
28116W        W43925  17.612  18.050  11.492 -0.1271  0.1149  0.2154
28117W        W43926   7.544  16.407   3.857  0.0070 -0.1201 -0.2371
28118W        W43927  14.535  12.800   0.780 -0.0674 -0.0851 -0.0635
28119W        W43928  11.844   0.950  12.874  0.3009 -0.0249 -0.3487
28120W        W43929  15.970  16.069  13.212 -0.0540  0.1304  0.0301
28121W        W43930  16.814  18.692   0.521  0.1348 -0.1477 -0.2875
28122W        W43931   0.923  12.457  10.301 -0.0409 -0.1763  0.0630
28123W        W43932  16.389   9.272  13.910  0.2545  0.0966  0.4019
28124W        W43933  15.615  10.497   1.641 -0.0040  0.0776 -0.0387
28125W        W43934   3.080  10.469   3.547 -0.0021  0.1029  0.0481
28126W        W43935  17.095  13.908   2.224  0.2178  0.1965  0.1220
28127W        W43936   1.310   4.778  14.523 -0.1975 -0.0973  0.0959
28128W        W43937  11.877   3.180  10.864  0.1694  0.1981 -0.2142
28129W        W43938   5.212  15.989  12.156  0.1663  0.1043  0.0612
28130W        W43939  12.524   9.390   1.205 -0.3497  0.1233  0.3496
28131W        W43940   9.540  11.504   4.018  0.0572  0.0495 -0.1366
28132W        W43941   8.425   8.669  11.048  0.0692  0.0239 -0.1924
28133W        W43942   5.250  15.332  11.292 -0.0867  0.3727  0.1690
28134W        W43943  15.158  14.586   2.628  0.3091  0.2060 -0.0333
28135W        W43944  13.520  14.274   6.044 -0.2573 -0.2705 -0.0328
28136W        W43945   6.329   8.753  14.075 -0.0491 -0.0024  0.0570
28137W        W43946  14.295   0.929   4.589  0.1085 -0.0808 -0.1552
28138W        W43947  13.267  12.706   1.803  0.1912 -0.2058  0.0218
28139W        W43948   4.615   3.605   3.192  0.2898 -0.2276 -0.4780
28140W        W43949   9.437   6.928  13.519 -0.1542  0.0445  0.3680
28141W        W43950   8.474   3.133   0.040  0.4197  0.1110 -0.0082
28142W        W43951  17.702  16.216   4.145 -0.1124 -0.0087 -0.2811
28143W        W43952  11.746   3.949   5.925 -0.1205 -0.0643  0.0957
28144W        W43953  18.564   3.216   4.839 -0.0436  0.3311 -0.2399
28145W        W43954  17.896   4.946  14.634 -0.0151  0.2436  0.2186
28146W        W43955  13.614   0.464  14.797  0.0537 -0.0279  0.0074
28147W        W43956   7.942   7.179  14.692  0.0472  0.2001  0.1552
28148W        W43957  11.381   3.896  13.541  0.0425 -0.1447 -0.0242
28149W        W43958   6.801  12.337   4.164 -0.2028  0.0236 -0.1198
28150W        W43959   8.471   8.884   1.703  0.1242 -0.2574 -0.3498
28151W        W43960  10.319   5.377   5.888  0.2867 -0.1881  0.2517
28152W        W43961   5.782   8.588  14.543 -0.0517  0.1144 -0.0193
28153W        W43962   7.547   7.402   1.441  0.1219 -0.0105  0.0876
28154W        W43963   4.917   1.569   3.929 -0.0346  0.1867  0.1207
28155W        W43964   3.096   5.375   0.079 -0.2077 -0.0984  0.2541
28156W        W43965   3.208  13.897   1.659 -0.2370 -0.0303  0.0074
28157W        W43966   8.222  14.299  10.526  0.0464  0.1457  0.2553
28158W        W43967  18.136  17.984  11.622 -0.0576 -0.1351  0.2026
28159W        W43968   1.439   3.254  14.168 -0.0093  0.0700 -0.0181
28160W        W43969  14.155   4.141  14.416  0.1578  0.0649 -0.1491
28161W        W43970   1.042  12.608  10.781 -0.2588 -0.2824  0.2241
28162W        W43971   2.412  14.970  10.652  0.2638  0.3012 -0.0097
28163W        W43972  16.116   2.124   3.620 -0.1585 -0.1089 -0.0128
28164W        W43973  16.589  18.330  10.941 -0.1024  0.0377  0.0664
28165W        W43974  12.760   8.868  13.332 -0.2628 -0.1968 -0.1585
28166W        W43975  10.254   8.828   3.247 -0.0001  0.0742 -0.1365
28167W        W43976   5.622  14.225   0.531 -0.3036  0.0167  0.0399
28168W        W43977  13.543   7.392  12.050  0.1841 -0.0477  0.0107
28169W        W43978  13.818  17.133   2.312  0.0934 -0.0599  0.3313
28170W        W43979   8.431  12.978  14.374 -0.0753  0.0672  0.1443
28171W        W43980  12.340  15.776  12.391  0.0652  0.0751  0.0410
28172W        W43981   2.801   8.864  10.925 -0.0674 -0.3252  0.0628
28173W        W43982  17.397   9.874  10.901  0.2192 -0.1043 -0.1254
28174W        W43983  10.853   7.881   5.266  0.0466  0.0482 -0.0755
28175W        W43984   1.265   2.841  11.806  0.0063  0.0498 -0.3184
28176W        W43985  14.454   8.596   0.012  0.0142 -0.1588 -0.2539
28177W        W43986   8.531   7.180  12.548  0.0758 -0.1430 -0.0228
28178W        W43987   5.205   4.472  13.837 -0.1386  0.0160 -0.1901
28179W        W43988   6.479   8.521   3.709  0.0189 -0.4208 -0.3928
28180W        W43989   1.526   9.618  11.471 -0.1002  0.3950 -0.0775
28181W        W43990  10.159  16.437  15.210 -0.1128 -0.0213 -0.1006
28182W        W43991  14.127   1.499   4.533 -0.1612  0.0075  0.1536
28183W        W43992   5.441   4.084   1.494 -0.0167 -0.4204  0.0769
28184W        W43993   0.768   2.022  13.488  0.3692 -0.1638 -0.1053
28185W        W43994  11.962  13.414  13.373  0.1453  0.0819  0.4543
28186W        W43995  14.304   9.434   3.907  0.3538  0.2826 -0.0544
28187W        W43996   3.834  15.320   5.540  0.0198  0.0347  0.2623
28188W        W43997   5.332   3.640  11.160 -0.1425 -0.0247  0.0269
28189W        W43998  12.183   0.843   3.879  0.1213 -0.0232  0.0984
28190W        W43999   8.650   4.648  15.560  0.1089  0.2934 -0.4013
28191W        W44000  17.124  14.208   1.665  0.1641 -0.0309 -0.0554
28192W        W44001  17.032   6.340   3.708  0.0102 -0.1681 -0.0559
28193W        W44002   1.411  17.819   4.505 -0.0449 -0.0399  0.0286
28194W        W44003  14.315  10.112  15.030 -0.1277  0.1920 -0.2535
28195W        W44004  17.973  17.263  15.401 -0.1631 -0.0946  0.3678
28196W        W44005   2.902   8.906  15.127  0.1631 -0.1584 -0.2707
28197W        W44006  14.286   8.229  13.328  0.1935 -0.2492  0.1036
28198W        W44007  11.463  13.472  11.049  0.1146  0.0401 -0.0569
28199W        W44008   2.413   7.292   1.421 -0.0713 -0.1033  0.0776
28200W        W44009  14.956   4.928   9.586  0.0170  0.1157  0.1001
28201W        W44010  15.083  10.923   0.121  0.2707 -0.1055 -0.1612
28202W        W44011  11.812   3.225   4.787 -0.3699 -0.0082  0.1994
28203W        W44012  16.637  13.901   0.485  0.2423  0.0626 -0.0767
28204W        W44013   2.298  16.966   0.620  0.1435  0.2247  0.3363
28205W        W44014  14.542   3.507   5.875  0.2909  0.1204  0.0445
28206W        W44015   4.801  17.013   1.983  0.1386 -0.1824 -0.2709
28207W        W44016  10.449   9.734  13.592 -0.2489 -0.0489  0.0090
28208W        W44017   8.801  15.017  10.332  0.0323  0.0726 -0.0550
28209W        W44018  11.308  15.103  13.103  0.1155  0.2099  0.0784
28210W        W44019  13.653  17.276  14.038 -0.0878  0.0699  0.0065
28211W        W44020   3.118   5.095   4.552 -0.0616  0.0575  0.0090
28212W        W44021  12.545   4.055   1.529 -0.0391 -0.1276 -0.0987
28213W        W44022   5.272   9.886  11.130 -0.2541 -0.0471  0.2243
28214W        W44023   9.697  11.772  12.516 -0.1926 -0.0249 -0.3010
28215W        W44024   0.294  11.051   3.432 -0.2905  0.1267  0.2869
28216W        W44025  12.912   3.054   1.231 -0.1094 -0.0768  0.2033
28217W        W44026  14.383  14.610  12.515 -0.1952  0.0765 -0.0424
28218W        W44027  14.847  11.122   1.411  0.3593 -0.3206 -0.1043
28219W        W44028   3.011  13.140   2.169  0.1362 -0.2871 -0.1576
28220W        W44029   8.482   7.646   3.294  0.3008  0.3590 -0.1108
28221W        W44030   7.596   2.805   0.532 -0.0227  0.0552 -0.4144
28222W        W44031   3.342   9.779  14.813 -0.1393  0.1216  0.1374
28223W        W44032  13.593   6.468  10.143  0.0732  0.1601  0.0237
28224W        W44033  16.008  10.248   1.912  0.0770 -0.0360 -0.0165
28225W        W44034   1.832   9.382  12.787  0.0521 -0.1601 -0.4121
28226W        W44035   3.016   5.791  13.798 -0.0226  0.2786  0.0242
28227W        W44036   3.763  15.679   1.295 -0.2274  0.2421  0.1690
28228W        W44037   9.873   5.477   3.584  0.1187  0.3665 -0.1940
28229W        W44038  10.482  11.515   0.241 -0.2156  0.0096  0.2470
28230W        W44039  17.758  12.881  10.074 -0.0443  0.2476 -0.0497
28231W        W44040   7.121  13.469   2.821  0.3901 -0.2952 -0.0622
28232W        W44041   5.808   3.333   9.943  0.3794 -0.2811 -0.0236
28233W        W44042   9.998   7.079  13.445  0.1911 -0.0071 -0.4346
28234W        W44043   0.642  13.663  14.826 -0.0503  0.0130 -0.3567
28235W        W44044   8.980  10.111  10.511 -0.1119  0.0166  0.1411
28236W        W44045  12.266  13.288  12.496 -0.1795  0.0695  0.1975
28237W        W44046   6.537  18.752  11.258 -0.1748  0.2278  0.0410
28238W        W44047  10.428   7.568  15.409 -0.1709  0.0225 -0.3007
28239W        W44048   4.195  10.766  13.457  0.3061  0.0880  0.1800
28240W        W44049   2.366  17.319  10.992  0.3468 -0.1126  0.0465
28241W        W44050  17.883   6.299   3.686  0.0504 -0.0523 -0.3086
28242W        W44051  12.343   3.548  13.169 -0.1926  0.0987  0.3042
28243W        W44052   8.036  13.552   2.808  0.1990 -0.4512  0.0285
28244W        W44053  15.901   7.982  14.435 -0.0998 -0.1835  0.2564
28245W        W44054   0.289   1.063   3.935 -0.3517  0.4661  0.0115
28246W        W44055  17.613   0.782   2.768 -0.3222  0.2251  0.0125
28247W        W44056  17.115   0.922  12.113 -0.0774 -0.0428 -0.2539
28248W        W44057  13.040  12.990  11.949 -0.2854  0.1474 -0.2317
28249W        W44058   5.799   7.440   0.378  0.1413  0.1993 -0.0172
28250W        W44059  15.243  18.503  14.869  0.1334  0.0201 -0.3912
28251W        W44060  10.590   2.954   0.089  0.3537 -0.1525 -0.0080
28252W        W44061  17.199   8.826  13.723 -0.1717  0.0897  0.0353
28253W        W44062   0.243   1.089   2.754  0.1741  0.1072  0.2005
28254W        W44063  10.997   3.206  13.263  0.3248 -0.0416 -0.1275
28255W        W44064   8.515  16.895  14.862 -0.0784 -0.2006 -0.2356
28256W        W44065   9.966  11.691   1.216  0.0985 -0.0661  0.2664
28257W        W44066  10.620   4.239   2.878  0.2979  0.2076 -0.5435
28258W        W44067  17.626   4.248  14.021 -0.0871 -0.0716  0.0302
28259W        W44068   0.581   6.188  15.025 -0.1355  0.0827 -0.4222
28260W        W44069   5.797  17.803  13.481  0.2400  0.4810  0.0671
28261W        W44070   8.418   6.238   0.998 -0.1251 -0.0000 -0.0396
28262W        W44071   4.740  18.373  11.424 -0.0404 -0.1393  0.0452
28263W        W44072   7.380  17.876   2.541  0.2244 -0.1924  0.1984
28264W        W44073   8.064  10.141   0.187 -0.1443  0.2289  0.0452
28265W        W44074   4.719   4.265  15.265  0.0437 -0.5450 -0.1488
28266W        W44075   4.373  17.437  10.565  0.2413  0.0297  0.0522
28267W        W44076   2.450   4.950  10.953  0.1631  0.0281  0.0196
28268W        W44077   4.920   2.237   0.100 -0.1393 -0.2458  0.1034
28269W        W44078   3.083   4.626   3.803 -0.0324  0.0755 -0.0620
28270W        W44079   3.706   2.486   1.621 -0.0364  0.5276 -0.1126
28271W        W44080   1.299   3.233   0.437 -0.1488  0.0431  0.2200
28272W        W44081   3.117   9.443  10.581  0.0245  0.4123  0.2424
28273W        W44082   7.071  17.959   4.692 -0.1103  0.0786  0.1114
28274W        W44083   5.909  17.046  14.802  0.0410 -0.0389 -0.3258
28275W        W44084  12.919  13.534  13.348 -0.1753  0.1093 -0.1082
28276W        W44085  16.281  17.678  12.062  0.2024 -0.5211  0.1327
28277W        W44086  10.753   5.756  13.199  0.0814 -0.1211 -0.2221
28278W        W44087  14.715  14.293  15.443  0.1976  0.0487  0.2819
28279W        W44088  17.010   6.087   0.985  0.0796 -0.0330  0.2885
28280W        W44089  13.346   7.947  14.230  0.3061  0.0863  0.1974
28281W        W44090  13.341   6.943  15.496 -0.2401  0.0284 -0.1376
28282W        W44091   3.307   0.471  15.413  0.0276 -0.2059 -0.1260
28283W        W44092   4.305  10.742  11.843 -0.1110  0.0874  0.2842
28284W        W44093  14.920   3.413   3.739 -0.1157 -0.2104  0.1287
28285W        W44094  11.071   9.629   2.426  0.1642 -0.3106 -0.3732
28286W        W44095  16.359   2.178  12.590  0.1604  0.1851 -0.3783
28287W        W44096  17.589   9.533   0.702  0.0959  0.2392  0.4748
28288W        W44097  18.374   4.261  11.327 -0.1251 -0.2690  0.1087
28289W        W44098   8.850   8.361  12.018 -0.0323  0.1341  0.1782
28290W        W44099  10.561   0.762   5.545 -0.0159 -0.3216 -0.0119
28291W        W44100   4.162   9.635  12.074 -0.1098  0.2298 -0.0936
28292W        W44101   3.261   8.490   5.068 -0.0356  0.1563 -0.1426
28293W        W44102  11.335   0.785  14.571  0.1562 -0.1884 -0.3226
28294W        W44103   6.333  10.490  14.257  0.4583 -0.0822  0.1333
28295W        W44104  15.425  18.728   5.236 -0.0721 -0.1562 -0.3269
28296W        W44105   6.998  18.454   2.031  0.0510 -0.0566 -0.2831
28297W        W44106   6.262  14.289  11.104 -0.0003 -0.1700  0.1604
28298W        W44107   7.599   2.098  15.347 -0.0915  0.0887 -0.1372
28299W        W44108   2.831  13.963   2.668 -0.3458  0.2059  0.1363
28300W        W44109  17.536  18.226   3.112  0.1454 -0.0150 -0.0417
28301W        W44110   5.866  18.517  13.779 -0.1415  0.3076  0.1438
28302W        W44111   7.224  10.203   5.110 -0.2537 -0.0519  0.3616
28303W        W44112  17.511   6.564   5.387  0.1135 -0.0130 -0.0365
28304W        W44113  18.161  17.075  13.474  0.1310  0.0506 -0.1305
28305W        W44114  10.371  17.177  12.771 -0.1036  0.2361 -0.1237
28306W        W44115   2.592  12.707   3.670 -0.1446  0.3476 -0.0915
28307W        W44116   9.464  18.753  12.303  0.0513 -0.0810 -0.2168
28308W        W44117  14.585   4.176  14.951 -0.0126 -0.2851 -0.3182
28309W        W44118   1.335   1.258  12.310  0.2280  0.2010 -0.2581
28310W        W44119  17.984  15.210  10.680 -0.0327 -0.0755 -0.0275
28311W        W44120   9.344   1.137   0.636  0.1399 -0.3598  0.1718
28312W        W44121   2.591   1.915   1.470 -0.3796  0.0935  0.2405
28313W        W44122   1.839   8.831  13.831  0.1856  0.2160 -0.1045
28314W        W44123   0.560  17.735  11.671 -0.1354  0.3177  0.1067
28315W        W44124   9.404   7.041   1.377 -0.0380  0.3420  0.3356
28316W        W44125  18.619   8.509   3.480 -0.0761  0.1594 -0.2820
28317W        W44126  12.777  13.902   0.492 -0.1595  0.2206  0.4514
28318W        W44127  11.147   8.452   4.831 -0.2045  0.5863  0.0029
28319W        W44128   2.853   8.378  15.062 -0.2377 -0.1587  0.0385
28320W        W44129   7.118   3.582   1.773  0.0863 -0.2315  0.1142
28321W        W44130  11.292  10.460   4.328  0.3137  0.3789 -0.0265
28322W        W44131  13.656  14.863   2.940 -0.2506  0.2001 -0.1315
28323W        W44132  10.298  14.988   2.380  0.0456 -0.1632 -0.0503
28324W        W44133  11.680  12.920  11.571  0.1343 -0.2058  0.0615
28325W        W44134  15.881   0.926  11.163  0.1760  0.2358  0.0370
28326W        W44135   6.098   2.117  12.799 -0.1487  0.2738 -0.1949
28327W        W44136   5.928   6.182   1.801  0.0907  0.0480  0.2930
28328W        W44137   9.012  15.454   3.000 -0.0035  0.0536 -0.1509
28329W        W44138  18.034  15.897  14.245 -0.0691  0.0815 -0.1329
28330W        W44139   6.827  13.961  11.869  0.4100 -0.0559  0.0160
28331W        W44140   6.796  15.750   3.895  0.1203 -0.1983 -0.1674
28332W        W44141   6.504  10.725   3.481 -0.1667  0.1761 -0.2261
28333W        W44142   5.140   9.233   2.926 -0.1786 -0.2549  0.0373
28334W        W44143  12.575   7.466  13.459 -0.0988 -0.0096  0.0640
28335W        W44144  13.062   7.719  14.678  0.1782  0.1117  0.4884
28336W        W44145  17.150   5.540   2.668 -0.2734 -0.1203  0.2376
28337W        W44146   1.399  12.926  12.805 -0.0584  0.0729  0.0181
28338W        W44147   7.277  13.107  14.277 -0.0340 -0.1405 -0.3241
28339W        W44148   9.914   1.348   2.148 -0.2148 -0.2993 -0.1249
28340W        W44149  16.901   3.089   3.225 -0.1162 -0.1500 -0.3466
28341W        W44150   8.309  16.443   2.522  0.0314 -0.2149 -0.0267
28342W        W44151   1.816   8.064  14.975  0.0562  0.1710  0.1434
28343W        W44152  10.165  13.632  12.236  0.2318 -0.0164  0.0067
28344W        W44153   1.794  10.644  11.133  0.0301 -0.2650  0.0121
28345W        W44154  12.168  10.689  15.555 -0.2074  0.0205 -0.0341
28346W        W44155   0.357  11.396   2.136  0.2665 -0.1248 -0.0856
28347W        W44156   1.877  10.374  13.175  0.3467 -0.0342 -0.0261
28348W        W44157  10.221  10.105  13.919  0.2309 -0.0531  0.0018
28349W        W44158  13.312   8.740   3.350 -0.1378  0.0026 -0.0016
28350W        W44159   6.928   9.688   5.017  0.0412  0.1379 -0.1954
28351W        W44160  11.955  13.284   1.402  0.2795 -0.0348 -0.3735
28352W        W44161   3.016   2.497  13.880 -0.1654 -0.0113 -0.0800
28353W        W44162  16.305  16.900   9.861  0.0943 -0.0189 -0.0149
28354W        W44163  16.700   7.577  14.806 -0.0707 -0.2639 -0.0428
28355W        W44164  14.430   4.688   4.860 -0.0611 -0.1375  0.1314
28356W        W44165  11.766   6.745  13.335 -0.0703  0.1005 -0.1249
28357W        W44166   1.204  12.857  11.724  0.0546 -0.1499  0.1007
28358W        W44167   2.765  13.241   3.750 -0.1839  0.2622  0.1195
28359W        W44168  15.163   2.004  12.326 -0.0547 -0.0271 -0.0435
28360W        W44169  11.478  16.730  11.770 -0.1333  0.3175 -0.1153
28361W        W44170   8.869  10.946  14.323 -0.1588 -0.1171  0.0212
28362W        W44171   0.148  17.267  12.365 -0.0210  0.0265 -0.1784
28363W        W44172   9.170   5.835  15.171 -0.0503 -0.4306  0.0223
28364W        W44173   2.679  13.991  14.467  0.0603  0.1397  0.2362
28365W        W44174   8.294   2.938  15.180 -0.3563 -0.0208  0.2005
28366W        W44175   2.915   7.511  15.298  0.2455 -0.1427  0.0727
28367W        W44176   3.186  14.690  10.598 -0.1352  0.0491 -0.1197
28368W        W44177  15.428  11.990   4.152  0.4143  0.0931  0.1828
28369W        W44178  11.126   4.259  15.399  0.1160 -0.0607  0.1977
28370W        W44179  11.965  14.526   3.851 -0.1642  0.0954  0.4383
28371W        W44180  10.283  10.187   0.272 -0.1144  0.2771  0.0149
28372W        W44181  18.496  18.650   4.458  0.0231 -0.1477  0.0712
28373W        W44182   8.502   9.392   5.490  0.0010  0.0027  0.4388
28374W        W44183  17.737   2.896   2.562 -0.4102  0.2946  0.1703
28375W        W44184   5.187   1.129  12.220  0.1093 -0.0261 -0.2233
28376W        W44185  12.524  15.973  13.319  0.0583 -0.2554  0.1761
28377W        W44186   8.386  11.817  11.249 -0.2799 -0.1726  0.0694
28378W        W44187   0.675   9.839   0.924  0.1003  0.5603  0.3052
28379W        W44188  14.336   0.331   5.906 -0.1269 -0.0647  0.0333
28380W        W44189   5.233  16.422   0.156  0.3543  0.4053 -0.1315
28381W        W44190   8.959   0.064   1.055  0.0706  0.1886 -0.2681
28382W        W44191   8.265  17.435   3.915  0.3826 -0.1087  0.1555
28383W        W44192  16.764  13.234   4.276  0.3445 -0.0977  0.2518
28384W        W44193  15.048   5.372   0.207  0.2399 -0.2516  0.0462
28385W        W44194  16.537  16.454   3.816  0.1414 -0.2620  0.0074
28386W        W44195  11.421   9.995  11.144 -0.4324 -0.0102  0.2781
28387W        W44196  13.741   8.516   9.778 -0.2670 -0.3687  0.1820
28388W        W44197   4.622  12.362  14.032 -0.0022 -0.2312 -0.0185
28389W        W44198  15.441   2.494   4.481  0.2246 -0.1646 -0.0028
28390W        W44199   2.628  13.152  11.661 -0.2875 -0.1884  0.0356
28391W        W44200   4.477   3.726  13.823 -0.0080 -0.0213 -0.1117
28392W        W44201   2.962   2.667   4.910 -0.0518 -0.0351 -0.0600
28393W        W44202   7.116   9.140  14.993 -0.0118 -0.2038 -0.2872
28394W        W44203   4.135   2.140  14.518 -0.1293  0.4747 -0.2038
28395W        W44204   7.703  10.967   3.564  0.0642  0.2608  0.1966
28396W        W44205  11.604  17.387   0.273  0.1411 -0.0989  0.0701
28397W        W44206  18.357   0.805   1.903  0.0484  0.2641 -0.0685
28398W        W44207  16.597  10.222  10.899 -0.0317  0.1542  0.2051
28399W        W44208   7.334  15.909  13.084 -0.0795  0.1537  0.0542
28400W        W44209  10.130   0.834  14.764 -0.1005  0.2264  0.1399
28401W        W44210  18.412   1.737   1.266 -0.2540  0.1372  0.1546
28402W        W44211  14.060   5.936  14.950 -0.0641  0.1269 -0.1057
28403W        W44212   8.631   2.694   2.627 -0.2445  0.1827  0.1369
28404W        W44213  16.933   4.112   0.272 -0.3117  0.0607  0.0703
28405W        W44214  15.333  16.106   4.366 -0.1971 -0.0839 -0.2133
28406W        W44215   0.393   4.455  13.262 -0.3622  0.3438  0.2011
28407W        W44216  12.636   4.776   2.414 -0.1083 -0.0587 -0.1544
28408W        W44217  11.334  17.380   4.246 -0.0113  0.4055  0.1121
28409W        W44218  18.496   5.360   3.116 -0.1950 -0.0166 -0.0405
28410W        W44219   2.351   4.347   3.468 -0.3093  0.2461 -0.0333
28411W        W44220   2.978  11.582  13.399  0.4503 -0.1028 -0.0345
28412W        W44221  16.836   2.013  13.525 -0.3029 -0.1409  0.0350
28413W        W44222   5.743   0.739  13.452 -0.1389  0.2567  0.3010
28414W        W44223  15.675   1.650   2.044 -0.1967  0.3325 -0.0587
28415W        W44224   8.920   3.421   5.865 -0.0475  0.0577  0.0553
28416W        W44225  17.842   2.444  12.717  0.6129  0.1904 -0.1845
28417W        W44226  12.955   4.887  11.536 -0.0191  0.1296 -0.1495
28418W        W44227  13.895   5.358  13.745 -0.1069 -0.1057  0.1168
28419W        W44228  13.930  12.294  10.628  0.2840 -0.1304 -0.1903
28420W        W44229   6.876   9.465  13.739 -0.1185 -0.0925 -0.1634
28421W        W44230   7.902  13.619  12.542  0.3800  0.0778  0.0941
28422W        W44231  13.407   6.620  14.721  0.3051  0.2327  0.1700
28423W        W44232   2.865  15.898  12.505  0.0702  0.1486  0.1284
28424W        W44233  13.079  15.918   1.337 -0.0826 -0.1118  0.0087
28425W        W44234  15.939   1.621  12.532  0.0465  0.1668  0.0951
28426W        W44235  17.432  10.404  10.982  0.1516  0.4376 -0.1600
28427W        W44236   0.243  18.341  10.827 -0.4633 -0.0139 -0.0796
28428W        W44237   0.805   6.172  15.547  0.0532  0.1649  0.0446
28429W        W44238   7.952   6.019  13.111  0.1886  0.0095  0.0319
28430W        W44239  14.277   4.404  11.124  0.2760 -0.1496 -0.0098
28431W        W44240  11.005   4.736   2.932 -0.2554  0.3140  0.2106
28432W        W44241   7.223   4.111  12.546 -0.1456  0.2074 -0.1592
28433W        W44242   9.461   0.373  14.336 -0.3801 -0.0685  0.0399
28434W        W44243  18.115  12.618  12.157 -0.0278 -0.1708  0.0100
28435W        W44244   1.175  17.507   0.692 -0.0872  0.0305 -0.2038
28436W        W44245   7.745   5.841   2.044  0.0599  0.1134 -0.1166
28437W        W44246   9.852  14.116   9.960 -0.2974 -0.1299 -0.1231
28438W        W44247   3.254   3.425   5.000 -0.3286  0.0767  0.0177
28439W        W44248   7.099   4.352   2.929  0.3031 -0.0047 -0.2998
28440W        W44249   7.327   7.567  11.330 -0.1393 -0.1515 -0.0742
28441W        W44250   4.096   6.132  12.623 -0.0001 -0.1292 -0.0192
28442W        W44251  16.570  16.440  14.074  0.0912  0.2891 -0.1405
28443W        W44252   6.997   3.643  12.610  0.0900 -0.0577 -0.0223
28444W        W44253   6.664  14.903   3.517 -0.3747 -0.2389 -0.0184
28445W        W44254   5.869   4.053  11.436  0.0482  0.0533 -0.0121
28446W        W44255  14.604  17.617   1.633  0.3277 -0.3382  0.1035
28447W        W44256   2.933  15.432  15.248 -0.0423  0.2721 -0.2159
28448W        W44257   4.921  11.111   2.667 -0.1320  0.4352  0.1000
28449W        W44258  13.676  14.280   3.698  0.1244 -0.4151 -0.2033
28450W        W44259   8.742   2.964  14.782 -0.0377 -0.0668  0.2497
28451W        W44260   0.589   2.061  11.442  0.1652 -0.2788  0.1429
28452W        W44261  12.962  18.737   5.750 -0.1877  0.2591  0.3291
28453W        W44262  16.215  14.483  14.775  0.0457  0.1200  0.0673
28454W        W44263   7.612  12.121  13.058 -0.1746 -0.0704  0.0070
28455W        W44264  15.411  17.470  14.745 -0.0484 -0.2326  0.3004
28456W        W44265   9.933   8.084   1.968 -0.0330  0.2275  0.2704
28457W        W44266  18.333   4.005   4.560 -0.2222  0.1538  0.0361
28458W        W44267  15.315   7.297  12.539  0.0536 -0.0655  0.1510
28459W        W44268  11.672  18.116   2.964  0.1440  0.3053 -0.2575
28460W        W44269   0.923  16.823   1.967  0.1222  0.1374 -0.0341
28461W        W44270   4.448  18.071   0.973 -0.0674  0.1148 -0.2471
28462W        W44271  16.973  16.644  13.936 -0.0289 -0.0122 -0.0855
28463W        W44272   7.670   5.467  12.546 -0.1876  0.2241 -0.1195
28464W        W44273   9.742  12.979   0.755 -0.1990  0.0561  0.0693
28465W        W44274   1.116   2.222   1.474 -0.1188 -0.0429  0.0908
28466W        W44275   0.150   8.381   3.103 -0.0478  0.0438 -0.0851
28467W        W44276  11.533   6.982   2.613 -0.0097 -0.0949 -0.0617
28468W        W44277   3.256   8.747   0.179  0.0661 -0.1212  0.0080
28469W        W44278   2.249  11.760  14.488 -0.0459  0.2310 -0.3752
28470W        W44279   5.149  18.410  12.942  0.0192  0.1172 -0.0387
28471W        W44280  10.232  12.338  13.625 -0.1938  0.2656  0.0183
28472W        W44281   8.268   6.319   1.502  0.0336  0.1159  0.1624
28473W        W44282   5.615  14.182  12.476  0.0897 -0.1680 -0.0240
28474W        W44283   3.283  15.643   1.682  0.0015  0.2463 -0.0363
28475W        W44284   6.140   5.895   0.655  0.1367 -0.1338 -0.1766
28476W        W44285  14.288   4.814   2.904  0.2930  0.1787  0.0027
28477W        W44286   6.328  18.232  14.537 -0.1386 -0.1520  0.0609
28478W        W44287  14.636   3.410  12.220 -0.1975  0.2303 -0.0100
28479W        W44288   0.698   1.999  11.946 -0.1017 -0.0322 -0.1194
28480W        W44289   9.935  17.322  15.158 -0.0682 -0.0555  0.1148
28481W        W44290   4.416   8.800  15.045 -0.0592  0.1403  0.0128
28482W        W44291   8.581  13.243  12.567 -0.0503 -0.0130  0.0028
28483W        W44292   0.222  13.000   2.660 -0.2067  0.0494 -0.0040
28484W        W44293   1.392  18.674  11.543  0.1040 -0.0174  0.0261
28485W        W44294  15.354   9.145  12.039 -0.0145 -0.2853  0.3670
28486W        W44295   4.788   9.112  14.955 -0.1694 -0.0582 -0.1471
28487W        W44296  11.582   6.376  12.115  0.1616 -0.0282  0.2762
28488W        W44297  14.172   3.722  14.148 -0.0480 -0.0366 -0.3036
28489W        W44298  10.842  15.344  12.938  0.4335 -0.0697 -0.1003
28490W        W44299  13.433  12.674   2.798 -0.0081 -0.1840 -0.0499
28491W        W44300  18.438  13.318   2.815 -0.1372  0.1866 -0.0750
28492W        W44301  10.524   6.250  12.956  0.0211 -0.0194  0.1529
28493W        W44302  11.873   5.333  13.107 -0.2445  0.3201 -0.1151
28494W        W44303   3.325  11.604  11.434 -0.2883 -0.3848 -0.2977
28495W        W44304  14.565  13.129  12.134 -0.0993 -0.5146 -0.0605
28496W        W44305   6.764  10.490   2.959 -0.2392  0.2879  0.3172
28497W        W44306  16.360   5.052  10.902  0.2602 -0.0892  0.0671
28498W        W44307   9.894   3.777   2.372  0.0170  0.2181 -0.1545
28499W        W44308   2.023  12.459   1.564 -0.2416  0.0661  0.4969
28500W        W44309  17.410  15.868  12.157 -0.1555 -0.0709  0.1321
28501W        W44310  13.236  11.050   2.935 -0.0736 -0.2289 -0.0193
28502W        W44311   4.687   8.225   5.052  0.1533  0.0757  0.3757
28503W        W44312  14.907   0.089   4.611  0.1223  0.3434 -0.0332
28504W        W44313  18.502   3.240   5.694 -0.1585 -0.4207  0.2528
28505W        W44314  17.155   1.452   2.617  0.3311  0.1494 -0.0357
28506W        W44315  16.102   6.163   4.375  0.0013 -0.3274 -0.2042
28507W        W44316  15.232   2.976   2.802 -0.0623  0.2943  0.0764
28508W        W44317  15.865  15.624  11.327 -0.3246  0.0078  0.1287
28509W        W44318   3.110  17.333   3.820 -0.5003 -0.0803 -0.0444
28510W        W44319   2.724   9.784   2.585  0.0925 -0.4104 -0.0823
28511W        W44320   1.928   2.649   5.257  0.0307 -0.0940  0.1680
28512W        W44321   2.868  11.276  14.244 -0.2643  0.1137 -0.1357
28513W        W44322  12.731   3.175   2.710 -0.0097  0.0979  0.3364
28514W        W44323   4.996   9.498  12.396 -0.2528  0.2366 -0.2666
28515W        W44324  10.276   4.671   1.394  0.0079 -0.0354  0.1717
28516W        W44325   0.121   3.331   9.820 -0.0190  0.4628 -0.1264
28517W        W44326  13.611   4.631  15.315 -0.2902 -0.0160 -0.3512
28518W        W44327  14.211  17.006   4.300 -0.0585  0.1226 -0.0865
28519W        W44328   1.450  10.466  15.260 -0.2193 -0.4151  0.0871
28520W        W44329  11.600   8.472   3.205 -0.0992 -0.0188  0.0467
28521W        W44330  18.532  18.021   0.969 -0.3289  0.1915 -0.2229
28522W        W44331   6.136  17.166  13.705  0.0665  0.0894 -0.1699
28523W        W44332   1.655   8.761   0.050 -0.0047 -0.0171  0.0298
28524W        W44333   6.882  15.301   2.239  0.3163  0.1318  0.1761
28525W        W44334   0.729   4.398  10.166 -0.2591  0.1875  0.0164
28526W        W44335   1.567  14.819   4.168  0.0569 -0.1721 -0.2806
28527W        W44336   2.068   8.648  14.381 -0.3724 -0.0008  0.1123
28528W        W44337   0.411   4.057  11.087  0.1828  0.1027  0.1955
28529W        W44338  16.161   2.798  10.028  0.2961  0.1033 -0.2765
28530W        W44339   0.512   3.477  12.427  0.1493  0.1084  0.0184
28531W        W44340   8.367  18.385   3.594 -0.1300  0.1069  0.0104
28532W        W44341  17.179  16.302  11.330 -0.0726 -0.0369  0.1511
28533W        W44342  14.631   9.444  12.254  0.1461 -0.0265  0.0076
28534W        W44343  15.316   8.220   4.244 -0.4332 -0.2277 -0.2893
28535W        W44344  16.342   7.644   1.484 -0.2792  0.0503 -0.1235
28536W        W44345  10.168   2.983  11.176 -0.0327 -0.0075  0.0215
28537W        W44346  15.945  10.332  10.485  0.0583 -0.0853  0.1351
28538W        W44347  18.251  11.103  13.266 -0.0904  0.1848 -0.1825
28539W        W44348  12.631  16.558   0.215  0.3317  0.1470  0.1401
28540W        W44349  10.089   5.871   1.611  0.2832  0.3384  0.1079
28541W        W44350   1.265   7.482   2.039 -0.3136  0.0269  0.2406
28542W        W44351  11.030   7.950   2.230  0.4674  0.0191  0.1254
28543W        W44352  12.476  16.456  12.023  0.1101 -0.0712 -0.0758
28544W        W44353  18.295  12.876   0.600 -0.0359 -0.2245  0.3835
28545W        W44354  18.173   1.682   2.561 -0.0632  0.2345 -0.1150
28546W        W44355   8.819   6.705   1.803  0.0247 -0.1658  0.0416
28547W        W44356   9.025   5.048   3.369  0.3832 -0.0737 -0.3591
28548W        W44357  18.089   8.909   0.507 -0.3027 -0.0226 -0.1547
28549W        W44358   2.865   8.568   1.796  0.2359 -0.2779  0.1317
28550W        W44359   0.860   4.935  15.351  0.2904 -0.2472 -0.5486
28551W        W44360   4.842  15.927   0.028  0.2138  0.1600 -0.2697
28552W        W44361  14.394  13.815  12.848  0.3377 -0.2447 -0.0981
28553W        W44362   9.300   2.345  15.547  0.0538  0.1851 -0.0947
28554W        W44363   7.645   5.200  13.902 -0.3445  0.1528  0.0827
28555W        W44364  15.708  14.211   0.299 -0.0951  0.1563 -0.4254
28556W        W44365  13.763   7.868   3.563 -0.1735 -0.0885  0.1375
28557W        W44366  11.035   2.153   4.307 -0.1319 -0.0937 -0.1625
28558W        W44367   7.958   5.440   1.256  0.2084 -0.0995  0.2836
28559W        W44368   1.528   7.553   5.501  0.0458 -0.3482 -0.1812
28560W        W44369  15.222  17.529   4.449 -0.0927  0.2577  0.2298
28561W        W44370  11.522   9.469   2.274  0.2896  0.0799  0.1442
28562W        W44371   0.653   7.057   3.879 -0.1410  0.1427  0.0045
28563W        W44372   5.281   7.255   2.521  0.1661 -0.0042 -0.2603
28564W        W44373   7.448  16.036  12.642 -0.2546  0.0885 -0.0804
28565W        W44374   4.393   3.412  10.912 -0.2255  0.0387  0.0104
28566W        W44375  14.081   9.221   5.071 -0.0229 -0.0656 -0.0392
28567W        W44376  14.838  14.328  11.166 -0.1835 -0.1283 -0.1949
28568W        W44377   1.787  16.279  11.115 -0.1470  0.0016 -0.3067
28569W        W44378  12.622  13.218   3.074 -0.2358 -0.1757  0.3906
28570W        W44379   2.319   1.068   4.994  0.0745  0.0732  0.0175
28571W        W44380  18.119  11.780  12.349 -0.2430  0.0614  0.2162
28572W        W44381   4.920  10.232  13.990  0.1182 -0.0160  0.1622
28573W        W44382   0.780  11.389   3.159  0.0760  0.0797 -0.1645
28574W        W44383   0.972  14.333  12.947 -0.2777  0.0237 -0.3525
28575W        W44384   0.076   6.925   2.291 -0.0943  0.2063 -0.0963
28576W        W44385  15.094  14.494  11.587  0.1920  0.0731 -0.0759
28577W        W44386  16.292  18.184  10.540  0.0596  0.4926 -0.1843
28578W        W44387  11.021  18.135   0.662 -0.0875  0.2623 -0.2735
28579W        W44388  14.187   3.781   5.057  0.0701 -0.1123  0.2307
28580W        W44389   2.584   6.890  13.612  0.4155  0.2184 -0.1121
28581W        W44390  16.363   1.509   3.826 -0.0789  0.0930 -0.0251
28582W        W44391   3.226   5.183  10.997  0.0626  0.2470  0.3518
28583W        W44392  15.816  16.862  13.582  0.4539  0.3870 -0.0605
28584W        W44393   2.842  12.417   2.756 -0.0948  0.2188 -0.4046
28585W        W44394  10.204   6.237  11.472  0.1504  0.1772  0.0156
28586W        W44395  16.125   3.813   1.847 -0.2786 -0.0441 -0.2292
28587W        W44396  15.040   9.903  11.651  0.4236 -0.0963  0.2336
28588W        W44397   6.503  17.710  11.337  0.2639  0.0828  0.0782
28589W        W44398  12.137  10.511   3.139 -0.3253  0.4070 -0.0012
28590W        W44399  15.110  10.290  15.562 -0.1717  0.3932 -0.4014
28591W        W44400  11.233  13.708   3.716  0.1611  0.0971  0.1884
28592W        W44401  15.450  17.371   5.467 -0.2029  0.2484  0.1313
28593W        W44402  18.039  16.085  14.713  0.2481  0.1129 -0.3335
28594W        W44403   0.303  18.586   3.920 -0.0552  0.0447  0.0084
28595W        W44404   0.212   0.463  15.561  0.0426 -0.1942  0.0597
28596W        W44405  17.063  15.178   0.407 -0.0148 -0.0308  0.2553
28597W        W44406   2.142   0.877  11.831  0.1470 -0.1998 -0.2951
28598W        W44407  13.442  14.580  14.088  0.2080  0.1097 -0.0126
28599W        W44408   1.277  15.794  14.603 -0.1981  0.1280  0.2858
28600W        W44409  11.429   1.654  11.418  0.2804 -0.2695  0.1097
28601W        W44410  10.659  18.295   1.611 -0.0145 -0.0142  0.0651
28602W        W44411  11.375  17.343  12.956  0.0474  0.0030  0.0215
28603W        W44412   8.117  15.286   3.404 -0.3919 -0.1492  0.2730
28604W        W44413   1.498   7.302   4.105  0.0437  0.2027 -0.1135
28605W        W44414   8.980   1.775  13.432  0.2764  0.2440  0.0017
28606W        W44415   2.673   7.780  14.441 -0.0835 -0.1036  0.2127
28607W        W44416  15.978  15.581   3.837  0.2558 -0.0083  0.0966
28608W        W44417   4.378  11.806  10.231  0.1513 -0.0198  0.1214
28609W        W44418   4.229   6.572   1.198  0.2570  0.2508  0.0160
28610W        W44419  10.370  12.111  10.588 -0.0895  0.1121 -0.4169
28611W        W44420  16.420  16.183   6.264  0.2933  0.1175 -0.3813
28612W        W44421  13.360   8.706   1.480  0.2139 -0.2568 -0.1659
28613W        W44422  12.120   2.634   2.390 -0.2718 -0.0005 -0.1350
28614W        W44423   8.219  16.141   5.467  0.1124  0.1471  0.1513
28615W        W44424  18.614   2.696   5.182  0.0048  0.1034  0.0980
28616W        W44425  14.961  18.622   5.656  0.0525 -0.1303 -0.4153
28617W        W44426  12.138  16.202  12.266  0.0658 -0.2087 -0.2735
28618W        W44427  14.658   0.536   0.948  0.4009 -0.1798  0.2994
28619W        W44428  10.832   1.931  13.089  0.1140 -0.1189  0.2982
28620W        W44429  14.711   7.025   3.609  0.2187 -0.1045  0.0689
28621W        W44430   3.915   1.664  14.885  0.1226 -0.3575 -0.0001
28622W        W44431   9.071   8.030   0.630 -0.1315 -0.0616 -0.0812
28623W        W44432  10.168  13.147  11.456  0.2945 -0.3675 -0.1817
28624W        W44433   7.075  12.114   3.249  0.2411 -0.0543  0.0807
28625W        W44434   3.017  14.681   0.166 -0.3725 -0.0083 -0.0083
28626W        W44435  13.425   9.495  14.908 -0.0945 -0.2120 -0.2858
28627W        W44436   6.997   1.065  12.927  0.3127 -0.0284 -0.0776
28628W        W44437  12.756  17.146   4.874 -0.0400  0.3470  0.2135
28629W        W44438   6.285  17.848   1.918 -0.0878  0.0744 -0.0106
28630W        W44439  13.396   0.880   1.949 -0.3082 -0.1423  0.1858
28631W        W44440  12.516   7.857  15.263 -0.1154 -0.0609  0.2238
28632W        W44441  13.629  15.349  13.521  0.1445  0.0070  0.0651
28633W        W44442  18.546   8.691   1.212  0.0483 -0.2946 -0.1698
28634W        W44443  17.486   1.816  14.301  0.1531 -0.1473 -0.0606
28635W        W44444   0.453  15.776   4.984 -0.1458  0.0292 -0.2112
28636W        W44445  12.907  11.562  12.869  0.0458 -0.1962  0.3645
28637W        W44446  12.381   6.960  11.890 -0.1345 -0.2250 -0.1899
28638W        W44447   3.386  18.684   3.562 -0.0846  0.1698 -0.3392
28639W        W44448   2.484   0.189   5.033  0.0618  0.1633  0.3142
28640W        W44449  12.012   9.296  12.708 -0.1173  0.2746 -0.1629
28641W        W44450  16.065   9.489   0.132  0.1319  0.3373 -0.0246
28642W        W44451   9.473  12.437   1.324 -0.2523  0.1678 -0.0374
28643W        W44452   4.712  14.951   0.436 -0.0852  0.1628 -0.2117
28644W        W44453   0.204   9.891   3.950  0.0470  0.0873 -0.1126
28645W        W44454   5.721   1.680  12.578  0.2239  0.3373 -0.1211
28646W        W44455   6.885  15.213   4.180 -0.1225 -0.0852 -0.0025
28647W        W44456   8.262   0.739   2.686  0.0055  0.0084 -0.0742
28648W        W44457   7.361   7.352  15.405 -0.1239 -0.1002  0.1390
28649W        W44458  14.259  12.219  10.978 -0.3260  0.2027  0.0735
28650W        W44459  12.174   2.400   2.825  0.0280 -0.0434  0.0253
28651W        W44460  13.970  13.711  13.082 -0.0454  0.0514 -0.1337
28652W        W44461  14.693  13.447   5.283  0.0733  0.2328 -0.0325
28653W        W44462   4.136   7.578   2.464 -0.0380  0.0380  0.1038
28654W        W44463   6.100  11.996   2.095 -0.1886  0.0928  0.0806
28655W        W44464  14.456   4.916  11.312  0.1965 -0.1338  0.0787
28656W        W44465  16.580  18.489   4.069  0.0262 -0.0839  0.1086
28657W        W44466  17.458   3.093   0.119  0.0745  0.1280  0.2157
28658W        W44467   5.934   9.355   0.316 -0.0018 -0.0116  0.0702
28659W        W44468  17.135   6.260  12.240  0.4106  0.0085  0.0612
28660W        W44469  12.091   3.538   0.803  0.0599  0.1134 -0.5554
28661W        W44470  18.658  14.756  12.042 -0.0381 -0.0631 -0.1018
28662W        W44471  12.597  14.380   0.664 -0.0794  0.0889  0.0564
28663W        W44472  15.256   8.319  12.600  0.1252 -0.2055 -0.2625
28664W        W44473   6.056   6.578   1.048  0.3763  0.2757 -0.0692
28665W        W44474   8.763   4.579   1.478 -0.1443  0.2674 -0.3379
28666W        W44475   6.335   5.286   3.898 -0.1949  0.3438  0.1164
28667W        W44476  16.054   5.191  12.992  0.1576  0.3714 -0.0349
28668W        W44477   9.537  10.462   6.065  0.0683  0.2920 -0.2249
28669W        W44478  15.100  17.020   4.439  0.0641  0.1737  0.1108
28670W        W44479   9.143   8.686   5.183  0.2263  0.1397 -0.0214
28671W        W44480   3.813   3.375   5.135  0.0617  0.0694 -0.2818
28672W        W44481  14.770   0.223   6.153 -0.1585  0.1183 -0.2687
28673W        W44482   7.491   8.892  14.749  0.0755 -0.0320 -0.0765
28674W        W44483   7.920   6.430  10.127 -0.1528 -0.0515 -0.3491
28675W        W44484  10.548   8.292   4.077  0.2294 -0.1608  0.2021
28676W        W44485   1.097   9.465   0.174 -0.0005 -0.2561  0.0171
28677W        W44486  13.391  14.839  11.822  0.2263  0.1801 -0.2425
28678W        W44487   0.498  12.381   4.143 -0.0186 -0.0724  0.0877
28679W        W44488  16.051   8.982  11.372  0.3993 -0.0759 -0.0702
28680W        W44489   5.407  12.533  12.128 -0.4218  0.0894  0.0969
28681W        W44490   1.032   4.015   4.812  0.0439  0.0083  0.1660
28682W        W44491  16.771  11.201   1.721 -0.1848  0.1197 -0.1221
28683W        W44492   8.470   1.883  10.969  0.1675  0.4094 -0.2678
28684W        W44493   4.014  10.369   3.511  0.1355 -0.0758  0.0134
28685W        W44494   5.651   7.574  13.455 -0.1657  0.0930  0.1156
28686W        W44495  16.377   7.170   1.621  0.1668  0.2968  0.1747
28687W        W44496   6.350  10.003  12.110 -0.0406 -0.4500 -0.2661
28688W        W44497   9.173   2.473  12.704 -0.0550 -0.0088  0.2530
28689W        W44498   0.360   3.097   2.285  0.0881 -0.0769  0.3452
28690W        W44499  11.145  16.953   2.434 -0.0166 -0.2507  0.2900
28691W        W44500   7.960  18.600   4.066 -0.4371  0.0212 -0.0073
28692W        W44501  14.048   0.283  11.260 -0.1268  0.1115  0.0052
28693W        W44502   0.623   4.674  12.486 -0.1083  0.1020 -0.0905
28694W        W44503   6.715  10.017  13.445 -0.2714  0.1088 -0.3145
28695W        W44504  17.800   6.371   1.854 -0.1404 -0.0499 -0.1866
28696W        W44505   4.451  17.786  13.672 -0.0299 -0.1174 -0.1899
28697W        W44506   2.837  16.815   4.470 -0.0425 -0.1888 -0.0125
28698W        W44507   6.470   6.581   0.341  0.0628 -0.4428 -0.1117
28699W        W44508  13.668  10.150   4.542  0.0112 -0.3810 -0.1452
28700W        W44509   8.934   0.184  11.612 -0.0078  0.0589 -0.4154
28701W        W44510   8.768  11.396  15.199 -0.1787  0.0143  0.2230
28702W        W44511   2.175  10.942   0.155 -0.2322  0.0859 -0.0906
28703W        W44512   2.818  10.506   0.260 -0.0460 -0.1516 -0.1241
28704W        W44513   5.303  17.918   4.554  0.0884  0.0041 -0.1134
28705W        W44514   6.977  14.863  11.604  0.2655  0.0967  0.2130
28706W        W44515   7.353  18.048   3.800  0.2110  0.2572 -0.0671
28707W        W44516  10.646   4.149  11.215  0.0104 -0.1935  0.1001
28708W        W44517  18.326   5.655  14.263  0.4425  0.1271  0.2587
28709W        W44518   4.423   2.409  11.711  0.2605  0.4312  0.1383
28710W        W44519   8.735  11.403  11.478  0.0629  0.0935  0.1873
28711W        W44520   0.029  18.419   9.950 -0.1411 -0.1155  0.3848
28712W        W44521   8.460  11.219   2.714 -0.3815  0.3826  0.0641
28713W        W44522  12.796  14.938   4.140 -0.1915  0.0508  0.1672
28714W        W44523  18.206   6.317   1.604 -0.1194  0.1072 -0.3563
28715W        W44524   7.916   5.549  13.339 -0.5424  0.1433  0.0053
28716W        W44525   2.963   5.358   5.781 -0.1555 -0.2561 -0.2403
28717W        W44526  11.254   9.011  15.013 -0.1619  0.2078 -0.1162
28718W        W44527   7.112  16.208   2.621 -0.1184  0.1364  0.1596
28719W        W44528  18.118  16.463   0.709  0.2352  0.1353  0.1207
28720W        W44529   4.118  13.775  10.950  0.3107 -0.0977 -0.1181
28721W        W44530  13.528  18.480   1.199 -0.4519 -0.0290  0.2527
28722W        W44531  14.379   7.402  10.797  0.0583 -0.1167 -0.2314
28723W        W44532   6.651   0.506   1.777 -0.0512 -0.1667  0.2251
28724W        W44533   4.104   1.282  15.266  0.1035  0.2024 -0.0827
28725W        W44534  14.188  16.017   2.454  0.2899 -0.3311 -0.2704
28726W        W44535   1.221  11.565   0.659 -0.0185  0.0507 -0.1035
28727W        W44536   5.290   4.689   4.505  0.0401  0.2854 -0.1800
28728W        W44537   9.355   7.966   1.593  0.0014  0.3185  0.3084
28729W        W44538   8.250   9.197   4.946  0.2269 -0.4083 -0.1304
28730W        W44539   5.959   5.432   3.006  0.1048 -0.2856 -0.1167
28731W        W44540   6.121  16.858   4.995 -0.0986  0.1872  0.2221
28732W        W44541  17.604   8.077   3.095 -0.1296 -0.4363 -0.0440
28733W        W44542   6.887   1.704   0.124  0.0463 -0.0370  0.0027
28734W        W44543   3.807  10.407   2.888  0.0058 -0.0056  0.2454
28735W        W44544  14.206  11.442  12.141  0.0565  0.2390 -0.0091
28736W        W44545  17.022   0.122   3.152  0.0516  0.3306  0.1098
28737W        W44546   0.857   6.640   3.718  0.1488 -0.0731  0.0899
28738W        W44547  10.950   1.338   1.666 -0.1475  0.0711 -0.0872
28739W        W44548  18.574   6.936  13.544  0.3640  0.1213 -0.0220
28740W        W44549  11.058  10.042   5.312 -0.1190 -0.0337 -0.2635
28741W        W44550   5.374  14.840  11.926  0.0689 -0.1547  0.0795
28742W        W44551  12.787  16.076   4.081  0.3420 -0.1983 -0.2297
28743W        W44552  15.627   7.768   2.581  0.2043 -0.0320 -0.2730
28744W        W44553  16.442  15.244  12.958 -0.0988 -0.0068  0.0964
28745W        W44554   1.795  12.265  13.230 -0.0237  0.0459 -0.1957
28746W        W44555   4.329  15.594   1.606 -0.0971  0.0624 -0.0023
28747W        W44556  16.200  15.303  12.323 -0.2243 -0.2167 -0.0450
28748W        W44557   8.848  13.703  12.371 -0.0672  0.1485 -0.2000
28749W        W44558  10.737   2.142  13.577 -0.1655  0.0828 -0.0448
28750W        W44559   8.727  13.123  13.722  0.2313 -0.1835  0.1480
28751W        W44560  13.755   6.083   4.938 -0.2038  0.1244 -0.1407
28752W        W44561   7.471   2.706   3.953  0.1837  0.0684  0.1432
28753W        W44562   0.644  16.389   1.993  0.4426 -0.0430 -0.3582
28754W        W44563  12.780   6.821  11.021  0.2315 -0.0717 -0.0899
28755W        W44564   5.496   9.995   1.765  0.0049  0.2227 -0.2153
28756W        W44565  13.114  13.947  13.653  0.0256 -0.2023 -0.0439
28757W        W44566  10.418  15.783   4.055 -0.0019  0.2334 -0.3450
28758W        W44567  13.121  10.336   0.523 -0.0094 -0.0779  0.1732
28759W        W44568  17.468   8.753  13.079  0.0082  0.0454  0.1748
28760W        W44569   4.541   6.831   1.900 -0.1350 -0.0132  0.1186
28761W        W44570  16.260   8.091  11.012 -0.2159 -0.0594 -0.0193
28762W        W44571  16.502   2.772  12.820  0.2146 -0.1114 -0.0768
28763W        W44572   9.130   2.951   2.686  0.0816 -0.1851  0.1118
28764W        W44573  11.521   5.156  12.786 -0.1464  0.1865  0.0795
28765W        W44574   7.682   8.122   2.591  0.1301 -0.1610  0.2718
28766W        W44575   0.111  16.661  10.191  0.0787  0.2752 -0.2366
28767W        W44576  12.567  16.623   0.796  0.2688 -0.0324  0.3555
28768W        W44577   8.736  12.521   4.584  0.0355  0.2091 -0.2684
28769W        W44578   3.059  15.128   1.237 -0.1620 -0.1049  0.1594
28770W        W44579  11.381  15.596   2.429  0.2458  0.1702 -0.1348
28771W        W44580   9.719   2.156  12.475  0.4709 -0.2696 -0.1354
28772W        W44581  14.669   2.998  10.291 -0.0787  0.4873  0.0288
28773W        W44582  17.052  14.044   0.298 -0.1408 -0.0656  0.3143
28774W        W44583  13.281   2.126   2.569 -0.1712  0.2468 -0.2368
28775W        W44584  17.421  13.734   2.679  0.2985 -0.1333 -0.2415
28776W        W44585   1.187  13.367   0.135  0.0556  0.0599 -0.2185
28777W        W44586   9.106   6.019   0.244 -0.0589  0.0552 -0.0181
28778W        W44587   0.155  17.682   2.782  0.1445 -0.1073  0.3275
28779W        W44588  12.275   6.661  13.277 -0.0206 -0.0938 -0.3479
28780W        W44589   3.682  13.014   1.303 -0.0997 -0.0019 -0.0610
28781W        W44590   9.074  16.861  13.552  0.2227  0.2060  0.2213
28782W        W44591  15.220   0.351  13.386  0.1357 -0.0583  0.1865
28783W        W44592   8.435   8.140   1.823  0.1360 -0.0464  0.0208
28784W        W44593  12.064   6.064   3.602 -0.3175 -0.1419  0.0433
28785W        W44594  12.419   1.733   3.996 -0.3767  0.2935 -0.1832
28786W        W44595  17.272  17.083   3.683  0.0915 -0.0401 -0.2859
28787W        W44596   0.808   7.492   2.149  0.0492  0.0589  0.0895
28788W        W44597   5.693   9.678  14.143 -0.1382  0.2714 -0.1239
28789W        W44598   4.927  15.617   3.201 -0.2343  0.0852  0.1938
28790W        W44599   7.491  16.262   1.343  0.0612 -0.3356 -0.2359
28791W        W44600   9.872   3.735   0.930  0.2739  0.0036 -0.0857
28792W        W44601   8.421  13.807   5.539 -0.0793 -0.0393  0.0924
28793W        W44602  12.398   6.798  11.351 -0.1201 -0.2127  0.0101
28794W        W44603   3.295   2.027  11.665  0.1449  0.6212  0.0344
28795W        W44604  17.761   7.069  13.271 -0.4588  0.0298  0.1851
28796W        W44605   5.100  13.206   3.142 -0.2540  0.0174 -0.0187
28797W        W44606   1.574  18.504  12.955  0.3298 -0.3202 -0.1799
28798W        W44607  18.121   1.317  14.782 -0.4719 -0.0445 -0.0256
28799W        W44608  12.530  14.199   0.162 -0.1768  0.1999 -0.2218
28800W        W44609   3.602   0.455   4.290 -0.0308 -0.1596 -0.3589
28801W        W44610   5.408  14.740  15.396  0.2394 -0.1291  0.0358
28802W        W44611  14.527  10.031  13.281 -0.2922 -0.2819  0.1296
28803W        W44612   2.648   8.514  15.522  0.1949 -0.1749 -0.0921
28804W        W44613   6.178  17.060   4.444  0.4019 -0.0245 -0.1106
28805W        W44614  12.107   7.710  13.317 -0.0165 -0.2432  0.4718
28806W        W44615  14.039   4.087  12.212  0.1799  0.1672  0.0581
28807W        W44616   9.691  10.688   0.499 -0.2005 -0.0420 -0.3018
28808W        W44617   7.630  16.645   3.261  0.2272 -0.1861 -0.0730
28809W        W44618   2.255  14.708   9.700 -0.4997  0.2433 -0.0033
28810W        W44619   3.352  14.617   5.187 -0.2418  0.6679 -0.2925
28811W        W44620   5.621   7.175  13.767 -0.2388 -0.4518 -0.0052
28812W        W44621   7.184   9.188  15.475 -0.2550 -0.2053 -0.0716
28813W        W44622   6.530  14.938   9.903  0.3777 -0.0186  0.0090
28814W        W44623  12.828   5.413  14.060 -0.3028 -0.0731 -0.0508
28815W        W44624   3.951  16.479   3.693  0.0477 -0.2447 -0.4157
28816W        W44625   7.305   7.772   0.154 -0.0212  0.0008  0.1005
28817W        W44626  12.278  11.308  13.619 -0.1011 -0.2504 -0.0021
28818W        W44627  10.043  14.984   1.489  0.1521  0.1604 -0.0580
28819W        W44628   6.309  13.098  15.537 -0.0547  0.0059 -0.0098
28820W        W44629  16.150  11.568  11.752 -0.2996 -0.3083 -0.2076
28821W        W44630  13.859   2.746   1.239  0.3934  0.0428 -0.0198
28822W        W44631  17.088   0.089   5.716 -0.0670  0.2396  0.0272
28823W        W44632   3.108  15.877  11.241  0.2943  0.0816 -0.1056
28824W        W44633   5.508   0.059  15.540  0.0112  0.0505 -0.1519
28825W        W44634   8.551   5.964   3.594  0.1178  0.0337 -0.1492
28826W        W44635  15.937  17.238   1.473  0.0181 -0.0200 -0.2863
28827W        W44636  11.422  10.785   1.604  0.0884  0.1283  0.2621
28828W        W44637   3.963   3.392  13.283 -0.1970 -0.3709  0.0091
28829W        W44638   7.523  18.492   5.259 -0.1452  0.2793  0.0678
28830W        W44639  16.393   8.466  11.737  0.0029  0.2597  0.1161
28831W        W44640   1.292   1.754  12.712 -0.0089 -0.2136  0.2677
28832W        W44641  17.006   6.536  11.768  0.0599 -0.2623  0.0639
28833W        W44642  14.915  15.803   2.017 -0.0820 -0.0244 -0.1850
28834W        W44643   9.422  15.377  12.576  0.0081 -0.0692 -0.3302
28835W        W44644   1.037   9.437   3.010 -0.0886  0.1593  0.0957
28836W        W44645   7.866  13.352  11.071 -0.0729  0.2912  0.1439
28837W        W44646  15.379  14.884  11.708  0.1619 -0.2613 -0.0610
28838W        W44647   8.447  11.047   4.043  0.0851  0.3838 -0.0508
28839W        W44648   2.841  15.969   2.911 -0.2608  0.4371  0.3002
28840W        W44649  10.084   5.615   2.529  0.0449  0.1303  0.2847
28841W        W44650  12.411   3.353  11.524 -0.2584 -0.1049  0.2590
28842W        W44651  13.571  16.387  13.103 -0.0475  0.2307  0.0392
28843W        W44652   2.934  14.819  14.767  0.0309 -0.0577  0.0844
28844W        W44653  18.336  17.428   3.291 -0.1636  0.1065  0.0929
28845W        W44654   0.536   1.229  12.585 -0.0058  0.1385  0.2441
28846W        W44655   2.943  14.804   3.282 -0.0382 -0.3566  0.2139
28847W        W44656   1.340  11.653  12.669 -0.2745 -0.1016  0.3011
28848W        W44657  14.603   2.870   2.263  0.0829  0.1629 -0.0800
28849W        W44658   6.794   9.567  15.198  0.2088  0.0110  0.2307
28850W        W44659   4.438  11.477   9.806 -0.0037  0.1088 -0.1082
28851W        W44660   8.432  18.568   1.162  0.0526  0.2829  0.3787
28852W        W44661  16.642  18.069   5.768  0.3878 -0.1495  0.1094
28853W        W44662  12.750   8.937  11.871 -0.3367  0.1814  0.0669
28854W        W44663   5.460  14.531  14.373  0.0908  0.4099  0.0761
28855W        W44664  10.969   9.192   1.110  0.2544 -0.0428 -0.2550
28856W        W44665   8.923  16.314   3.692  0.1752 -0.3261 -0.1203
28857W        W44666  17.422  18.688   4.795  0.2762  0.0568 -0.0322
28858W        W44667  12.377   4.845  12.318  0.0171  0.2857 -0.1821
28859W        W44668  12.072   4.680  11.222  0.1512 -0.1809 -0.3542
28860W        W44669  13.474  16.600   3.602  0.1503  0.0121 -0.0468
28861W        W44670  15.712  10.208  13.572  0.0280  0.2330 -0.0363
28862W        W44671   1.784   7.913  11.091  0.0167  0.0569  0.0270
28863W        W44672  10.784  15.797  15.329 -0.0471  0.2351 -0.1961
28864W        W44673   6.705  17.236  14.457  0.0332  0.0148  0.1550
28865W        W44674  14.979  11.069  14.674 -0.1251  0.2108 -0.1666
28866W        W44675   0.639   1.682   3.817  0.4228 -0.3446 -0.2320
28867W        W44676  15.887  14.972   3.586  0.1550  0.0701 -0.0396
28868W        W44677   4.321  16.043  11.598 -0.0377  0.0354  0.1100
28869W        W44678   2.187  10.296   3.054 -0.1968  0.1393  0.0334
28870W        W44679   2.662   6.838   1.456 -0.3502  0.1669  0.3901
28871W        W44680  13.656  13.386  13.877  0.0863 -0.1989  0.0890
28872W        W44681   4.995   5.717  12.971 -0.1062  0.0538  0.0602
28873W        W44682  12.025  17.285   1.949 -0.0039  0.1606  0.1137
28874W        W44683   5.221  10.337  11.363  0.0366 -0.0594 -0.0539
28875W        W44684  16.302   2.067   2.648  0.0017 -0.1644  0.0217
28876W        W44685  11.203   3.540   3.603 -0.0785 -0.1394  0.2493
28877W        W44686  11.878   3.747   2.683 -0.2165  0.1656  0.0269
28878W        W44687   9.413  16.401   4.707 -0.1381  0.2442 -0.2195
28879W        W44688   8.323   0.049   4.455 -0.1016  0.0342  0.0091
28880W        W44689   9.189  10.790   1.368 -0.0332  0.2590  0.0344
28881W        W44690  15.674  16.497  13.195 -0.2030 -0.1057  0.1939
28882W        W44691   9.096  11.643   9.934 -0.0686 -0.2392 -0.0870
28883W        W44692  11.338  14.177  14.663  0.1012  0.0637  0.0814
28884W        W44693   7.901  13.480   0.973 -0.0816 -0.3374  0.1480
28885W        W44694   5.736   1.417   0.128 -0.0077 -0.2708 -0.1114
28886W        W44695   5.091   9.813   3.120  0.0136 -0.0501 -0.2736
28887W        W44696   0.764   2.140   4.833 -0.2160  0.0543  0.1442
28888W        W44697  17.792   6.113   1.367  0.1656  0.0370 -0.0041
28889W        W44698   4.637   6.700   2.806 -0.1714  0.1806 -0.3779
28890W        W44699   4.683   0.406   3.510  0.0613 -0.1952 -0.0583
28891W        W44700   7.658  16.099  14.819  0.0121 -0.1016  0.0156
28892W        W44701   9.345  14.087   2.201 -0.1110  0.1789 -0.1708
28893W        W44702  16.069  11.185   4.715  0.1651 -0.0907 -0.1057
28894W        W44703  14.886   1.123   0.747  0.1531  0.1831 -0.3582
28895W        W44704   6.595   1.998  11.672 -0.1143  0.3626 -0.0189
28896W        W44705   9.240   4.337  12.847  0.5015  0.1820  0.0610
28897W        W44706  16.388   3.781   3.604 -0.2031  0.0232 -0.1175
28898W        W44707  18.652  15.012  15.062  0.1634 -0.2338  0.2019
28899W        W44708  10.778  15.097   3.923  0.0745 -0.0702 -0.0844
28900W        W44709  17.291   4.634  13.927  0.1486 -0.1264  0.1603
28901W        W44710  11.592  11.530   1.333  0.0393 -0.0212 -0.4375
28902W        W44711   8.064  12.842   2.540  0.0647 -0.1081  0.0675
28903W        W44712  16.900  15.946   3.725  0.1515  0.1047  0.1370
28904W        W44713  12.429  12.882   0.703  0.0247  0.1488  0.0425
28905W        W44714   8.912   9.580  11.460  0.1823 -0.1281  0.0492
28906W        W44715  14.208  14.167  11.087 -0.1457  0.2052 -0.2048
28907W        W44716  13.197  15.256   0.634 -0.1669 -0.0376  0.0345
28908W        W44717   1.073  14.426   4.063 -0.3201 -0.1998  0.0527
28909W        W44718  10.670   5.953  11.066  0.0784  0.1687  0.0804
28910W        W44719  16.276  16.935  12.422  0.0741  0.0780  0.1029
28911W        W44720   1.783  15.338  12.318  0.0166 -0.0399  0.3319
28912W        W44721   6.961  17.056  11.142 -0.3292  0.0588 -0.1583
28913W        W44722   2.615  16.064   9.848  0.2829 -0.2714  0.0303
28914W        W44723  14.578  13.839   4.589  0.1412  0.0997  0.0884
28915W        W44724  13.750  14.352  11.975 -0.3779  0.0778 -0.3121
28916W        W44725   6.444  11.023  15.522  0.1546  0.0940 -0.0779
28917W        W44726  12.744   0.561   5.207 -0.0875  0.1684 -0.0166
28918W        W44727   0.009   9.693  12.800  0.1602 -0.2328  0.1725
28919W        W44728   7.788   2.158  12.159 -0.0873 -0.0755 -0.0073
28920W        W44729   1.706  10.805  14.943  0.1639 -0.0118  0.0729
28921W        W44730   8.112  15.526   0.088  0.2062  0.1532 -0.1142
28922W        W44731   0.126   3.355  12.846 -0.2845  0.1895 -0.3079
28923W        W44732   3.329  13.700   1.230 -0.0808 -0.1642  0.0016
28924W        W44733   5.251  15.519  13.104 -0.0236  0.0112  0.2659
28925W        W44734  18.730  10.464  15.204  0.1724 -0.3338 -0.1076
28926W        W44735   1.232   3.420   4.624  0.1481 -0.2706  0.0922
28927W        W44736   0.324   2.113   0.927  0.1161 -0.0486  0.0663
28928W        W44737   5.180   0.882  13.450 -0.0549  0.0410 -0.0689
28929W        W44738  11.740   9.966   1.979 -0.0101 -0.0713 -0.5341
28930W        W44739  11.542   8.569  11.411  0.2371 -0.1099  0.1906
28931W        W44740   6.508  15.246   3.822 -0.3385  0.1584  0.1470
28932W        W44741  10.916   3.667   1.883  0.1980  0.1549 -0.0299
28933W        W44742   2.098  16.829   3.810 -0.0550 -0.1157  0.1530
28934W        W44743  13.008  14.617   5.323  0.1719 -0.5521  0.0574
28935W        W44744  13.429   1.119  14.435  0.1224 -0.1920  0.3232
28936W        W44745  10.502  15.437   3.095  0.0956 -0.0735  0.1049
28937W        W44746   5.361  16.498  10.281  0.0758  0.1713  0.3677
28938W        W44747   4.960   2.460  11.795  0.1237  0.1106 -0.0831
28939W        W44748   6.708  16.813  13.582  0.5436  0.0449  0.1462
28940W        W44749  18.340   9.832  15.440 -0.0709 -0.0168  0.2763
28941W        W44750  12.712   4.567   5.109  0.0411  0.0827  0.2550
28942W        W44751   7.942   4.971  11.345 -0.2417  0.1212  0.1338
28943W        W44752   9.853   1.183   0.721 -0.0536 -0.0548 -0.1822
28944W        W44753   7.567  15.422  14.336  0.0613 -0.1288 -0.4641
28945W        W44754  10.836   7.625   3.988 -0.3926 -0.1115 -0.0171
28946W        W44755  17.219   9.071   3.173 -0.1744  0.0495  0.0405
28947W        W44756   7.519   0.310  10.975  0.0909  0.1774 -0.4900
28948W        W44757  10.818  13.745  13.298  0.1167  0.1481  0.0822
28949W        W44758   2.046   1.064   1.767  0.1653 -0.1591  0.1767
28950W        W44759  16.464  15.652  11.859  0.1078  0.3489 -0.3335
28951W        W44760  15.227   7.567  13.926  0.0126  0.0279 -0.3975
28952W        W44761   4.005   1.814   5.104 -0.0751 -0.0042  0.0204
28953W        W44762  12.974  17.423  12.869  0.1259  0.0909 -0.1516
28954W        W44763  17.501  17.901  13.255  0.1703  0.0607  0.3077
28955W        W44764  15.252  16.044   5.373  0.1750  0.1975 -0.1151
28956W        W44765  13.548   1.100   1.410  0.2446  0.2649 -0.0104
28957W        W44766   2.098   9.705  13.007 -0.2492  0.1017  0.0908
28958W        W44767  15.276   3.166  15.110 -0.1463  0.4696  0.3195
28959W        W44768   9.274  13.360  11.876  0.1253 -0.3073 -0.3491
28960W        W44769   2.720   0.450  12.275 -0.0288  0.1607  0.0904
28961W        W44770  12.117  12.054   9.844  0.0798 -0.0178  0.1168
28962W        W44771   5.520  17.297   1.623 -0.1677  0.0978  0.3043
28963W        W44772  13.551  10.098  12.891  0.0257  0.0037  0.0148
28964W        W44773   4.401  11.285   4.358 -0.1384  0.3584  0.1943
28965W        W44774  13.602  13.298  12.435  0.0778  0.0759 -0.0083
28966W        W44775  17.921  11.714  12.901  0.0230 -0.0117  0.1291
28967W        W44776  10.741  16.407  13.116  0.0081 -0.1065  0.1177
28968W        W44777   5.393   9.136   5.805  0.2212 -0.1278  0.1311
28969W        W44778  16.556   5.158  12.721  0.2690  0.0358 -0.2644
28970W        W44779   2.744  17.100  13.078  0.2153  0.1728  0.1923
28971W        W44780  17.250  13.438  14.247 -0.3390 -0.0928  0.3119
28972W        W44781  16.454   1.499  15.148  0.1676  0.1628 -0.0494
28973W        W44782   9.842  17.006   3.153 -0.3727 -0.1055 -0.4563
28974W        W44783   4.193   3.024  10.691  0.3235  0.0417 -0.1444
28975W        W44784   6.928  13.629   1.033 -0.2658 -0.0755  0.0812
28976W        W44785   0.919  12.156   0.597 -0.2533  0.2118 -0.1155
28977W        W44786   5.627  11.264  12.705 -0.1758 -0.1598 -0.1789
28978W        W44787   6.125  16.577   0.274 -0.0484 -0.1631 -0.2061
28979W        W44788   9.325  12.994  11.517 -0.2292 -0.2513  0.0981
28980W        W44789  14.572  10.472   2.267 -0.1053 -0.0364  0.1622
28981W        W44790   6.468   8.108   0.160  0.0583 -0.1133 -0.1317
28982W        W44791   5.497   6.251  12.024 -0.1894 -0.0389  0.2903
28983W        W44792   3.638   1.056   5.048 -0.0666 -0.1617  0.2746
28984W        W44793  10.173   7.968  11.816  0.2809 -0.1137 -0.1861
28985W        W44794   0.269   3.835  14.745 -0.1264  0.0582  0.1454
28986W        W44795   2.092   1.829   2.353  0.1051  0.2301  0.1408
28987W        W44796   6.854  13.173  10.650  0.1360  0.2240 -0.4542
28988W        W44797   7.153   2.927  15.239 -0.3801  0.0093  0.0039
28989W        W44798  14.904  10.801   1.866  0.5152  0.1991 -0.0188
28990W        W44799  10.469  11.331  13.515 -0.0368 -0.3930  0.0327
28991W        W44800   2.756   2.559  15.316 -0.1902 -0.0334  0.2124
28992W        W44801  15.985   8.156   4.813  0.0686  0.1592  0.1407
28993W        W44802  16.827  12.434  11.046  0.1985  0.0928 -0.1543
28994W        W44803  11.751   0.190   5.348 -0.0020 -0.0466 -0.2569
28995W        W44804  15.104   8.103   1.543  0.1169  0.2300  0.0270
28996W        W44805   1.474  16.788   1.770 -0.1337 -0.1940  0.2531
28997W        W44806  18.392  14.954   1.491 -0.1514 -0.0474  0.1313
28998W        W44807   5.859   5.002  10.396  0.2644 -0.1120  0.2377
28999W        W44808   0.542   6.670   1.426  0.1595 -0.0387  0.1213
29000W        W44809  10.888  17.319  12.836  0.0162  0.0390  0.0580
29001W        W44810   5.991  11.006   2.873  0.2477  0.0338 -0.1853
29002W        W44811   2.683   9.439  14.463  0.2271 -0.0258  0.1923
29003W        W44812  16.599  11.644   1.767 -0.0499 -0.2251  0.1792
29004W        W44813   0.259  13.697   3.656  0.1212  0.4137 -0.2078
29005W        W44814  18.076   1.886  12.058 -0.0559 -0.1007  0.0280
29006W        W44815   1.180  17.512   2.655  0.1278  0.1558 -0.1793
29007W        W44816  17.105  17.044  15.332 -0.0319 -0.0303 -0.2644
29008W        W44817  11.605   6.907  11.602  0.1024  0.2951  0.1609
29009W        W44818   1.301  11.130   0.314  0.0119  0.0481 -0.1063
29010W        W44819  12.748   5.641  12.059  0.1321  0.1838  0.0276
29011W        W44820   3.860  12.380   4.942  0.1385 -0.1783 -0.0402
29012W        W44821  17.044   1.732   3.820  0.0507 -0.1235  0.1255
29013W        W44822  17.962   0.387  13.341  0.0625 -0.1347  0.0535
29014W        W44823   2.143  11.381   2.255  0.1523 -0.0368  0.1270
29015W        W44824   1.244   0.955   1.307 -0.0123 -0.1221  0.1336
29016W        W44825  13.336   5.317   5.407 -0.2758  0.0410 -0.2447
29017W        W44826  17.979  11.961   0.958  0.1187  0.1745  0.2451
29018W        W44827  15.223  15.650   5.096  0.0175  0.0117 -0.2784
29019W        W44828  17.006  14.666  15.556 -0.1588  0.2770  0.0121
29020W        W44829  12.644   2.027  15.309 -0.3102  0.2818 -0.0385
29021W        W44830  18.525  16.886  13.118  0.0568  0.0387  0.1134
29022W        W44831  18.047  14.480   2.659  0.0318  0.2755 -0.1966
29023W        W44832  14.019  13.685  10.854  0.2446  0.3586 -0.0433
29024W        W44833   0.171  10.493   3.126  0.2966 -0.0810 -0.2807
29025W        W44834  11.888   1.717  10.060  0.0384 -0.0950 -0.0211
29026W        W44835   7.898  12.246  15.248  0.0825 -0.0000 -0.1444
29027W        W44836  13.926   5.125   4.661 -0.4714  0.1936  0.0596
29028W        W44837   8.799  14.500  11.368  0.3283  0.1432 -0.2589
29029W        W44838  12.057   5.908  15.022 -0.0091  0.2551  0.0474
29030W        W44839   0.225   0.458   5.191  0.0393  0.1036  0.1096
29031W        W44840  10.095  11.921   5.180  0.0140 -0.2845  0.0389
29032W        W44841   9.822  17.601  14.176 -0.0273 -0.0766 -0.2717
29033W        W44842   7.305  10.472   2.886  0.0381  0.1999 -0.1427
29034W        W44843   5.634   4.425   0.054 -0.1952 -0.1164  0.3609
29035W        W44844   1.577  11.546   4.988 -0.0972 -0.3995 -0.0338
29036W        W44845  10.996  11.492   1.924 -0.1192 -0.0928  0.1182
29037W        W44846  11.599   6.159   0.314  0.0196 -0.2955 -0.3561
29038W        W44847  17.207   0.349   3.934 -0.3458 -0.0330 -0.2918
29039W        W44848   7.674  14.363  13.487  0.0793 -0.1223 -0.2427
29040W        W44849   0.544   2.796   5.356 -0.0003  0.1901 -0.2499
29041W        W44850   4.865  13.779  14.527  0.0156  0.2425 -0.0330
29042W        W44851   5.248   2.030   3.803 -0.3269  0.2034 -0.1447
29043W        W44852  17.344  10.620   4.495 -0.2496 -0.1018  0.0188
29044W        W44853  10.272  13.809   4.967  0.0556 -0.2017  0.0455
29045W        W44854   6.910   3.818   0.800  0.1083  0.1198  0.0364
29046W        W44855  17.274   0.291  14.017 -0.0753 -0.3311 -0.0164
29047W        W44856   6.299   5.825  11.129  0.1498 -0.2292 -0.0996
29048W        W44857  13.664  12.767  10.586 -0.4803 -0.1047  0.0155
29049W        W44858  11.841   1.293   9.793 -0.3311  0.1866  0.0379
29050W        W44859  13.513   4.238   4.724 -0.1639  0.0378  0.1983
29051W        W44860  15.160   3.238   1.798 -0.0213  0.0365 -0.2190
29052W        W44861  14.260   7.929   3.327  0.2134  0.0944  0.1109
29053W        W44862   8.857  13.994  14.701  0.2455  0.0608 -0.3650
29054W        W44863   4.568  17.487   0.680  0.0716  0.2197  0.0257
29055W        W44864   8.717   4.379   3.125  0.3310 -0.2692  0.2997
29056W        W44865  10.011   1.666   0.804  0.1627  0.0843 -0.0705
29057W        W44866   2.123   3.500   4.515  0.1794 -0.2924 -0.2352
29058W        W44867  10.655  10.115  14.599  0.1014  0.3805 -0.2032
29059W        W44868   3.506  12.041   4.841 -0.1044  0.2933 -0.0062
29060W        W44869  15.992  17.347   5.846 -0.2900 -0.2788 -0.3795
29061W        W44870  17.010   2.602   0.612  0.2000  0.2747  0.1480
29062W        W44871  11.917  14.042  12.073  0.0119 -0.0882  0.2545
29063W        W44872   0.053  15.069  11.371 -0.2748 -0.3012  0.0572
29064W        W44873  16.409  13.160  14.623 -0.0468  0.0299  0.3104
29065W        W44874  15.518   7.154  14.866  0.1657 -0.0128  0.2695
29066W        W44875  10.091  14.600   9.898 -0.0772 -0.0058 -0.0981
29067W        W44876  11.539  13.199   2.146 -0.0869  0.1972 -0.0773
29068W        W44877   0.496   3.204  15.215 -0.0489 -0.1976 -0.2821
29069W        W44878  18.596   9.948  14.368  0.1762 -0.1607  0.2550
29070W        W44879   5.503  16.695  13.962  0.0243  0.1733  0.5093
29071W        W44880  11.516   3.394   0.319  0.1659  0.0681 -0.2229
29072W        W44881   8.090   1.093  11.474 -0.2620 -0.1029 -0.2069
29073W        W44882   7.669  10.588  13.999 -0.1498  0.1654  0.0219
29074W        W44883  17.196  11.485  15.493  0.0167  0.1907 -0.1137
29075W        W44884  17.714   9.279   3.160 -0.1541  0.1950 -0.1209
29076W        W44885   3.052   3.562  13.607 -0.2186  0.1922  0.0741
29077W        W44886   5.505   8.652   1.240 -0.3762 -0.0110 -0.1201
29078W        W44887  18.739  15.538  11.754 -0.0220 -0.1688  0.1706
29079W        W44888   7.787   4.676  13.629 -0.0495  0.1517 -0.2377
29080W        W44889  17.288  15.442   3.826  0.1726  0.1292  0.4581
29081W        W44890   6.763  17.337  12.517 -0.2134  0.1285  0.0398
29082W        W44891   2.131   3.912   4.245 -0.2228  0.0135 -0.1526
29083W        W44892   6.818  12.690  10.752 -0.2751 -0.2598  0.0607
29084W        W44893  14.201   2.206  14.218  0.1423 -0.1671  0.0876
29085W        W44894  17.499  18.589   1.326  0.0628 -0.0377 -0.1506
29086W        W44895  13.895   0.200  15.459 -0.2638  0.3170  0.1310
29087W        W44896   8.851  11.320  12.318 -0.2613  0.1963 -0.0156
29088W        W44897  13.234   3.258   4.502  0.1367  0.0926  0.2019
29089W        W44898  14.794   3.842  11.235 -0.2172 -0.3095  0.1442
29090W        W44899   0.526   4.672   5.141  0.2594  0.0790 -0.1522
29091W        W44900   3.364  14.157   4.190  0.0280  0.3136 -0.0869
29092W        W44901  16.813   0.937   3.318 -0.0186 -0.1927 -0.2047
29093W        W44902  10.572  11.406  11.149  0.3936  0.0016 -0.1849
29094W        W44903  12.634  12.663  13.063  0.1262  0.0825  0.0652
29095W        W44904  14.753   0.270  15.226 -0.2006  0.1063 -0.0694
29096W        W44905  14.702  17.380   3.468  0.3288 -0.1857  0.0847
29097W        W44906   4.937  13.168   4.128 -0.0677 -0.3041 -0.1207
29098W        W44907  13.970   3.680   1.137  0.0408  0.1299  0.3112
29099W        W44908   3.274   8.140   9.845 -0.0807 -0.0251 -0.4797
29100W        W44909  16.133   6.787   5.381  0.0918  0.0513 -0.0067
29101W        W44910   8.481   6.636  15.296 -0.0758  0.0308  0.0520
29102W        W44911  13.713  15.783   3.434  0.1867  0.1367  0.2079
29103W        W44912   5.868   5.675   1.136  0.0715 -0.2459 -0.0283
29104W        W44913   9.987   8.525  13.912 -0.1229  0.0602 -0.2403
29105W        W44914  12.077   6.242  12.075  0.3448 -0.3255 -0.2333
29106W        W44915   8.276  18.413   5.682  0.1382  0.3617  0.1716
29107W        W44916  10.687   5.169   3.080 -0.0186  0.2296  0.3820
29108W        W44917  15.480  17.731  14.258 -0.2117  0.0772 -0.0159
29109W        W44918   6.385  13.578   4.189  0.3584  0.0661  0.4545
29110W        W44919  11.462   0.726   2.561  0.0297  0.2679 -0.0157
29111W        W44920   2.210   8.222  12.368 -0.4632  0.1318 -0.0708
29112W        W44921  12.874  15.681  11.360 -0.0303  0.0528 -0.2288
29113W        W44922  16.509   3.587   4.560 -0.1746 -0.1966  0.4821
29114W        W44923  14.943  16.604  14.665  0.2687  0.0441 -0.3431
29115W        W44924  14.710   1.791   5.348 -0.0919  0.1219  0.1857
29116W        W44925  12.422   7.594   1.420  0.1197  0.2253  0.0595
29117W        W44926  11.274   1.515   0.227 -0.0902 -0.0367  0.0108
29118W        W44927  10.367   1.683  13.258  0.1191  0.3570  0.1116
29119W        W44928  12.688   3.247   4.490  0.1031 -0.0957  0.0899
29120W        W44929  13.347  13.570  11.413  0.0473  0.2623  0.1305
29121W        W44930   2.727  11.019   0.182  0.0411 -0.2365 -0.0963
29122W        W44931  12.453  15.237   3.908 -0.0361 -0.2526 -0.2439
29123W        W44932  14.252   2.913  15.169 -0.0512 -0.0445 -0.3821
29124W        W44933  16.838   7.481  10.557  0.0653 -0.2735 -0.2176
29125W        W44934  18.297   8.527   2.491 -0.2122  0.2653 -0.3950
29126W        W44935  16.175   9.074   5.210 -0.0415  0.0627 -0.2425
29127W        W44936  14.528   1.034   5.048 -0.1562  0.0969  0.4031
29128W        W44937   7.218  14.794   3.409  0.0961 -0.3477  0.1483
29129W        W44938  18.428   5.286  10.046 -0.0599 -0.4093 -0.2011
29130W        W44939   0.821  14.789  13.156  0.1486  0.0352  0.0080
29131W        W44940   8.424   9.776   1.942 -0.3127 -0.1199 -0.0139
29132W        W44941   2.870  12.803  10.814  0.1243  0.3382  0.1640
29133W        W44942   1.862   4.149   1.290 -0.1859 -0.1923  0.3621
29134W        W44943  14.091   9.213  13.783  0.0596  0.2247  0.3446
29135W        W44944  17.475   0.526  11.958  0.1099  0.1098  0.1268
29136W        W44945   8.201   5.770  14.856 -0.1671 -0.1766  0.0914
29137W        W44946   8.918   0.830  11.583 -0.0923  0.1307 -0.7063
29138W        W44947   8.523   6.773  13.722 -0.5165  0.0834  0.1247
29139W        W44948   8.843  17.987   0.142 -0.0186 -0.0273  0.0885
29140W        W44949  17.868  12.843  14.155 -0.3122  0.3733  0.0601
29141W        W44950  16.526  10.606  13.800  0.5188 -0.3672 -0.0493
29142W        W44951  16.208  14.817  12.821  0.0800  0.1138  0.0737
29143W        W44952   2.196  14.451  13.868 -0.0044  0.0322 -0.1653
29144W        W44953   4.125  15.458   2.870 -0.1037  0.1054  0.0926
29145W        W44954   5.961   0.941   4.235 -0.0845 -0.0063 -0.3035
29146W        W44955   6.650  18.674   9.771 -0.4101  0.0541 -0.2729
29147W        W44956   8.560  16.573   2.937  0.2053  0.0304 -0.1879
29148W        W44957   7.031  13.765   1.943 -0.0231 -0.3367 -0.3121
29149W        W44958   5.759   8.871   0.352 -0.2800  0.1415  0.1293
29150W        W44959  11.248  18.649  13.871  0.2668 -0.1086 -0.1412
29151W        W44960   0.310   8.891   5.067  0.0746 -0.0822  0.0822
29152W        W44961  16.317   4.465   2.938 -0.0063  0.0026 -0.1441
29153W        W44962  13.686   5.980   2.257 -0.0853 -0.0840 -0.0675
29154W        W44963  13.526  17.456  13.592  0.1280  0.0060 -0.1528
29155W        W44964  11.307   7.449  12.877 -0.3259  0.0876  0.1914
29156W        W44965   7.910   6.566  15.471 -0.1897 -0.3230 -0.5455
29157W        W44966   3.403   4.353  11.649 -0.0212 -0.0101 -0.1003
29158W        W44967   4.648   7.091   3.786 -0.0311 -0.1115  0.1992
29159W        W44968   4.513  13.589  11.211 -0.0172 -0.1768  0.0915
29160W        W44969   0.089  16.571  13.371  0.0109 -0.2663 -0.0882
29161W        W44970  10.101  18.117   5.862 -0.1239 -0.2226 -0.2255
29162W        W44971   8.592   2.775   0.845  0.1806  0.2039 -0.1001
29163W        W44972   9.140  13.217  14.077 -0.1449 -0.1485  0.0873
29164W        W44973   1.369   0.784  10.103  0.0805  0.0589  0.2576
29165W        W44974   4.861   9.579   4.807 -0.0713 -0.2219 -0.0347
29166W        W44975   2.738   7.204   4.954  0.0126  0.2014 -0.0046
29167W        W44976  10.760   0.064  13.259  0.0181  0.0118  0.1413
29168W        W44977   3.261  13.645  12.590  0.1822  0.0318  0.3169
29169W        W44978   5.516   5.623   0.272 -0.0003  0.0086  0.2621
29170W        W44979  15.862   1.052   5.472 -0.0816  0.0449 -0.2078
29171W        W44980   2.403   3.862   1.772 -0.1144  0.2059  0.0779
29172W        W44981  12.008  14.723  13.763 -0.2685 -0.2198 -0.3325
29173W        W44982  12.463  17.942   3.592 -0.2959 -0.2541  0.0805
29174W        W44983  16.410   8.154   1.695  0.1375  0.1640 -0.0130
29175W        W44984   5.700  14.444   2.060 -0.0363 -0.0511 -0.0200
29176W        W44985  18.300   4.808   4.857  0.1239  0.2029 -0.2332
29177W        W44986   1.523   8.444   4.452 -0.1072  0.1202  0.2060
29178W        W44987   5.574   0.145  12.289 -0.0494 -0.0550 -0.2111
29179W        W44988  12.732   0.161   2.169  0.3771  0.0382  0.1830
29180W        W44989  17.089   7.441   0.712 -0.0468  0.4190 -0.0537
29181W        W44990  15.620  14.552  11.401 -0.1446 -0.0277  0.4064
29182W        W44991  14.735  11.556  13.936 -0.3590 -0.4053 -0.0784
29183W        W44992  18.297  11.421   3.109  0.3966  0.1086  0.0755
29184W        W44993  12.146   3.402   2.959 -0.0704  0.2000 -0.1897
29185W        W44994  12.686  16.293  15.132 -0.1259 -0.4054  0.1963
29186W        W44995   5.528  13.391   0.151 -0.0665  0.1610 -0.1178
29187W        W44996  10.105   2.827  10.266  0.3325 -0.1119  0.0631
29188W        W44997   2.910  16.279  12.795 -0.2544 -0.2548  0.0612
29189W        W44998   9.861  15.383  11.326 -0.0584  0.0153 -0.2732
29190W        W44999   0.244   9.344  13.729  0.1175 -0.1208 -0.2192
29191W        W45000  18.581   7.217  11.237  0.1247  0.0772  0.1805
29192W        W45001  18.769   2.892   3.680  0.2197 -0.0173  0.0724
29193W        W45002  13.789   2.074  13.499 -0.1786 -0.1278 -0.1756
29194W        W45003   6.563   8.691   2.700 -0.0778 -0.0448 -0.1393
29195W        W45004  11.561  15.009  15.125 -0.2049  0.1258 -0.0578
29196W        W45005   9.582   2.997   0.779 -0.0604 -0.3634  0.2208
29197W        W45006  13.885   5.450  10.298  0.0530 -0.0570  0.0753
29198W        W45007  18.391   7.384   4.807 -0.1431 -0.0901 -0.1570
29199W        W45008  17.487   6.461   0.268  0.1201  0.0122 -0.3732
29200W        W45009  10.851   9.120  10.755 -0.5645  0.5281 -0.0844
29201W        W45010  11.334  16.662   0.184  0.5359 -0.3706 -0.0826
29202W        W45011   7.740   5.004  12.832 -0.0553 -0.1562  0.1212
29203W        W45012  13.332   2.472   0.023 -0.0265 -0.1444  0.1260
29204W        W45013  15.109   0.647  15.029  0.1154  0.0545  0.1933
29205W        W45014  17.760  15.765  13.711 -0.2469  0.2061 -0.0673
29206W        W45015   5.740  11.236   6.029  0.2653 -0.2497 -0.0186
29207W        W45016  18.327   0.912   0.306 -0.2461  0.2327  0.1287
29208W        W45017  17.186  11.733   2.656 -0.0516  0.0429 -0.0626
29209W        W45018   7.611  17.714   1.539  0.0362 -0.0102 -0.0451
29210W        W45019  13.181   0.337  10.713 -0.2555 -0.1080 -0.2057
29211W        W45020  12.500   4.512   3.726  0.1526 -0.0809 -0.5498
29212W        W45021   8.710   5.919  13.420 -0.2723 -0.0597 -0.3157
29213W        W45022   2.196  10.848  14.805 -0.1068 -0.2090 -0.3218
29214W        W45023  10.276   0.243  14.649 -0.0479 -0.2388  0.3808
29215W        W45024   6.225   7.616   1.835  0.3168 -0.0803 -0.0619
29216W        W45025   7.889  16.134   2.574  0.0454 -0.1668 -0.0430
29217W        W45026  16.242  11.604  12.416 -0.3842  0.1337  0.3592
29218W        W45027  13.288  16.411   2.381  0.2446 -0.0256  0.3103
29219W        W45028  18.070  15.033   3.037 -0.0823 -0.0526  0.2132
29220W        W45029  17.466   4.482   4.547 -0.1822 -0.4595 -0.1008
29221W        W45030  11.082  13.029   4.872  0.2557 -0.0600  0.0268
29222W        W45031   8.823   1.103   1.893 -0.1411 -0.3114  0.0498
29223W        W45032   2.848  12.606   4.563  0.4194  0.1642 -0.0179
29224W        W45033   2.679   3.799  12.790  0.0555 -0.1386  0.1179
29225W        W45034   3.732  18.583  11.554  0.1434 -0.0796 -0.2187
29226W        W45035  18.517  12.521   3.997  0.0753 -0.2299  0.0619
29227W        W45036  11.005  11.668   0.118  0.0200 -0.3362 -0.1403
29228W        W45037  14.679  17.980  13.129 -0.1197 -0.0028  0.0777
29229W        W45038  10.455  10.820   5.583  0.0657 -0.1224 -0.1610
29230W        W45039   6.868   7.855  15.557  0.1225 -0.1866  0.2855
29231W        W45040   1.008   1.343   0.607  0.2196 -0.1872 -0.1928
29232W        W45041   6.183   9.639  14.559 -0.0969 -0.2439  0.1885
29233W        W45042   0.704  15.415   0.503 -0.0320 -0.0622 -0.3684
29234W        W45043  16.379   6.690   3.544  0.0385 -0.0012  0.5176
29235W        W45044  10.428  17.058  14.645 -0.2079  0.1271  0.0909
29236W        W45045  11.685  11.151   3.844  0.1287  0.1276  0.1496
29237W        W45046  12.771  15.298  13.033  0.0618  0.0260 -0.0859
29238W        W45047   4.722   4.425  13.065 -0.0089  0.0294  0.2205
29239W        W45048  15.970  16.264   1.786  0.0324  0.2761  0.0560
29240W        W45049   8.096   2.127  15.245  0.1320  0.1158  0.0518
29241W        W45050  13.243   9.051   2.586 -0.2152  0.0470  0.2410
29242W        W45051  12.821  10.660   3.688 -0.0262  0.4051  0.2144
29243W        W45052  17.319  15.990   0.623  0.2452 -0.0348 -0.0521
29244W        W45053   4.056   3.921   2.563 -0.3249 -0.0710 -0.0528
29245W        W45054   5.359  13.492   2.402  0.1470  0.0924 -0.2861
29246W        W45055  16.119  18.539   3.132  0.1759 -0.0911  0.2562
29247W        W45056  11.406  14.329   2.169  0.0902  0.0433  0.0027
29248W        W45057   1.635   3.424   2.038  0.2077 -0.1340  0.2394
29249W        W45058   8.470  14.768  13.786  0.1016 -0.0278 -0.4290
29250W        W45059  13.527   7.226   3.078  0.0568  0.0310 -0.1551
29251W        W45060   5.478  10.914  12.073  0.0298 -0.0204  0.0302
29252W        W45061  17.958   4.746   2.558  0.2584  0.1306 -0.0513
29253W        W45062   4.444   8.599   2.570  0.4129  0.1078  0.0522
29254W        W45063  12.642  14.695  11.888  0.0395  0.1657  0.0996
29255W        W45064   7.804   7.234  11.198 -0.2311 -0.0731 -0.0807
29256W        W45065  11.306   5.404  13.835  0.1218  0.4003 -0.3698
29257W        W45066   4.821  15.216  13.805 -0.3653  0.0175  0.1401
29258W        W45067  13.594   8.317  13.262 -0.0220 -0.0858  0.1742
29259W        W45068  17.042   0.850   2.072 -0.0025  0.1458 -0.2576
29260W        W45069   1.531  16.604  14.030 -0.1959  0.1008  0.1351
29261W        W45070   3.276   6.047  12.011  0.2510 -0.3275  0.2821
29262W        W45071   0.387  12.108  11.399 -0.0205  0.2316 -0.1307
29263W        W45072  15.097   1.186  15.101 -0.0773  0.0433  0.1632
29264W        W45073  13.943   7.408  14.655 -0.1302 -0.3059  0.3384
29265W        W45074   4.462  15.138  12.824  0.0474  0.0696 -0.1242
29266W        W45075  10.456   0.875  11.117  0.1281 -0.2304 -0.1322
29267W        W45076   3.933   5.640   1.425 -0.1618  0.0390  0.3972
29268W        W45077   3.976  15.788  13.548 -0.0139 -0.2325  0.0267
29269W        W45078   3.345  11.521  14.365  0.2767 -0.0717  0.3185
29270W        W45079  13.943   7.241  11.095 -0.0039  0.1521 -0.2370
29271W        W45080   5.601  15.326   0.679  0.0172 -0.0653  0.0597
29272W        W45081   2.785  11.320  12.673 -0.1309  0.1779  0.2267
29273W        W45082   7.684  10.963   0.144  0.1456 -0.1293 -0.0188
29274W        W45083  12.333  17.916  13.263  0.3235 -0.1987  0.0324
29275W        W45084   4.706   7.701   0.128 -0.4273  0.2528  0.2937
29276W        W45085   2.926   7.756  14.860 -0.0564  0.1937  0.0760
29277W        W45086  18.330  11.336   2.607  0.0334 -0.0195  0.1956
29278W        W45087  14.936   2.105  10.613 -0.0036 -0.0960 -0.0262
29279W        W45088  17.809   7.080  10.935 -0.0563  0.0597 -0.1374
29280W        W45089  15.518  14.099   1.786  0.1929 -0.0438 -0.0416
29281W        W45090  10.422   1.469  12.218 -0.0909 -0.0287 -0.0503
29282W        W45091  10.938  15.708  12.350 -0.2149  0.0126 -0.0880
29283W        W45092  14.069   8.670  13.422 -0.0251  0.1093  0.4639
29284W        W45093  16.786   6.066   3.379 -0.0730 -0.1562  0.2240
29285W        W45094   5.801  18.773   4.248 -0.0223  0.0373  0.0515
29286W        W45095   1.929   3.826   3.412  0.2204  0.0591 -0.1617
29287W        W45096   1.424  13.646   4.716  0.0399 -0.1840 -0.2134
29288W        W45097   3.657   0.014  14.846  0.1979 -0.1460  0.1283
29289W        W45098   6.510   5.438  13.102  0.2194 -0.1817  0.0308
29290W        W45099   4.314   4.873  13.987  0.2982 -0.1659 -0.2730
29291W        W45100   2.221   2.532  15.171 -0.1800  0.2619  0.0261
29292W        W45101   4.440  12.745   3.778  0.1938 -0.5497 -0.1628
29293W        W45102   9.485  12.868   4.093  0.2276  0.5303 -0.3499
29294W        W45103   0.306   0.499   9.826 -0.3860  0.1669  0.2145
29295W        W45104  17.009   9.079  13.360  0.0154  0.3201  0.2494
29296W        W45105  15.889   8.471  11.656  0.2654 -0.3013 -0.0848
29297W        W45106   0.765  10.261  10.291 -0.0099 -0.3389 -0.2371
29298W        W45107  18.630   1.363   3.344 -0.2677 -0.0737  0.2321
29299W        W45108   8.537  13.023   2.745  0.2392  0.0699 -0.1232
29300W        W45109  17.373  11.700  11.718 -0.2463  0.1331  0.0751
29301W        W45110  12.148   4.431   1.744 -0.1060 -0.1736 -0.3248
29302W        W45111  18.770   1.896  13.819 -0.1296 -0.0625  0.0528
29303W        W45112  11.597   3.019   2.907  0.0397  0.0735 -0.2289
29304W        W45113  12.453   6.305   2.603  0.2357  0.0204  0.0133
29305W        W45114   0.490   5.168   3.287  0.0216 -0.4694 -0.0380
29306W        W45115  10.379   0.929   1.489  0.2389  0.1372 -0.3772
29307W        W45116   7.428   5.395  14.334 -0.0857  0.0908  0.2089
29308W        W45117   6.592   6.766   0.779 -0.0606  0.0691 -0.0213
29309W        W45118  10.135  15.626   4.453 -0.0542  0.1263  0.0685
29310W        W45119  11.315   0.559   0.009 -0.1984  0.1016  0.1747
29311W        W45120  12.029  16.964   1.516  0.0382  0.1247 -0.3773
29312W        W45121   6.329   8.692  10.077  0.1331  0.1350 -0.1248
29313W        W45122   6.087  10.843  12.483  0.1021  0.1600 -0.0308
29314W        W45123  17.214  10.690  11.339  0.0614  0.1003 -0.0824
29315W        W45124  17.048  14.781   5.106  0.0660  0.3451  0.3213
29316W        W45125   3.371  11.987  12.763  0.0483  0.0472  0.0824
29317W        W45126   9.745  10.405   5.554  0.0787 -0.1515 -0.0647
29318W        W45127  16.244  11.059   5.431 -0.0187 -0.1477 -0.2313
29319W        W45128   6.966   8.118  13.261 -0.0761 -0.0984 -0.5348
29320W        W45129   8.790  16.000   4.789  0.1861 -0.0650  0.3655
29321W        W45130  17.142  14.524  14.958 -0.0263 -0.2643 -0.3660
29322W        W45131  16.216   0.720   4.371 -0.2280  0.2664 -0.1421
29323W        W45132  12.491   1.674  14.933 -0.4137  0.0813 -0.0636
29324W        W45133  10.513   6.789  10.694  0.2706  0.0596 -0.0718
29325W        W45134   7.529   3.269   0.330 -0.4983  0.0379  0.3120
29326W        W45135  14.263   3.193   0.429 -0.1888  0.0713  0.1240
29327W        W45136   3.713   3.875   4.973  0.1160 -0.2696  0.3461
29328W        W45137  13.974   4.148   2.443  0.0333  0.1471  0.1356
29329W        W45138  15.634   3.463  15.151  0.0183  0.1475 -0.0468
29330W        W45139   4.210   3.911   3.828 -0.0724  0.1672 -0.4165
29331W        W45140   5.315   9.790   3.644 -0.0939 -0.2781  0.0620
29332W        W45141   1.596  13.737   3.475  0.1367  0.2508 -0.1881
29333W        W45142  13.419   9.755  13.252 -0.0200 -0.0684  0.1314
29334W        W45143  14.677   3.907  12.793  0.4438  0.1720  0.3802
29335W        W45144  13.072   0.552   0.975  0.3438 -0.1107  0.0198
29336W        W45145  10.119  10.115   3.870  0.0982 -0.0261 -0.4218
29337W        W45146  11.700   3.646   3.589 -0.0406 -0.2072  0.1969
29338W        W45147  15.841  12.857   0.599 -0.1579 -0.2501 -0.0669
29339W        W45148   6.847   1.783  12.094 -0.0517 -0.4772 -0.0506
29340W        W45149   6.626  12.111  14.996  0.1023 -0.0238  0.2243
29341W        W45150  15.865   2.288   2.476  0.0489 -0.1176 -0.0320
29342W        W45151  13.417  14.799   3.846  0.0651  0.1206 -0.2844
29343W        W45152  16.840   7.461  10.036  0.1110 -0.1905 -0.1024
29344W        W45153  11.061   8.280  11.565 -0.2752 -0.3530 -0.0668
29345W        W45154  16.768   4.811   3.289  0.3915  0.1317  0.1970
29346W        W45155  13.431   0.019   2.167 -0.0412 -0.2397  0.0660
29347W        W45156  17.703  11.284  12.857 -0.1223 -0.0800 -0.1186
29348W        W45157   1.947   0.957   2.868 -0.0917  0.1483 -0.2367
29349W        W45158   2.022  13.465   0.336  0.1654  0.2077  0.0148
29350W        W45159  13.859   1.002   2.773  0.1841 -0.2870  0.1099
29351W        W45160  10.323  10.279   0.762  0.1352 -0.1544  0.2000
29352W        W45161  12.982  10.176  11.071 -0.0371  0.0284  0.1342
29353W        W45162  17.206   0.869   3.799 -0.0917  0.1906 -0.1403
29354W        W45163   4.499   6.183   2.990  0.0875 -0.1136 -0.1318
29355W        W45164   7.345   4.378   0.766 -0.0442  0.3536 -0.0320
29356W        W45165  14.313  13.644  12.180  0.2777 -0.0074  0.1237
29357W        W45166   7.225   8.569   1.038  0.0092  0.0933  0.2806
29358W        W45167   8.353   5.356   0.617 -0.2036  0.1088  0.2120
29359W        W45168  11.712   9.432  15.417 -0.1411 -0.0574 -0.0538
29360W        W45169  18.477  12.441  13.415 -0.1318 -0.0291  0.0697
29361W        W45170   6.737   1.517  11.284 -0.0368  0.1132 -0.3693
29362W        W45171  10.794  16.053   4.974  0.0778 -0.0291 -0.0578
29363W        W45172   7.680   8.329   0.799  0.0520  0.0257  0.4395
29364W        W45173  13.217  14.744  14.511 -0.0869 -0.0589 -0.0138
29365W        W45174  17.613   3.046  13.980  0.2003 -0.3633 -0.0046
29366W        W45175   5.528   9.229  11.232  0.1100 -0.2827 -0.2249
29367W        W45176   4.167  16.335  14.071 -0.0954  0.4150 -0.1746
29368W        W45177   9.755   6.217   4.460  0.2327  0.2068 -0.1915
29369W        W45178  16.955   9.241  12.034 -0.0711  0.3605  0.1065
29370W        W45179   3.483   2.591   4.864  0.1958 -0.0322  0.0473
29371W        W45180   4.677   5.751   2.724 -0.1755  0.4020 -0.0334
29372W        W45181   3.776   1.188   2.824  0.0105 -0.1091 -0.1939
29373W        W45182  15.756  16.283  11.243  0.5367  0.1168  0.0399
29374W        W45183   6.194   8.837  15.286 -0.3556 -0.1926 -0.2352
29375W        W45184  16.980   5.252   3.055  0.0298 -0.1988  0.2839
29376W        W45185   1.195   6.347  12.912 -0.5237  0.2160 -0.1332
29377W        W45186   8.276  17.348   3.319  0.2295  0.0288  0.0876
29378W        W45187   9.152   5.654   2.587  0.0749 -0.1098 -0.1200
29379W        W45188  11.779   8.127  14.510 -0.0683 -0.2564 -0.0827
29380W        W45189   2.817  13.720   3.672  0.2002 -0.3066  0.2881
29381W        W45190   6.914  13.889  14.002 -0.5290  0.3358  0.1260
29382W        W45191   3.257  18.004   4.783  0.0440 -0.0069 -0.0004
29383W        W45192  14.918  13.859   3.061 -0.3385 -0.1383  0.0254
29384W        W45193   0.213  17.720   4.115 -0.0937 -0.3436  0.0781
29385W        W45194   1.680   3.541  14.464  0.0873 -0.3535  0.0141
29386W        W45195   8.150  17.340  10.655 -0.0343  0.1443 -0.2390
29387W        W45196  17.010   6.468  12.753 -0.0563  0.4871  0.1316
29388W        W45197  17.421  17.986   3.745 -0.2085 -0.0961 -0.0674
29389W        W45198   7.416   5.473  13.561 -0.0085 -0.4030  0.0798
29390W        W45199   7.789   0.792   3.933 -0.1257 -0.1964 -0.1337
29391W        W45200  14.940   4.031   3.611 -0.1636  0.1355 -0.0511
29392W        W45201   7.946  17.276  15.464 -0.4597 -0.0500  0.0147
29393W        W45202   5.891   8.046  14.659 -0.1730  0.3028  0.2651
29394W        W45203  10.783   8.390   9.468  0.1189  0.0680  0.1483
29395W        W45204   9.227  16.356  10.746 -0.1332  0.3618  0.1388
29396W        W45205   3.643   8.236   5.333 -0.0526 -0.1096  0.0974
29397W        W45206   8.455   0.080   0.487  0.1007 -0.0139  0.1040
29398W        W45207   3.286   9.906   4.088  0.1940 -0.2795 -0.2929
29399W        W45208  12.731  17.587   5.825  0.0505  0.4609 -0.0403
29400W        W45209  15.843  12.196  11.724  0.1411  0.2818  0.1520
29401W        W45210   9.459  16.592  11.553  0.0752  0.2021  0.1230
29402W        W45211  12.602   0.035  11.370  0.1077  0.1696  0.1383
29403W        W45212   0.058   5.138   1.386 -0.2726 -0.0027 -0.0812
29404W        W45213   7.897   4.766  15.136 -0.3761 -0.1011  0.0958
29405W        W45214  17.907   0.194   2.568  0.0841  0.3098  0.2995
29406W        W45215   4.818   0.327  12.551 -0.2719  0.2644 -0.1994
29407W        W45216  17.604  16.303  13.786 -0.3945 -0.0205 -0.2522
29408W        W45217   6.706   8.297   4.754 -0.0359  0.0420 -0.0155
29409W        W45218   1.774   9.650   2.172  0.0262  0.1347  0.1152
29410W        W45219  10.014   0.952  15.217 -0.2989 -0.0369  0.0319
29411W        W45220   7.649   2.149   5.878 -0.2708 -0.2720 -0.0784
29412W        W45221   1.330   1.692  10.945 -0.0538  0.2049  0.0891
29413W        W45222  17.012  12.623  13.825  0.3403  0.1293 -0.0571
29414W        W45223   3.693  13.207  10.218 -0.0549  0.1437 -0.1798
29415W        W45224  12.670   7.963  11.682  0.0486  0.0481  0.0784
29416W        W45225   6.176   8.417  13.718  0.0721  0.1573 -0.0136
29417W        W45226  14.368   2.599   3.325 -0.2077  0.0281  0.2157
29418W        W45227   8.670   4.511  11.960 -0.1657  0.0459 -0.0447
29419W        W45228   9.654   9.266   2.318 -0.0139 -0.4822  0.1462
29420W        W45229  11.383   7.826   4.039 -0.0863 -0.3040  0.3544
29421W        W45230  18.006  18.671  14.775  0.3512 -0.2766 -0.1480
29422W        W45231   5.043   1.512   4.846 -0.0698  0.2089 -0.0716
29423W        W45232  11.992   6.086   4.163 -0.0595  0.2275 -0.1036
29424W        W45233   9.524   8.874   0.012 -0.0601  0.1293 -0.2602
29425W        W45234   1.355   3.156   2.614  0.2911 -0.2493 -0.1062
29426W        W45235   5.347  11.711   3.365  0.1380  0.1638 -0.2734
29427W        W45236  16.311  17.982   3.615  0.0469  0.0835  0.0269
29428W        W45237   1.256  13.768   1.384 -0.0811  0.0734 -0.1598
29429W        W45238  14.796   7.531  14.234 -0.0724  0.0925  0.1775
29430W        W45239  15.770  16.078   3.968  0.2616 -0.2163 -0.1849
29431W        W45240  12.716  10.584  11.021 -0.0630  0.0976 -0.2260
29432W        W45241  18.502  11.753   3.656 -0.1174  0.2175  0.0990
29433W        W45242   9.856   9.787   1.875 -0.0590  0.1460  0.0430
29434W        W45243   1.997   5.081  11.883 -0.2153  0.2955 -0.0960
29435W        W45244   0.694   7.142  11.272  0.2035  0.1117 -0.2205
29436W        W45245   3.691  16.496  13.919  0.2034  0.0057  0.0315
29437W        W45246   0.667  13.475  10.759 -0.1620 -0.2241  0.0922
29438W        W45247  17.754  10.207   2.600 -0.0870 -0.2977 -0.2116
29439W        W45248   6.340  13.222   2.206  0.1000  0.0175  0.1751
29440W        W45249  16.167   2.199  10.127  0.1538 -0.0540 -0.1367
29441W        W45250  14.218  15.925  14.929  0.3180 -0.1038 -0.2645
29442W        W45251  15.865   2.630   4.880  0.1463  0.0853  0.1897
29443W        W45252   1.572   8.520  14.140 -0.0406 -0.1644  0.0048
29444W        W45253  12.506  15.569   0.674 -0.2678  0.1911 -0.1110
29445W        W45254  18.648  18.267  15.462 -0.0430 -0.1038 -0.0998
29446W        W45255  15.651   5.416  12.592 -0.4361  0.1390  0.1791
29447W        W45256   6.313   6.419  14.507  0.3273  0.3597 -0.2844
29448W        W45257  13.027  12.305  15.011  0.1089  0.3158 -0.2342
29449W        W45258   0.182  16.019   1.234  0.0699 -0.2893 -0.2059
29450W        W45259  12.193   2.863  11.826  0.0938  0.2333  0.1680
29451W        W45260  13.099   9.522   1.982 -0.0194 -0.1834  0.0187
29452W        W45261   1.492   9.419   9.709 -0.0125  0.2732 -0.3091
29453W        W45262   1.343  17.485   0.244 -0.2877 -0.1838  0.1586
29454W        W45263   8.046   9.429  14.601  0.1308  0.0302  0.0132
29455W        W45264   4.585   8.352   4.532  0.3043  0.3649  0.1739
29456W        W45265  14.412  13.333  12.609 -0.0031 -0.0740  0.0496
29457W        W45266  10.680   6.416  11.491 -0.1407 -0.0583 -0.2784
29458W        W45267  11.089   1.392  13.858  0.0883 -0.0390 -0.2329
29459W        W45268  11.470  13.151  13.269 -0.2635 -0.3124 -0.2561
29460W        W45269  15.261   4.481   3.714 -0.0790 -0.4090  0.2645
29461W        W45270  11.573   7.174   3.354  0.1946 -0.0803  0.0582
29462W        W45271  13.003  13.897  15.134 -0.1809 -0.0751  0.2217
29463W        W45272  11.409  13.993   1.573 -0.0474  0.0074 -0.1244
29464W        W45273  18.096   6.949  11.339  0.2283 -0.4135  0.0569
29465W        W45274  16.808   9.465   2.667  0.0221 -0.1463  0.2392
29466W        W45275   2.772  15.474   1.768 -0.0457  0.3127  0.5807
29467W        W45276  11.663   0.337  13.824  0.1372 -0.1310  0.1477
29468W        W45277  12.331  14.481   1.149 -0.0481 -0.0777 -0.0983
29469W        W45278   4.689   6.944  15.354  0.1923 -0.0737 -0.1655
29470W        W45279  10.530  18.166  11.283 -0.0850 -0.3159 -0.1037
29471W        W45280  18.064  12.721   1.068  0.0165  0.0323 -0.1703
29472W        W45281  14.742  14.745  10.904 -0.2581 -0.2497 -0.2048
29473W        W45282   8.645   3.497  14.507  0.1008 -0.2642 -0.2135
29474W        W45283  16.545   8.181  12.307  0.1765 -0.0910 -0.0029
29475W        W45284   8.843   6.691  14.132  0.1738 -0.2569  0.2311
29476W        W45285  14.514   0.511   1.386  0.0228 -0.0085  0.0477
29477W        W45286   5.364   8.991   0.094 -0.2070 -0.0739 -0.0298
29478W        W45287  14.947   5.392  14.474  0.0728  0.0480  0.0705
29479W        W45288  15.732   3.121  10.378 -0.0989 -0.2425 -0.0268
29480W        W45289   6.549  11.673   4.753  0.1144  0.1034 -0.0055
29481W        W45290  10.858  16.536  13.895 -0.0459 -0.0348 -0.1606
29482W        W45291  10.274   6.944  15.045 -0.3812 -0.0782  0.0699
29483W        W45292   8.888   5.715  12.965 -0.0320  0.0368 -0.2573
29484W        W45293   9.774  18.429   1.601  0.1866 -0.0873 -0.1436
29485W        W45294  11.854   9.259  13.228 -0.0779 -0.0611  0.2000
29486W        W45295  14.971  18.604   1.658 -0.1832  0.1597 -0.1769
29487W        W45296  10.651  18.596   3.542  0.1655 -0.0154  0.0455
29488W        W45297   1.394   4.533   1.447 -0.0293 -0.3162 -0.2431
29489W        W45298   9.744  14.906   5.374  0.0483  0.1536  0.0878
29490W        W45299  12.096  13.770  11.703  0.0245 -0.0843  0.0252
29491W        W45300   1.413   7.968  11.752  0.1773 -0.3627 -0.0189
29492W        W45301   4.296  13.046   4.424  0.0369  0.1315  0.0858
29493W        W45302  10.563   5.309  10.113  0.0823  0.0338 -0.1328
29494W        W45303   1.703   8.304  10.041  0.1005 -0.0456 -0.1500
29495W        W45304   6.602   9.316   4.776  0.1589 -0.0776 -0.1689
29496W        W45305  14.723  16.228   5.326 -0.0327 -0.0168  0.2640
29497W        W45306  14.025  14.155   2.405  0.0518 -0.1662 -0.0023
29498W        W45307  15.922  17.901   5.059 -0.1268 -0.1715 -0.1146
29499W        W45308  17.837   7.580  13.028  0.3645  0.1114  0.0344
29500W        W45309  16.500  11.973   4.327 -0.3320  0.4479  0.1545
29501W        W45310  11.565   9.565  12.757 -0.0109  0.0720 -0.4510
29502W        W45311  10.670  12.438  14.932  0.0922  0.0989  0.1191
29503W        W45312   1.958  11.666   1.340 -0.2742  0.1030  0.1639
29504W        W45313   4.126  13.100  12.115  0.3551  0.0160 -0.1206
29505W        W45314  13.318  16.067   0.911  0.1968 -0.0255 -0.3718
29506W        W45315  10.448  17.595   5.564 -0.3051 -0.1162 -0.1319
29507W        W45316   4.882   9.294   3.376  0.0034  0.0101  0.1461
29508W        W45317  12.988  11.166  11.144 -0.0756  0.0606  0.0400
29509W        W45318   8.849  16.429  11.444 -0.0318  0.0438  0.0696
29510W        W45319   5.203  13.725   0.382 -0.0562  0.2339 -0.0963
29511W        W45320   7.296   0.643  12.867 -0.1479  0.0182  0.2108
29512W        W45321   6.554   8.956   0.664  0.0028  0.0273 -0.1066
29513W        W45322   5.811  12.321  11.188 -0.0484 -0.1198 -0.1075
29514W        W45323   3.647   6.033   4.732 -0.0667 -0.0778 -0.0037
29515W        W45324  12.680  16.836   1.253  0.1164 -0.2693 -0.0453
29516W        W45325   7.687  15.334   4.149 -0.2322  0.0482 -0.1848
29517W        W45326  17.214  16.369  12.395  0.2185 -0.3115 -0.1718
29518W        W45327   8.567   1.886  12.671 -0.0449  0.0369 -0.0017
29519W        W45328  18.594  16.644   3.562  0.1663  0.1743 -0.0119
29520W        W45329  10.218  16.317  11.067  0.0010  0.4001 -0.4233
29521W        W45330   7.396   9.393  13.634 -0.2159  0.3044  0.1918
29522W        W45331  15.070  15.479   3.863  0.1334 -0.0796 -0.1589
29523W        W45332   8.963  10.816   4.185  0.1273  0.0545 -0.0008
29524W        W45333   4.806   6.296  13.836  0.0197  0.1503  0.0506
29525W        W45334   5.328  16.823   2.674 -0.0665 -0.0424 -0.0283
29526W        W45335  12.578   5.612   0.760 -0.4248 -0.0149  0.0400
29527W        W45336   0.390  10.548  13.347  0.0254  0.0437  0.2344
29528W        W45337  11.698  10.546   4.604  0.0117  0.0200  0.0320
29529W        W45338   0.922   6.489   3.251 -0.0647  0.0658  0.3841
29530W        W45339  15.672   4.656  11.371  0.0280 -0.0961  0.0346
29531W        W45340  15.892   4.601   1.323 -0.0081 -0.0399 -0.2556
29532W        W45341   5.162  18.731   0.867 -0.0573  0.1225  0.1536
29533W        W45342   0.098  18.138   4.463  0.1693  0.0005 -0.0448
29534W        W45343  13.083   0.490  11.638 -0.1843 -0.0500 -0.2691
29535W        W45344  11.913  16.212  14.288  0.2487  0.1372 -0.0428
29536W        W45345   1.629  15.164  13.174  0.0105 -0.1184 -0.0123
29537W        W45346   5.776   9.626  11.116  0.1085  0.1172 -0.2263
29538W        W45347   9.260  13.747   4.198  0.0142 -0.4028 -0.3136
29539W        W45348   4.455   1.325   3.964  0.4537 -0.3964  0.1226
29540W        W45349  17.068  12.103  11.932 -0.1605 -0.1024 -0.1032
29541W        W45350  16.610  17.873  14.407 -0.1239 -0.0344 -0.0069
29542W        W45351  18.550  17.858   3.060  0.3948 -0.1414  0.0323
29543W        W45352   7.728  15.764   1.061 -0.1945  0.0909 -0.1151
29544W        W45353  13.137  17.002   0.925  0.3107 -0.0224  0.2325
29545W        W45354  16.283   0.589   5.301 -0.0251 -0.3012 -0.0213
29546W        W45355  13.544   9.355  12.200 -0.4561 -0.1990  0.2905
29547W        W45356  10.812  17.201   0.708  0.1160 -0.2510 -0.0175
29548W        W45357   8.580   4.810   4.073  0.0216  0.0271 -0.3372
29549W        W45358   5.094   5.400  14.850 -0.0531  0.0165 -0.2603
29550W        W45359  12.592  10.287   0.759  0.1200  0.3850  0.0475
29551W        W45360   1.975   1.176  15.301 -0.1388 -0.0256  0.0932
29552W        W45361   0.998   1.507   4.190  0.2882 -0.1813 -0.0717
29553W        W45362   3.578  17.195  12.680 -0.1883  0.1284  0.0756
29554W        W45363  10.041   0.854  13.522 -0.1529  0.5091  0.2830
29555W        W45364   3.499   4.397  10.404  0.0689 -0.0408 -0.0306
29556W        W45365   2.796   1.403  11.054 -0.2567 -0.0781  0.1044
29557W        W45366   1.926  16.276   1.049 -0.1192 -0.0581 -0.0727
29558W        W45367  18.639   4.675  14.217 -0.0924 -0.0829  0.0499
29559W        W45368  11.287  11.094  12.749  0.2861 -0.1380 -0.2587
29560W        W45369   5.307  18.697   1.782  0.1629 -0.2173 -0.0585
29561W        W45370  18.378  13.692  13.920 -0.0960  0.1337  0.1206
29562W        W45371  15.190   3.320   4.197  0.1333  0.0325  0.3035
29563W        W45372  11.931  11.664  15.496  0.4054 -0.0114 -0.2171
29564W        W45373  15.027   2.892   4.624  0.1364  0.1148  0.1654
29565W        W45374   8.600   1.488  10.214  0.0900 -0.2782  0.1678
29566W        W45375  17.913  16.965   2.214  0.3051  0.0079 -0.0916
29567W        W45376   0.395  14.737  12.156  0.1464 -0.0572 -0.3854
29568W        W45377   1.583   5.201   4.555  0.0780  0.1297 -0.0431
29569W        W45378  18.708  12.908   0.256 -0.0089  0.3426 -0.1227
29570W        W45379   5.829   3.142   2.329  0.2527 -0.2999 -0.0922
29571W        W45380   1.018   6.797   2.889  0.0173 -0.0359  0.0464
29572W        W45381   4.625  16.751  12.209  0.1847  0.4173 -0.0874
29573W        W45382  16.429   4.369  13.396 -0.0337 -0.0464 -0.2623
29574W        W45383   8.273   2.972   5.686 -0.0916 -0.2826 -0.3228
29575W        W45384   7.035  17.323   4.234  0.0850 -0.0650 -0.0750
29576W        W45385   6.455  10.428   0.110 -0.2913 -0.0514  0.2585
29577W        W45386   7.036  16.452   4.321  0.0556  0.0904 -0.0831
29578W        W45387   1.432   5.553   0.896  0.4490 -0.1388 -0.2621
29579W        W45388   7.073   7.443  14.407 -0.2660 -0.3864 -0.2082
29580W        W45389  12.402  17.288   1.438 -0.2261  0.1036  0.4070
29581W        W45390  10.555   1.979   6.169  0.0940  0.0381  0.1364
29582W        W45391   6.668   6.511  14.829 -0.1074  0.1321  0.0389
29583W        W45392   8.376   4.672   2.778  0.3211  0.3521 -0.0689
29584W        W45393  14.649  13.151   1.128 -0.0356 -0.0118  0.0640
29585W        W45394   7.830  16.047   3.554  0.1783  0.0265 -0.1387
29586W        W45395  11.834  10.896  14.782 -0.1427 -0.0465  0.0590
29587W        W45396  15.719   7.522  12.261 -0.0411  0.0240  0.2365
29588W        W45397  10.624  13.777  11.708 -0.0615  0.1486  0.1405
29589W        W45398  16.451  11.802   0.480  0.1587  0.3904  0.1576
29590W        W45399   1.215  11.116  10.523  0.0240  0.0901  0.0360
29591W        W45400  15.222  15.232   5.553 -0.1534  0.3944 -0.0022
29592W        W45401   8.195   5.010   0.958 -0.1129 -0.1064 -0.3120
29593W        W45402   6.163  14.770  10.865  0.0848 -0.1775  0.1582
29594W        W45403   9.474  13.613   3.339  0.3552  0.2247  0.1147
29595W        W45404   0.784   1.161  14.428  0.2393 -0.0824 -0.1326
29596W        W45405   3.650  11.901   9.643 -0.4437 -0.3272  0.2675
29597W        W45406   3.106   4.197  12.055 -0.2394 -0.0191  0.0320
29598W        W45407  16.178  11.202   3.830  0.2827 -0.2603 -0.0164
29599W        W45408  17.442  11.163  14.870 -0.2044  0.2817  0.0177
29600W        W45409   9.350  10.288   1.270  0.3326 -0.0451 -0.0455
29601W        W45410   9.716   6.937  13.099 -0.0504 -0.0474 -0.0174
29602W        W45411   4.919  18.738   4.259 -0.2121  0.3834  0.1609
29603W        W45412  10.820  11.179  13.023  0.3383 -0.0305  0.2004
29604W        W45413  14.931   5.454   4.679 -0.1016 -0.3933  0.2782
29605W        W45414   2.562   5.825   1.768  0.1496 -0.1845 -0.1658
29606W        W45415   0.356  10.886   2.378  0.0867 -0.1084 -0.2340
29607W        W45416   4.334  18.236   0.480  0.3041  0.1376  0.1161
29608W        W45417  10.026  16.331   1.240  0.0162 -0.3141 -0.3385
29609W        W45418   2.013   4.767   4.460  0.0314  0.3203 -0.1259
29610W        W45419   3.155   7.426   5.118 -0.1174 -0.1527  0.3371
29611W        W45420   9.564  13.457   0.376 -0.0206  0.2444 -0.1227
29612W        W45421   1.930   7.819  12.171  0.2161 -0.0008 -0.0030
29613W        W45422   0.249  15.722  14.419  0.3592 -0.1006  0.0169
29614W        W45423  18.408   8.413   3.020 -0.2570  0.0127  0.2754
29615W        W45424  18.763  15.724  13.972  0.1041 -0.0597  0.3546
29616W        W45425   3.020  13.035  13.781  0.1311 -0.0837  0.1320
29617W        W45426   3.858  16.097   0.276 -0.1524  0.4666 -0.2510
29618W        W45427   7.505  11.557  15.362 -0.0146 -0.1446  0.0971
29619W        W45428   1.739   7.285   2.116  0.0833  0.0427 -0.0145
29620W        W45429   4.384   9.978  14.053  0.0040  0.3060  0.1385
29621W        W45430  10.241  14.667   0.647 -0.0245 -0.3310 -0.2360
29622W        W45431  10.222  13.631  14.709 -0.3723  0.0876 -0.1293
29623W        W45432  11.228   0.697   1.038 -0.0714 -0.0935  0.1252
29624W        W45433   5.142   4.449  15.121  0.1977 -0.3284 -0.0694
29625W        W45434   5.730  12.868  10.109  0.4393 -0.0209  0.1315
29626W        W45435   4.973  12.548  12.473 -0.1605 -0.2494 -0.2418
29627W        W45436   8.251  12.072   2.810  0.3096  0.1047 -0.0065
29628W        W45437  13.244   9.165   5.650  0.1529 -0.0170  0.1472
29629W        W45438   4.616  15.997   1.834 -0.2176  0.1747 -0.0608
29630W        W45439   9.307  11.364   4.863 -0.1754 -0.0594 -0.1181
29631W        W45440  12.594  10.203  10.628  0.2796 -0.1326  0.1750
29632W        W45441   7.870   5.379   0.736  0.2638 -0.3726  0.2424
29633W        W45442  17.858   8.679   0.148 -0.0704 -0.1471  0.1081
29634W        W45443   2.169   8.670  11.475 -0.2697 -0.0915  0.1235
29635W        W45444   2.749   9.597  12.400 -0.1315  0.0779 -0.1684
29636W        W45445  12.676  14.267  11.128  0.0096 -0.4751  0.2013
29637W        W45446  15.309   4.265   5.584  0.0016  0.4652  0.0817
29638W        W45447  17.143   3.565  11.334  0.1605  0.1660 -0.4158
29639W        W45448  14.067  15.737   4.607 -0.0756 -0.0558  0.0239
29640W        W45449  17.288   5.809  10.203  0.0055  0.0147  0.0387
29641W        W45450  16.991   1.728   1.730  0.0718  0.2799  0.0549
29642W        W45451   7.065  15.499   2.718  0.0539 -0.1285 -0.0237
29643W        W45452   8.325   3.037   1.191 -0.0622 -0.2727  0.2092
29644W        W45453   5.194  15.398  14.164 -0.0352  0.1232  0.2280
29645W        W45454  16.640  14.489  15.134  0.3069  0.0411 -0.1399
29646W        W45455  18.581   1.036  12.452 -0.1511  0.2424 -0.1729
29647W        W45456   3.275  15.498   0.177  0.0549 -0.0478 -0.2747
29648W        W45457  17.189   5.729   5.018 -0.0829  0.1756  0.0772
29649W        W45458  14.796  11.965  11.768 -0.1992 -0.2869 -0.2757
29650W        W45459   1.460  14.313  12.714  0.2532  0.1926 -0.2917
29651W        W45460  13.806  15.232   5.072 -0.1711  0.0884 -0.0849
29652W        W45461  12.438  10.329   3.900  0.2277 -0.1555  0.1353
29653W        W45462   6.722  12.722  15.526 -0.1261 -0.0900  0.1449
29654W        W45463  13.975  11.233   1.025 -0.1718  0.3051  0.2172
29655W        W45464   6.645   1.277   2.038 -0.0402  0.1539 -0.1791
29656W        W45465  12.578   0.093   4.760 -0.0267  0.3723 -0.0819
29657W        W45466  14.010   0.643   0.187 -0.1656  0.1138  0.1388
29658W        W45467   6.335   0.229  14.878 -0.1167 -0.1444  0.0726
29659W        W45468   8.240  15.208  13.622 -0.0151 -0.0317  0.1538
29660W        W45469   3.916  10.744   0.976  0.1248 -0.0036  0.1203
29661W        W45470  13.106  14.104   5.898  0.0759 -0.1391  0.0397
29662W        W45471   4.462  14.185  13.723 -0.2429  0.0674  0.0018
29663W        W45472   1.574  13.968  12.314  0.0957 -0.1505 -0.0672
29664W        W45473   3.721   8.397  14.789  0.0371  0.1507 -0.1076
29665W        W45474   7.420  15.747  15.210  0.2548  0.3795 -0.2132
29666W        W45475   6.708  13.444  13.994  0.0692 -0.1504  0.3286
29667W        W45476  17.178  15.347  13.071 -0.1652 -0.2661 -0.1716
29668W        W45477  14.344   9.973   0.562 -0.1045 -0.0758  0.0229
29669W        W45478   8.371   0.645  14.779  0.0653  0.2433  0.2253
29670W        W45479  10.340  18.635  12.213  0.1959 -0.2780  0.0098
29671W        W45480   7.338   1.467  12.877  0.0701 -0.2620  0.1247
29672W        W45481   0.502   3.340  13.183  0.0145  0.3477 -0.2184
29673W        W45482  10.447  14.018  15.105  0.2223 -0.1567  0.3395
29674W        W45483   9.931   0.609  11.134 -0.0200 -0.0732 -0.1770
29675W        W45484  16.923  17.088   2.858  0.3793  0.0048  0.0249
29676W        W45485   4.126   1.731   1.221 -0.1542 -0.0829  0.3017
29677W        W45486  17.798  10.770  14.965  0.0888  0.2793 -0.0820
29678W        W45487   3.952  14.094  13.626  0.1761 -0.1880  0.2985
29679W        W45488   8.045  13.343  14.398 -0.0689 -0.1476  0.1256
29680W        W45489   5.932  16.570   1.476  0.1171 -0.1666  0.0600
29681W        W45490  13.986   2.431   4.814  0.1779 -0.0686 -0.1135
29682W        W45491  12.969   7.362  12.433  0.1545  0.0594 -0.0769
29683W        W45492  18.280  17.369   0.284 -0.1154  0.1019 -0.0877
29684W        W45493  18.702   3.988  11.880 -0.0442  0.0341  0.0124
29685W        W45494   9.366   6.844   5.497  0.1278  0.0030  0.5457
29686W        W45495   8.126   5.497  12.261  0.0716 -0.1664  0.1580
29687W        W45496   0.002  16.023   5.058  0.2239  0.0080  0.0911
29688W        W45497   3.260  16.011   4.165  0.1912  0.1127 -0.0788
29689W        W45498   2.999  15.430   4.922  0.0659  0.0839 -0.3338
29690W        W45499  12.054   0.094  14.586  0.0714 -0.1602 -0.0897
29691W        W45500   9.154  11.983  13.453  0.3821 -0.0153  0.0622
29692W        W45501  10.314   6.170   5.151  0.0790 -0.2343  0.4188
29693W        W45502  16.284   9.298   0.583 -0.0510  0.0342  0.0450
29694W        W45503  16.426   4.342  12.866  0.3524 -0.1159  0.1719
29695W        W45504  15.615  12.265  15.354 -0.0348  0.3975  0.1617
29696W        W45505  14.657  15.795   4.610 -0.1138  0.0107  0.0950
29697W        W45506  13.342  10.531   1.054 -0.1449  0.0930 -0.0092
29698W        W45507  12.317  15.747  14.244 -0.0825 -0.0328 -0.2261
29699W        W45508  17.271  13.572   3.170 -0.0789 -0.3076  0.1380
29700W        W45509   8.528  16.181   3.241 -0.2653 -0.0140 -0.2787
29701W        W45510  17.425  14.128  11.695  0.0631 -0.0412  0.0739
29702W        W45511   1.496  18.311   4.361  0.0341 -0.0504  0.0834
29703W        W45512  17.016   2.389   2.862  0.1715 -0.3502  0.0147
29704W        W45513  18.530  17.068  12.596  0.1577 -0.0859  0.2229
29705W        W45514   4.117  16.114   4.696  0.1250  0.0157 -0.3101
29706W        W45515  10.248   6.390  12.388  0.0128  0.0485 -0.2401
29707W        W45516  16.673  13.187   0.973  0.0390 -0.0001  0.0766
29708W        W45517  15.585   8.859  13.206  0.1730 -0.2238  0.0508
29709W        W45518   1.630  17.234   3.911  0.0067 -0.5444 -0.1087
29710W        W45519   0.079  18.359   1.245  0.2786  0.0181 -0.0958
29711W        W45520  17.965   8.465  10.949 -0.5415  0.1076 -0.0072
29712W        W45521  16.563  13.743  11.653 -0.1495 -0.1809 -0.1350
29713W        W45522   8.147  14.503  15.559 -0.1659  0.1259  0.1519
29714W        W45523   8.486  10.368   3.108  0.0619 -0.0507 -0.2705
29715W        W45524   6.634   7.941  11.661 -0.2450 -0.1343 -0.4384
29716W        W45525   0.443  18.042  12.532 -0.2005 -0.1193  0.1348
29717W        W45526   6.883  12.503   4.677 -0.3649  0.1573 -0.0286
29718W        W45527  17.138   7.363  14.894  0.1281  0.2502  0.0589
29719W        W45528   0.042  14.517   5.727  0.3262 -0.0575 -0.0233
29720W        W45529  15.563  12.465   1.945 -0.1345 -0.4591 -0.1603
29721W        W45530   3.783   4.995  14.049 -0.0631 -0.2700  0.0249
29722W        W45531   9.081   1.065   1.035 -0.1466 -0.0833 -0.1566
29723W        W45532   6.120   0.218  13.894  0.1533 -0.1076 -0.0079
29724W        W45533  14.935   9.994  14.287 -0.0246 -0.1446  0.1419
29725W        W45534   9.284   3.248  13.202  0.2032 -0.0631  0.0677
29726W        W45535   5.715   1.343   1.320  0.0960 -0.2110  0.2273
29727W        W45536   7.663  18.020   5.035 -0.2070  0.1029  0.0725
29728W        W45537   6.508  10.562   1.185  0.0545 -0.0950 -0.4321
29729W        W45538   7.732  14.162  10.469 -0.0837 -0.3455  0.0248
29730W        W45539   3.454  15.243   1.502 -0.0488  0.1491  0.0094
29731W        W45540   6.823   5.541   1.032 -0.0352  0.2276 -0.1440
29732W        W45541  11.829  18.541  13.125 -0.0531 -0.2594  0.0943
29733W        W45542   2.211   0.640  11.381  0.0382 -0.0472  0.4063
29734W        W45543   5.149   1.448  14.087 -0.1465  0.0460  0.3145
29735W        W45544  15.726   6.362   0.968  0.5302 -0.2794  0.1529
29736W        W45545  16.987   7.707  13.362  0.1593  0.1723 -0.2202
29737W        W45546  10.181  12.269   3.910 -0.0311 -0.0716  0.0009
29738W        W45547  14.723   7.300  10.383 -0.0613  0.0111  0.1642
29739W        W45548  11.771  14.454  12.484 -0.1569 -0.2012 -0.2368
29740W        W45549   9.401   4.620  11.488  0.1758  0.1460  0.0982
29741W        W45550   3.859   6.955   0.529 -0.1119 -0.2065 -0.1119
29742W        W45551  11.315   9.189  13.141 -0.1856 -0.3923  0.2652
29743W        W45552   7.077   4.144  14.393 -0.2986 -0.2884  0.0655
29744W        W45553   8.426  14.176  13.732 -0.2352  0.0730  0.0018
29745W        W45554   0.765  18.514   2.578  0.1256 -0.1212  0.0878
29746W        W45555   6.844   5.885  13.980  0.6570 -0.0583  0.0710
29747W        W45556  18.149  18.751   2.950  0.1647 -0.0025 -0.0763
29748W        W45557  16.473   7.743  13.193 -0.0382 -0.0700  0.2996
29749W        W45558  11.968   2.550   4.174 -0.1742 -0.1405 -0.1390
29750W        W45559   2.959  14.591   1.195 -0.2055  0.2302 -0.1348
29751W        W45560  16.387  10.436  11.651 -0.1576 -0.2574  0.0482
29752W        W45561   1.718  17.239  13.206  0.2042 -0.1848 -0.3399
29753W        W45562   8.830  17.725   3.575 -0.1514 -0.0012 -0.1230
29754W        W45563   9.406   6.857  12.625 -0.0945  0.0878 -0.0023
29755W        W45564   1.045  13.670  11.077  0.1459  0.3850  0.1295
29756W        W45565   2.558  14.731   3.605 -0.2425 -0.2207 -0.2729
29757W        W45566   9.458  15.013   3.250  0.0925  0.0094 -0.2594
29758W        W45567  14.383   5.363   3.016  0.1099 -0.3490  0.2415
29759W        W45568   2.761  18.190  10.968  0.1031 -0.1585 -0.1907
29760W        W45569   3.307   8.577  15.244 -0.1909  0.2387 -0.1271
29761W        W45570   4.418  10.818  12.822  0.1035  0.3773  0.0734
29762W        W45571   5.750  15.565  10.464 -0.0812  0.4640  0.0433
29763W        W45572   0.908   3.556   3.306 -0.0565  0.0039 -0.0561
29764W        W45573  15.545   5.883  12.757  0.0871 -0.0490 -0.0976
29765W        W45574  10.213  12.790   4.897  0.0203  0.1404 -0.0518
29766W        W45575   2.578   9.216  14.848  0.0472 -0.2881  0.2389
29767W        W45576  17.367   6.299   5.899  0.1355 -0.0350 -0.0878
29768W        W45577   0.231   5.479   4.131  0.0213 -0.1279 -0.0468
29769W        W45578   9.050   8.873   4.641  0.0360 -0.0345  0.0819
29770W        W45579   6.226  12.309  11.557 -0.1767  0.1423  0.0294
29771W        W45580  11.283   0.408  14.144  0.0606  0.1454 -0.3205
29772W        W45581  13.757  12.829   2.152  0.1729 -0.2028 -0.0917
29773W        W45582   2.519  14.232  13.526 -0.1382  0.2532 -0.3355
29774W        W45583  11.806   2.153  15.178  0.2996 -0.1545  0.0215
29775W        W45584   0.332   3.208   2.832  0.0884  0.2865 -0.1344
29776W        W45585   6.120   6.525   5.997  0.3748  0.2491 -0.1965
29777W        W45586  16.068  13.914   1.177 -0.1349 -0.0238  0.1767
29778W        W45587  11.874  17.540   4.294  0.0978 -0.0433  0.0494
29779W        W45588  17.839  17.501  12.538  0.0430 -0.0874  0.1895
29780W        W45589   8.590   9.243   4.571 -0.2160 -0.3892 -0.0670
29781W        W45590  12.632  18.140  15.561 -0.2081 -0.1460 -0.0543
29782W        W45591   9.875   5.177   4.062 -0.0309  0.0525 -0.1359
29783W        W45592   0.408   7.235  11.788 -0.1053 -0.1613  0.1824
29784W        W45593   7.199  15.657   2.296 -0.2831  0.1421  0.5498
29785W        W45594  14.874   9.725   0.667 -0.6837 -0.2709  0.3061
29786W        W45595  11.125   2.980   4.200  0.0147 -0.0850 -0.2924
29787W        W45596   1.833   0.583   3.827 -0.1345  0.1224 -0.0561
29788W        W45597  11.079   6.407   0.256 -0.1446  0.0659 -0.0140
29789W        W45598   2.586   1.329   1.556  0.1193  0.2686 -0.2492
29790W        W45599  14.909  14.092  11.843  0.1495  0.0678 -0.3394
29791W        W45600  10.802   1.917   0.389  0.3339  0.2004  0.1451
29792W        W45601  13.253  13.264   2.691  0.2335  0.0719 -0.2701
29793W        W45602  12.635   2.399   2.113 -0.0832  0.3049 -0.3431
29794W        W45603   3.728  13.898   4.053 -0.1719 -0.2129  0.3432
29795W        W45604  13.143  17.802  13.734  0.3628 -0.0551  0.1255
29796W        W45605  18.403  17.150  14.448 -0.4524  0.2407 -0.1073
29797W        W45606  16.112   0.869   3.813  0.0371  0.3570 -0.3038
29798W        W45607  18.229   0.504   0.675 -0.3575  0.2488 -0.2435
29799W        W45608  12.913   5.138   0.140 -0.0772  0.0229  0.3771
29800W        W45609  11.559   5.981   2.803 -0.0595 -0.1949  0.0653
29801W        W45610  13.359  18.349  10.717 -0.0580  0.0262  0.1613
29802W        W45611   3.291   9.367   2.981 -0.3259 -0.2379  0.1227
29803W        W45612   0.475   6.442  13.592 -0.4820 -0.1262  0.0440
29804W        W45613   1.579  18.682  15.507  0.2206  0.1807  0.1778
29805W        W45614   0.169   5.976  15.240  0.0765  0.2470  0.1729
29806W        W45615   2.986  13.577  13.853 -0.3775  0.0967 -0.4115
29807W        W45616   7.573   1.435  13.759  0.3229  0.1801 -0.0439
29808W        W45617  15.491  18.325  15.315  0.0094 -0.0552  0.2086
29809W        W45618  10.604   9.062  11.334  0.2643  0.2976  0.2195
29810W        W45619   9.062  12.413   4.094  0.2525 -0.1682 -0.0171
29811W        W45620  10.473   4.752   3.827 -0.0763 -0.0577  0.1093
29812W        W45621  10.430   3.603  13.937 -0.0766 -0.0364  0.0478
29813W        W45622  17.331  17.271   0.413  0.0022 -0.0538  0.2638
29814W        W45623  14.868  16.478   3.761 -0.2006 -0.1719  0.0015
29815W        W45624   0.426   6.895  12.212  0.0682  0.0029  0.0738
29816W        W45625  16.639   5.750  12.214 -0.2001 -0.2037  0.0698
29817W        W45626  16.632   0.550   1.956  0.0499  0.2874 -0.1048
29818W        W45627   2.915   5.805  13.319 -0.2602  0.0029 -0.1169
29819W        W45628  13.699   3.295   1.242 -0.0048 -0.0397 -0.0605
29820W        W45629   8.082   6.973   3.477 -0.2949  0.2312  0.0163
29821W        W45630   1.850   6.623  13.499  0.0734 -0.2038  0.4381
29822W        W45631  13.548  13.394   0.158  0.2857 -0.0179  0.0123
29823W        W45632  11.186   3.348   2.934 -0.2825 -0.0937 -0.1731
29824W        W45633   3.931  12.048   5.261 -0.2735  0.4080  0.4873
29825W        W45634   2.746  13.252  15.078 -0.0287  0.2223  0.0468
29826W        W45635   9.809   1.028  11.489  0.0765  0.1734  0.2494
29827W        W45636  18.698   7.017   0.547  0.0484 -0.0535  0.0519
29828W        W45637  17.732   6.406  10.665 -0.0658 -0.1814  0.2406
29829W        W45638   8.770  14.419  10.618 -0.1376 -0.0153 -0.1116
29830W        W45639   0.242   6.042   1.697  0.0527 -0.0140  0.0915
29831W        W45640  12.728  14.697   0.191  0.1546 -0.2877  0.1027
29832W        W45641   8.134   4.464   0.034  0.1496 -0.0730 -0.1584
29833W        W45642   7.244   6.740  11.584  0.0491 -0.0069  0.0901
29834W        W45643  14.600   1.641   0.661 -0.0391 -0.1298  0.1265
29835W        W45644   7.839  10.667   1.426 -0.0998 -0.1828 -0.3966
29836W        W45645  15.696   4.788  14.191 -0.0081 -0.1068 -0.0874
29837W        W45646  10.392  17.427  15.009 -0.0097 -0.1387 -0.4873
29838W        W45647  15.992  18.044  13.705 -0.1555  0.0455  0.1345
29839W        W45648   5.028  15.522  14.665  0.2230 -0.1497  0.1420
29840W        W45649   0.475   0.060   5.155 -0.0044  0.1367 -0.1599
29841W        W45650   8.933  16.904  11.522  0.0253 -0.0447 -0.3424
29842W        W45651   8.465   4.883  11.052 -0.0492 -0.0118 -0.0084
29843W        W45652   5.653   8.876  11.609  0.1712 -0.0902  0.1475
29844W        W45653   5.371   9.659   2.731  0.1835 -0.0258 -0.0318
29845W        W45654   0.799   0.359   0.645 -0.0712  0.1748 -0.1157
29846W        W45655   7.836   7.867  15.487 -0.1449  0.1886  0.3239
29847W        W45656  13.996   7.351  12.197  0.0978 -0.1599  0.0575
29848W        W45657  13.045   8.625   1.932  0.0607  0.3608  0.2244
29849W        W45658  12.162  11.076   4.058 -0.0844 -0.1087 -0.2168
29850W        W45659   0.169   2.879   3.215  0.1423 -0.0193  0.1883
29851W        W45660  17.704   2.866   1.323 -0.1781 -0.0661  0.0156
29852W        W45661   6.244  12.792   1.461  0.4575  0.1613  0.2063
29853W        W45662   5.315  10.236   1.061  0.0574  0.0787  0.2187
29854W        W45663   6.383   2.214   0.506  0.0393  0.1032  0.3167
29855W        W45664  13.205   7.378   5.313  0.0674  0.0171  0.1451
29856W        W45665  16.295  18.299   2.735 -0.0364 -0.0838  0.0573
29857W        W45666   9.963   0.098  12.401 -0.0856  0.0213 -0.2014
29858W        W45667  13.575   8.149   2.217  0.0072  0.0968  0.3074
29859W        W45668   7.710   8.663   4.764  0.2082  0.3326  0.3272
29860W        W45669  12.110  10.133   1.025 -0.1081 -0.2229 -0.1192
29861W        W45670   8.891   8.141  11.470  0.6471 -0.2124 -0.1212
29862W        W45671  13.036  18.719  13.687 -0.0741  0.0681  0.0148
29863W        W45672  13.357   3.195  14.961  0.2095 -0.2265  0.2935
29864W        W45673   7.473   0.062  14.048  0.1683  0.4467  0.0371
29865W        W45674  12.093   2.891  11.223  0.0869  0.3140 -0.2678
29866W        W45675  14.555   1.956  13.232  0.0125  0.2024  0.3427
29867W        W45676  17.106   5.041  11.534  0.0585  0.2178  0.0490
29868W        W45677  14.333   7.861   1.982 -0.1529 -0.2451  0.2210
29869W        W45678   7.407  15.208   0.001 -0.1545 -0.2780  0.0461
29870W        W45679  12.884  11.851  11.147  0.3585  0.0680 -0.3761
29871W        W45680  11.769  10.707   2.443  0.2631 -0.0780 -0.2909
29872W        W45681  17.568   7.698   4.684  0.1471 -0.2147 -0.1291
29873W        W45682   1.830   4.027   3.839 -0.2427  0.2046 -0.0731
29874W        W45683   5.278   7.694  13.148 -0.0129  0.1689  0.2762
29875W        W45684   4.650   2.972  10.864  0.1730 -0.1473  0.0170
29876W        W45685   8.784   1.107   1.415 -0.0223  0.1394  0.0118
29877W        W45686  13.440  17.146   0.475  0.0429 -0.1353 -0.2729
29878W        W45687   6.234   7.039   1.039 -0.1366  0.2241  0.1520
29879W        W45688  17.935   5.282   0.793 -0.0414 -0.4164 -0.1770
29880W        W45689   2.200   6.703   3.186  0.1923 -0.2184  0.1235
29881W        W45690   7.801  14.383   4.549  0.0905  0.0053 -0.0073
29882W        W45691   5.804  10.773   4.727  0.0094  0.2763 -0.1086
29883W        W45692   6.009  12.266  12.044 -0.1684 -0.0026 -0.0865
29884W        W45693  13.470  10.675  14.912  0.2005 -0.1176 -0.1255
29885W        W45694   6.853   9.520   0.116  0.0325 -0.3168 -0.1124
29886W        W45695  18.360  11.166   3.554  0.1339  0.0994  0.0186
29887W        W45696   7.195   1.807   2.032  0.3885  0.0710 -0.2820
29888W        W45697   8.336  18.210  12.542  0.1330  0.0258  0.3049
29889W        W45698   6.955  10.490  12.244  0.0538 -0.3412 -0.0480
29890W        W45699  16.838   4.473   2.864 -0.0935  0.0093 -0.1437
29891W        W45700   6.479  17.222  11.316  0.0512 -0.0385 -0.1474
29892W        W45701   3.766  15.790  12.273  0.0571  0.1550 -0.2240
29893W        W45702  15.869   5.606  12.120  0.0227 -0.0206 -0.1064
29894W        W45703   1.200  17.088  12.026 -0.2239 -0.2688  0.0727
29895W        W45704   8.246   0.967  14.210  0.1788 -0.1161  0.1952
29896W        W45705   5.850   6.771  12.135 -0.0856 -0.1904 -0.1336
29897W        W45706  12.900   9.601  12.473  0.0934 -0.0454  0.2864
29898W        W45707  17.894   4.127   1.729  0.1413 -0.0452  0.1382
29899W        W45708   8.625   0.675   4.235  0.2072  0.3243  0.2751
29900W        W45709   7.478   7.223  13.821 -0.0822  0.0308 -0.1213
29901W        W45710  14.382   4.335   1.679  0.0384 -0.0183  0.0795
29902W        W45711  10.058   3.888   4.251 -0.2834 -0.0633 -0.0660
29903W        W45712  15.899   7.372   1.547  0.1950 -0.1814  0.0936
29904W        W45713  18.719   0.431  12.196 -0.0222  0.2576  0.4174
29905W        W45714   0.022  15.687  15.375  0.3447  0.3955 -0.1758
29906W        W45715   0.250  15.820  11.273  0.1476  0.1942 -0.3426
29907W        W45716   1.873  16.267  11.774  0.2241 -0.1380 -0.0895
29908W        W45717  13.420  10.048  14.689  0.1488  0.2286 -0.1548
29909W        W45718  14.542   8.560   5.037 -0.0576 -0.1817  0.0970
29910W        W45719  12.347  11.426   5.151 -0.1147  0.0008 -0.3486
29911W        W45720   9.042   3.854   0.262  0.1321  0.2128 -0.1815
29912W        W45721  10.134   8.549  11.848 -0.3352  0.0971 -0.1044
29913W        W45722   2.560  16.733  13.348 -0.0903 -0.0249  0.2464
29914W        W45723   7.301  18.158  12.370  0.0775  0.1111  0.0280
29915W        W45724   8.863  12.820  13.349  0.5637  0.1399 -0.4320
29916W        W45725   6.533  14.741  11.354 -0.0998  0.1328 -0.1933
29917W        W45726   8.654  16.177   2.233  0.1521 -0.4131 -0.1167
29918W        W45727   4.532   6.936  13.209  0.1316  0.0535 -0.0419
29919W        W45728   2.667   0.890  12.564  0.3281 -0.3043  0.1817
29920W        W45729  13.012  13.895  11.275 -0.1635  0.0818  0.2331
29921W        W45730   9.872   1.711  15.082  0.1088 -0.2484 -0.1771
29922W        W45731  18.034  11.879  11.060  0.0757 -0.1890 -0.0215
29923W        W45732   8.226  12.171   9.716 -0.0670  0.1106  0.2154
29924W        W45733   8.723   3.394   1.082 -0.2320 -0.2884 -0.1660
29925W        W45734   2.270  15.393  14.975 -0.0164 -0.2483 -0.2045
29926W        W45735   2.487   9.917   3.042  0.0799 -0.1292 -0.0531
29927W        W45736   2.990   6.534   9.762 -0.2911 -0.0163  0.0633
29928W        W45737   2.397  10.233   2.559  0.1664  0.4228 -0.0841
29929W        W45738  12.377   5.610   1.175 -0.1922 -0.1179 -0.0355
29930W        W45739   9.128  14.635  10.912  0.0354 -0.0311  0.0964
29931W        W45740  18.017  10.224   3.324 -0.2848 -0.3846 -0.0954
29932W        W45741  10.405  17.161  10.729 -0.0480 -0.4212  0.1406
29933W        W45742   9.433   8.384  10.798  0.1683 -0.1689 -0.4596
29934W        W45743  10.242  13.814  13.832 -0.0467 -0.0519 -0.1335
29935W        W45744  10.083   7.968  15.444  0.0602 -0.0131 -0.2393
29936W        W45745  12.723  11.693  12.301  0.0779 -0.1731  0.0360
29937W        W45746   4.346  12.710  12.253  0.2465 -0.0357 -0.0030
29938W        W45747  12.632   8.059  14.215  0.0967 -0.1314  0.2518
29939W        W45748   9.089   2.312   1.546  0.2320  0.1191  0.0160
29940W        W45749   5.907   8.629  11.249  0.0623  0.3389 -0.0549
29941W        W45750  14.916  13.414  11.442 -0.1152 -0.0937  0.0176
29942W        W45751  13.349   5.876   1.121  0.0326  0.0491 -0.0204
29943W        W45752   4.547   2.541   0.281 -0.0078 -0.2019  0.1125
29944W        W45753   6.909  17.616  14.160 -0.0796 -0.2430  0.0218
29945W        W45754   2.249  12.525  14.745 -0.2597 -0.1032  0.2876
29946W        W45755  12.659   7.574   5.329  0.1890 -0.0631  0.2073
29947W        W45756   7.672  13.286  13.922  0.0839  0.3205 -0.1362
29948W        W45757   4.541   0.807   4.439 -0.0393 -0.1150 -0.2372
29949W        W45758  15.964   8.865   3.937  0.0711 -0.1416  0.0262
29950W        W45759   3.248  14.052   3.633 -0.0328 -0.2377 -0.1590
29951W        W45760   1.448   8.280  11.092  0.0886 -0.0273 -0.2528
29952W        W45761   5.092  16.689   1.134 -0.0434 -0.2622 -0.2269
29953W        W45762   6.558   7.770   2.723  0.1014  0.0606  0.1290
29954W        W45763   0.708   9.080   0.592 -0.2001  0.2163 -0.0162
29955W        W45764   8.597  14.603   1.972 -0.0377  0.0053 -0.3402
29956W        W45765  14.060  16.180  13.307  0.2987 -0.0840 -0.1321
29957W        W45766   6.143  15.564  11.491  0.0316  0.3259 -0.1112
29958W        W45767   6.891   4.835  14.989  0.0257 -0.1205  0.1142
29959W        W45768   6.808   9.654  13.127  0.0376  0.1286 -0.1206
29960W        W45769   6.834   8.547  12.243 -0.1229  0.1198  0.2859
29961W        W45770   4.675  16.655  10.711  0.0740  0.2533  0.2012
29962W        W45771  13.558   9.487   0.477 -0.1211  0.0006  0.2141
29963W        W45772  16.086  16.450   4.139  0.1651  0.1716  0.0740
29964W        W45773  11.806  18.542   3.298  0.3434 -0.1972 -0.2466
29965W        W45774   2.368   0.026   3.230  0.2531  0.1413 -0.1524
29966W        W45775   3.673   0.320   2.018  0.1735  0.2451  0.0659
29967W        W45776  11.125   1.719  13.444  0.0686 -0.1804 -0.2000
29968W        W45777   8.918   1.418  15.276  0.0855  0.0405  0.1512
29969W        W45778   2.924   9.005   1.447  0.0412  0.0735 -0.0287
29970W        W45779  14.275   3.419   6.288 -0.2091  0.2531  0.0808
29971W        W45780   6.680  15.239  14.240 -0.0255  0.0085  0.3920
29972W        W45781   5.879   4.994  14.317  0.3632 -0.3411  0.0050
29973W        W45782   2.926  16.858   1.810 -0.3153 -0.1461 -0.0858
29974W        W45783  11.634   7.821   1.944  0.0522 -0.0802 -0.3095
29975W        W45784  13.553  16.064  10.804  0.3606 -0.2547  0.4352
29976W        W45785   9.840   0.376   5.015 -0.0666 -0.1401 -0.0555
29977W        W45786  11.675   4.647   3.076 -0.2595 -0.5515  0.0758
29978W        W45787   6.753   0.939   0.461  0.0505 -0.1351 -0.2314
29979W        W45788   0.432   3.337  14.749 -0.1731 -0.0238  0.0643
29980W        W45789  13.842  10.768  11.006  0.1078  0.3662 -0.0597
29981W        W45790  15.494  17.313  13.567  0.0899 -0.1768 -0.1979
29982W        W45791  14.278   9.753   1.806  0.0625  0.0726 -0.1535
29983W        W45792   2.952  10.827   0.666  0.0080 -0.0963 -0.0269
29984W        W45793  11.335  16.914  14.798 -0.2591  0.4106 -0.0960
29985W        W45794  13.936   2.393  10.903  0.4105  0.1982  0.1291
29986W        W45795   0.213   8.386   0.846  0.1870  0.0379 -0.1287
29987W        W45796  12.395   1.579   2.522 -0.1351  0.1493  0.1121
29988W        W45797   6.685  11.044   4.258  0.1788 -0.0449 -0.1833
29989W        W45798   9.739  10.124  15.155 -0.2725 -0.0867  0.1356
29990W        W45799  13.670   2.502  14.939 -0.0839 -0.1078  0.1068
29991W        W45800   1.467   0.732   2.819 -0.1368 -0.0024 -0.2634
29992W        W45801   8.093   5.423  11.216  0.0313  0.0427  0.1551
29993W        W45802  18.078  14.924   3.548  0.2707 -0.1360 -0.2139
29994W        W45803   8.584  10.411  10.740  0.0976 -0.2837 -0.1219
29995W        W45804  11.193  18.484   0.295 -0.3147  0.0441 -0.0657
29996W        W45805   6.636  10.666   5.810  0.0983 -0.0670 -0.0910
29997W        W45806  16.494   3.006   3.538 -0.4239  0.1020  0.1607
29998W        W45807   0.392  17.278   0.458  0.4709  0.1087  0.1782
29999W        W45808  14.635   3.989   6.221  0.1309 -0.3488 -0.5231
30000W        W45809   7.781  13.990   3.131 -0.1674  0.0686 -0.2574
30001W        W45810  11.741   0.414  11.113  0.4370 -0.0600  0.2400
30002W        W45811   1.860   5.769   0.402  0.1205  0.1179 -0.1131
30003W        W45812   6.523  16.700   1.504 -0.1985  0.2160  0.0648
30004W        W45813   8.795   8.310  14.740 -0.0252 -0.1715  0.1683
30005W        W45814   1.639  15.108   1.174  0.1180  0.3912 -0.0151
30006W        W45815   9.545  18.197   3.329  0.0296 -0.1472  0.2820
30007W        W45816   0.155   5.176   0.578 -0.0832 -0.3909  0.1846
30008W        W45817  12.283   0.934  13.757 -0.1701 -0.0930  0.3058
30009W        W45818   4.107   8.857   5.885 -0.2935 -0.0897 -0.2238
30010W        W45819  18.216   6.495  15.443  0.3687  0.1675 -0.3679
30011W        W45820   7.208   9.541  12.227  0.2241 -0.4919 -0.1089
30012W        W45821  13.443  13.854   3.728  0.2367 -0.0679  0.1580
30013W        W45822  12.952  17.044   0.473  0.1378  0.2366  0.2043
30014W        W45823  16.738   5.530  15.285  0.1447  0.4481 -0.0714
30015W        W45824  17.904  12.386  11.306  0.1542 -0.0578 -0.0867
30016W        W45825   4.419  16.966  11.419  0.0843  0.0433  0.3525
30017W        W45826  12.942  14.625   3.697  0.0297  0.1625  0.1400
30018W        W45827   2.889  15.928   1.876 -0.0302 -0.1017  0.0710
30019W        W45828  10.623  13.114   1.433 -0.0181  0.0288 -0.0466
30020W        W45829  12.328   3.750  12.162 -0.0440 -0.0197 -0.0854
30021W        W45830  17.461  18.397   2.218  0.2512  0.1664 -0.2394
30022W        W45831  17.852  11.588   1.371 -0.1152  0.0112 -0.1529
30023W        W45832  13.094   9.266   9.694  0.4137 -0.0999  0.0548
30024W        W45833   5.309   9.061  12.381  0.3177  0.1408 -0.1443
30025W        W45834  16.204  12.309   3.050 -0.0362 -0.0333  0.1398
30026W        W45835   6.987  11.859   2.218 -0.0615 -0.1532 -0.0907
30027W        W45836   6.716   0.052  13.339 -0.1643  0.0570  0.1717
30028W        W45837  14.512  15.542  12.219 -0.1977 -0.0859 -0.0042
30029W        W45838  12.121  16.511   5.599 -0.1769  0.2272  0.2341
30030W        W45839  11.100  16.418  14.786 -0.0865 -0.0917  0.3056
30031W        W45840   1.364  12.346  13.581  0.0979 -0.3334 -0.0229
30032W        W45841   3.645  10.672   1.908  0.1198  0.0882  0.1187
30033W        W45842   9.467  18.574  13.465  0.0283  0.1527 -0.1150
30034W        W45843  13.768   7.913  15.536  0.0463 -0.3032  0.1171
30035W        W45844   1.862   8.477  13.114 -0.0664 -0.1841 -0.1143
30036W        W45845   1.103   9.983  13.655  0.0169  0.3628 -0.1935
30037W        W45846  18.209  11.264  15.118 -0.0315  0.1110 -0.0175
30038W        W45847  16.243   2.217   5.106  0.1365 -0.2861 -0.1214
30039W        W45848  13.634  16.042   4.768 -0.0805 -0.2326 -0.3240
30040W        W45849  11.848  10.634   5.520 -0.1077 -0.0479  0.2251
30041W        W45850   4.511  14.233   1.504  0.0960 -0.0830  0.0900
30042W        W45851  17.301  10.794  13.293  0.0165  0.1573  0.1643
30043W        W45852   8.379   7.399   2.147 -0.0100 -0.2003 -0.0115
30044W        W45853   0.610   8.891  13.724  0.2677  0.0502  0.0850
30045W        W45854   8.958   8.214  10.932  0.0133 -0.2687  0.1208
30046W        W45855  11.975  15.390   4.157 -0.0203  0.2173 -0.0999
30047W        W45856   3.725  16.253  12.445  0.1561  0.3097 -0.0247
30048W        W45857   4.655   6.547   1.548 -0.0276 -0.1010 -0.0064
30049W        W45858  14.756  12.861   4.913  0.1364 -0.3050  0.1691
30050W        W45859   4.586  15.778   3.585  0.0006  0.1277 -0.1498
30051W        W45860   3.628   2.457   3.116 -0.3100  0.0066 -0.0139
30052W        W45861  11.463  12.956   1.145  0.0410  0.0654 -0.1717
30053W        W45862   4.265   3.712   2.104 -0.1462  0.0697 -0.1688
30054W        W45863   3.808  11.338   0.428 -0.1794  0.2849  0.0546
30055W        W45864   2.947  11.284   0.502  0.0231 -0.1340 -0.1380
30056W        W45865   0.428   8.051  11.719  0.3927  0.3005  0.0857
30057W        W45866  10.811  12.819   0.795 -0.0152 -0.1760 -0.2084
30058W        W45867  16.895  17.967   2.644  0.1425  0.1936  0.0657
30059W        W45868   9.025   6.235  12.831 -0.3163  0.2374 -0.0559
30060W        W45869  12.855   8.192   6.111  0.0145 -0.2633 -0.2689
30061W        W45870  12.108  15.699  13.327 -0.4286  0.1876  0.2337
30062W        W45871   2.652   7.255   2.435 -0.1060  0.1056  0.1743
30063W        W45872   2.259  17.767  10.453  0.1778  0.1590  0.0170
30064W        W45873   9.942   8.941  12.435  0.0661 -0.1594 -0.3737
30065W        W45874   4.412   5.379   2.354 -0.0922 -0.3576  0.3012
30066W        W45875  18.339  13.511  10.831 -0.2407  0.1241  0.0836
30067W        W45876   3.253  12.414   4.499 -0.1543 -0.0109  0.0214
30068W        W45877   8.190   9.658   5.209 -0.0103 -0.0388  0.1135
30069W        W45878   3.454  15.558   4.335  0.0357 -0.1577 -0.1545
30070W        W45879   7.713   4.643   2.972  0.1429 -0.0474  0.1138
30071W        W45880  13.579   5.908  12.270 -0.0175 -0.0204 -0.1350
30072W        W45881   7.428   4.690  15.032 -0.1123  0.0605 -0.1293
30073W        W45882  13.770   1.290  10.461 -0.0888 -0.3056  0.1729
30074W        W45883   3.583  10.029  12.659 -0.2486  0.0279 -0.0007
30075W        W45884  17.657  10.133   1.533  0.2810 -0.2311  0.0625
30076W        W45885   1.312   8.271   2.356  0.1096  0.1388 -0.1323
30077W        W45886  15.972  10.615   0.620  0.1915  0.2127 -0.0042
30078W        W45887  10.038  13.332   2.144 -0.0003 -0.0732 -0.0633
30079W        W45888   7.711  10.975   4.099 -0.0158 -0.1100  0.2259
30080W        W45889   6.067   3.847  12.912 -0.0507 -0.1199  0.0073
30081W        W45890   0.310  16.837   4.416 -0.0981  0.0439  0.0944
30082W        W45891   8.208  17.186  12.658  0.0539  0.1126  0.1153
30083W        W45892   8.700  18.208  10.852 -0.2562  0.1978 -0.1843
30084W        W45893  16.137   9.666  15.167  0.2337  0.1550  0.1735
30085W        W45894  16.946   3.405   2.847  0.0051  0.4484  0.0552
30086W        W45895   2.401   5.738   2.257 -0.3477 -0.0743 -0.2316
30087W        W45896   9.996   1.287  13.254  0.0431 -0.1935 -0.1570
30088W        W45897   7.075  15.139   1.056 -0.1995  0.2797  0.2047
30089W        W45898  11.967   2.703   3.367  0.2850 -0.0820  0.1671
30090W        W45899  15.325  13.123  11.525 -0.0167  0.1168  0.2729
30091W        W45900   9.616  11.315   4.518 -0.0168 -0.1697 -0.1211
30092W        W45901  13.939   5.549   5.584 -0.1638  0.0114  0.1214
30093W        W45902  16.783  12.915  14.380  0.3313  0.3808  0.1453
30094W        W45903   2.319   4.775   4.826 -0.1078 -0.3600  0.0206
30095W        W45904  11.920  16.337  13.589  0.0419  0.2976 -0.0619
30096W        W45905   1.086   4.355  14.692 -0.0454 -0.2415 -0.0566
30097W        W45906  13.803   9.500  13.519 -0.1851  0.1344 -0.0256
30098W        W45907   6.617   2.167  14.532  0.1270 -0.0681  0.1382
30099W        W45908   7.376  18.001   0.061 -0.0796 -0.0814 -0.1830
30100W        W45909   1.589  16.908   2.238  0.2480  0.1024  0.3283
30101W        W45910  14.311  18.372  12.447  0.2948 -0.3210  0.0361
30102W        W45911  12.754   1.517  12.162  0.0683  0.0250  0.0621
30103W        W45912   6.400   7.095  10.912  0.1449  0.0365 -0.0213
30104W        W45913   5.782   0.596  12.489 -0.0785 -0.0836 -0.0223
30105W        W45914  13.984  17.436  15.309 -0.0279 -0.0239  0.1347
30106W        W45915  15.899  17.190  12.617  0.1547  0.2614  0.3224
30107W        W45916   1.724  15.088  13.937  0.1314 -0.0311 -0.1508
30108W        W45917  11.654   0.032  14.254  0.4058  0.1352  0.0523
30109W        W45918  13.347   9.230   0.880 -0.2031  0.0534  0.2419
30110W        W45919  18.369  15.208   5.238  0.5337 -0.0862  0.0967
30111W        W45920   8.656   8.735   1.094 -0.2602 -0.1592 -0.1134
30112W        W45921  18.670  12.307  12.931  0.4292  0.1039 -0.0591
30113W        W45922  11.684   1.978   0.245  0.1649  0.0612  0.1630
30114W        W45923   7.240  14.644  14.501  0.3997  0.0675 -0.0710
30115W        W45924  12.318  16.918  13.102 -0.1494  0.0962 -0.0103
30116W        W45925   1.807  13.561  10.158  0.1297  0.0242  0.1060
30117W        W45926   1.849   9.380   1.292 -0.2141 -0.0580  0.2067
30118W        W45927   2.361  12.192  10.613  0.1736 -0.0659 -0.3619
30119W        W45928   3.272   3.198   2.517  0.1777 -0.0739  0.2908
30120W        W45929   4.690  11.770   2.005 -0.1559  0.2765  0.0730
30121W        W45930  16.207   3.618   4.065  0.0950 -0.0596  0.1025
30122W        W45931   9.220  12.339  12.034  0.0918 -0.1076 -0.0301
30123W        W45932  17.304   5.595  12.869  0.1379  0.0253 -0.1686
30124W        W45933   8.088  16.120   2.088  0.1699 -0.0405 -0.0844
30125W        W45934   6.233   5.462  13.537  0.0589 -0.3362  0.3035
30126W        W45935  17.899  12.667   1.596  0.0629  0.0548  0.0824
30127W        W45936   5.503  11.406  13.325 -0.1356 -0.1139  0.0963
30128W        W45937  14.407   2.788   1.694 -0.2706 -0.0642 -0.1136
30129W        W45938  17.375  18.500  11.863  0.1006  0.2097  0.0691
30130W        W45939   7.831  16.961   4.552 -0.0468  0.1513  0.2557
30131W        W45940   2.403  10.157  11.593 -0.0213 -0.1895 -0.0838
30132W        W45941   4.462  17.123  14.722 -0.2583 -0.2108  0.2477
30133W        W45942  17.079  14.718   1.740  0.0714  0.1616  0.2840
30134W        W45943   6.789   2.222  12.327  0.0199  0.0290 -0.1857
30135W        W45944   4.773  14.822  14.140 -0.0204 -0.2257 -0.3839
30136W        W45945  18.343  12.108  13.785 -0.2484  0.0583  0.1105
30137W        W45946   2.706  11.308  11.819 -0.0588 -0.4072 -0.1608
30138W        W45947   8.029  13.309  10.536  0.0466 -0.1368 -0.2217
30139W        W45948  14.021  10.927   4.097  0.1567 -0.1398  0.0069
30140W        W45949  11.985  18.020  14.373 -0.0200  0.2602 -0.1222
30141W        W45950  18.339   6.873   2.493 -0.0407 -0.0824 -0.0573
30142W        W45951   3.622  18.779  15.361 -0.2096 -0.0385 -0.1019
30143W        W45952  15.336   1.072  12.527 -0.0648  0.0878 -0.1037
30144W        W45953  17.939   4.560  15.049 -0.0781 -0.2073 -0.2534
30145W        W45954   8.291   8.324   5.508 -0.1717 -0.2520  0.5170
30146W        W45955  18.598   4.809   0.535  0.1714  0.0178  0.0306
30147W        W45956   2.303  13.632   4.068 -0.1952 -0.4359 -0.2172
30148W        W45957   7.492  11.071  13.332  0.0160 -0.0046  0.3866
30149W        W45958  11.476  11.223  13.601  0.1623 -0.2041 -0.0838
30150W        W45959  14.595  10.744   2.883  0.1637  0.1246 -0.2003
30151W        W45960  11.482  16.229   5.580 -0.0546  0.4984 -0.0088
30152W        W45961   2.218   3.815   1.250 -0.0689 -0.0694  0.0191
30153W        W45962  12.956   3.300  14.682  0.2184 -0.2446  0.3105
30154W        W45963   0.166   5.913  12.382 -0.0104 -0.2663 -0.0023
30155W        W45964   8.845  14.716   5.925 -0.0363  0.1963 -0.3244
30156W        W45965   2.265  14.620  12.533  0.0952  0.2822  0.0567
30157W        W45966  13.142  11.323  12.462 -0.1418  0.2482  0.2233
30158W        W45967   7.986   3.766  15.005  0.0134  0.4058  0.1949
30159W        W45968  18.165  14.958  13.043  0.2239 -0.1668  0.1870
30160W        W45969   3.743   1.761  11.601 -0.0173 -0.1646  0.2014
30161W        W45970  14.425   8.703  12.248 -0.0393 -0.0102  0.1017
30162W        W45971   6.638  15.845   2.448 -0.1031 -0.1080  0.1541
30163W        W45972   4.253  13.993   4.242 -0.1228  0.0791 -0.4245
30164W        W45973  11.631  17.419  12.524  0.0495  0.1120  0.3587
30165W        W45974   6.757  15.894  10.560 -0.2374 -0.0136 -0.0644
30166W        W45975   1.829   2.096   0.133  0.0330  0.1107  0.1984
30167W        W45976  17.201   0.226  12.792 -0.3526  0.3072  0.0260
30168W        W45977   8.251  10.831  10.858  0.1712  0.0046  0.3708
30169W        W45978   2.665   4.666   5.151  0.0721 -0.3042  0.3304
30170W        W45979   9.044  16.477   0.328  0.2335 -0.0668 -0.3926
30171W        W45980   2.447   3.854   4.675 -0.1326 -0.0055 -0.2397
30172W        W45981   4.291  16.856   2.752 -0.3370 -0.3961  0.2958
30173W        W45982   1.173   1.675   4.974  0.2494  0.0990 -0.1099
30174W        W45983   5.220  16.809   9.851 -0.0568  0.1949  0.3033
30175W        W45984  12.336  17.923  11.358 -0.1356  0.0558 -0.2865
30176W        W45985  10.828  16.675   0.300 -0.0955  0.0638  0.1367
30177W        W45986  16.117  13.083   3.822  0.1915  0.0018 -0.1984
30178W        W45987   2.258  10.262   3.584 -0.2307  0.0115 -0.3500
30179W        W45988   9.422   1.373   1.342  0.0696 -0.0380  0.1171
30180W        W45989  16.752   5.896   2.377 -0.1267  0.0839 -0.0583
30181W        W45990   5.655   7.954   0.236  0.1544 -0.2476  0.1935
30182W        W45991  10.135  17.421  14.575  0.2648  0.0039  0.0272
30183W        W45992   3.695  17.808   2.565 -0.0384  0.2686 -0.3059
30184W        W45993  14.533   1.216   2.775 -0.2840 -0.1033 -0.1186
30185W        W45994  13.106  13.087   0.018  0.0759  0.2316  0.1079
30186W        W45995  18.514  18.004   2.575 -0.0038  0.0924  0.0594
30187W        W45996  14.205   0.025  13.717 -0.3143 -0.2921 -0.2619
30188W        W45997  10.678  10.420   0.501  0.0142 -0.1888  0.1594
30189W        W45998   9.444  12.722  14.138 -0.0188  0.2055 -0.0442
30190W        W45999  10.489   3.751  12.287  0.1297 -0.2303  0.1654
30191W        W46000   7.076  17.800  11.472  0.1293 -0.1327  0.1863
30192W        W46001  10.176   3.938   1.976  0.2922 -0.0094 -0.0139
30193W        W46002  11.299  17.145  10.990 -0.0825  0.0299 -0.2433
30194W        W46003   7.387   9.036   4.879 -0.1224 -0.1041 -0.1328
30195W        W46004  10.703   5.712  12.665  0.1910  0.1421 -0.0523
30196W        W46005   8.457   5.994   4.576 -0.0613  0.1670  0.0169
30197W        W46006  13.931   2.509  13.312  0.1197  0.1611 -0.1216
30198W        W46007  18.101   9.782  11.582 -0.2277 -0.4653  0.0555
30199W        W46008   9.260  15.222  14.891 -0.4377  0.1659  0.0339
30200W        W46009   3.920   2.694   4.599  0.2226  0.0420  0.1800
30201W        W46010  12.834  10.645   4.609  0.0044  0.1611 -0.1423
30202W        W46011  10.286   5.668  14.576  0.0334 -0.0560  0.1693
30203W        W46012  13.698   5.973  11.060  0.0935 -0.2867  0.1164
30204W        W46013   9.285  11.872   4.866  0.0405 -0.2188  0.0552
30205W        W46014  10.924  11.955  14.567  0.0853  0.0424  0.2421
30206W        W46015   7.488   5.568   4.430 -0.4233 -0.0471  0.0129
30207W        W46016  15.917   4.309   9.882 -0.3692  0.0810  0.0179
30208W        W46017   6.164   1.492   0.532  0.0014 -0.0846  0.2333
30209W        W46018  18.067   8.832   0.987 -0.0716  0.1988 -0.0188
30210W        W46019   2.055  16.421   1.907  0.0855  0.2598  0.2227
30211W        W46020   2.134   5.466  13.913 -0.2333  0.4315  0.3104
30212W        W46021   5.037   2.879  13.128 -0.1507  0.1951 -0.1947
30213W        W46022  17.675  10.800   2.618  0.3262 -0.1826  0.2335
30214W        W46023   4.901   3.032   2.098 -0.3080  0.2598 -0.1787
30215W        W46024   3.941   7.992   1.430  0.0033  0.1536 -0.2009
30216W        W46025  17.215  11.910  13.480  0.0184  0.0161  0.0244
30217W        W46026   7.723  13.227  15.494  0.1709  0.2961  0.1288
30218W        W46027  10.995  16.118  11.504 -0.1847 -0.2844  0.0430
30219W        W46028  15.423  16.509   0.763 -0.0104  0.1309  0.0271
30220W        W46029   3.358  11.346   0.183  0.1357 -0.1187 -0.0522
30221W        W46030   6.135   3.107  11.259  0.0372 -0.0957 -0.2117
30222W        W46031   3.626   1.214  11.015  0.1299  0.0027 -0.1672
30223W        W46032  17.388  18.659   2.901 -0.4228 -0.3323  0.0899
30224W        W46033   7.384   7.927  10.913  0.0347  0.0006 -0.0558
30225W        W46034   6.295  18.155  11.140  0.0817  0.0165 -0.0584
30226W        W46035   7.829   1.073  13.996  0.2185 -0.1941  0.2586
30227W        W46036   6.783  15.734  14.699 -0.0996  0.1095 -0.0327
30228W        W46037   1.910  11.513   3.531  0.1820  0.1460 -0.2081
30229W        W46038  10.385  11.576  13.104 -0.2688 -0.1499  0.2037
30230W        W46039   9.428  11.025   4.109  0.1918 -0.2109 -0.1170
30231W        W46040   8.424   7.834  13.665 -0.0451  0.0720  0.3581
30232W        W46041  13.218  12.279  12.554 -0.1856  0.1667  0.0213
30233W        W46042   0.760  18.079  15.530  0.1905 -0.1746 -0.0598
30234W        W46043   2.776  13.578   2.368 -0.0346  0.1611  0.0621
30235W        W46044   2.740  15.308  14.730  0.1710 -0.0882  0.0253
30236W        W46045   5.431   4.654   3.448  0.0747  0.0254  0.1177
30237W        W46046   9.189   6.858   4.356  0.3240 -0.0525  0.1186
30238W        W46047  16.304   1.561  14.631 -0.1329  0.0405 -0.1540
30239W        W46048  10.400   2.953   2.863 -0.1630  0.2037 -0.0346
30240W        W46049   4.505  18.399   2.532 -0.0354 -0.0699  0.1149
30241W        W46050  13.820  11.347   4.279 -0.1805  0.1301  0.2732
30242W        W46051  11.200  12.937   3.297 -0.1318 -0.0382  0.0987
30243W        W46052   6.618  12.383  14.159 -0.0084 -0.4635 -0.3620
30244W        W46053  17.720  12.201  13.119 -0.0345 -0.0274  0.2776
30245W        W46054  14.962   2.016   4.240  0.1098  0.1304 -0.1415
30246W        W46055  14.402   2.045   4.968 -0.2306 -0.1541 -0.1866
30247W        W46056  14.620  15.786   1.512 -0.1116 -0.1746 -0.0702
30248W        W46057  13.436  16.231   5.222 -0.1335  0.2434  0.1500
30249W        W46058   5.301  18.322  11.224 -0.0516  0.0206 -0.2508
30250W        W46059   5.183  15.892   4.560 -0.2673  0.2151  0.1210
30251W        W46060  10.338   2.200  11.549  0.1141  0.0529  0.1960
30252W        W46061  10.512   9.574  14.684 -0.4398 -0.1191 -0.0444
30253W        W46062  18.143   6.023  10.742 -0.3119 -0.1639 -0.0257
30254W        W46063   6.784   5.757  11.070 -0.0724 -0.0946 -0.1600
30255W        W46064   6.073  11.478   2.090 -0.1888 -0.0668 -0.0884
30256W        W46065   2.027  11.336  14.933 -0.1056 -0.2813  0.0379
30257W        W46066   3.510  14.369  11.908  0.0183 -0.0587  0.2963
30258W        W46067   0.009  16.700   0.110  0.1131  0.2770 -0.0991
30259W        W46068  10.101   1.378  11.040 -0.1710 -0.0579  0.1288
30260W        W46069   3.774  18.479  13.053 -0.1500 -0.1518  0.2723
30261W        W46070   4.104  12.274   1.241  0.1848 -0.0002  0.1936
30262W        W46071   0.347   8.174   2.244 -0.0946 -0.3548  0.0993
30263W        W46072  17.795  18.569   0.326 -0.1870 -0.2380  0.0242
30264W        W46073  12.636  11.172   3.667  0.2315 -0.2397  0.2103
30265W        W46074  18.610  10.443   2.208  0.1085 -0.0642  0.1088
30266W        W46075   6.459   2.061   3.059  0.1220 -0.0541 -0.2098
30267W        W46076  18.431   8.163  15.339 -0.0972  0.0353  0.2448
30268W        W46077  10.620   6.963   2.355 -0.0818  0.0621  0.0354
30269W        W46078   6.691  13.065  11.107  0.3008 -0.0757 -0.0607
30270W        W46079   7.146   9.285  13.161 -0.0440 -0.0102 -0.0383
30271W        W46080   0.349   7.505  11.247 -0.1597  0.1047  0.1031
30272W        W46081   5.502   0.767  12.947 -0.0298  0.0366  0.0457
30273W        W46082  14.288  10.555  12.434 -0.1484 -0.1198  0.0742
30274W        W46083  13.283  11.954  11.712  0.1528  0.1122  0.1284
30275W        W46084  14.847   3.005  12.544  0.2875 -0.2916  0.3219
30276W        W46085  10.237  12.746  11.952 -0.1038  0.0469  0.0431
30277W        W46086   1.419  16.327  14.644  0.4228 -0.3560  0.2342
30278W        W46087   1.932   4.746  12.294  0.1131  0.3786 -0.0547
30279W        W46088  10.749   8.221   0.321 -0.1019 -0.1435  0.1798
30280W        W46089   9.091   3.281   2.138 -0.0245 -0.1924 -0.0392
30281W        W46090   1.931   9.601   5.093 -0.1414 -0.2852  0.0014
30282W        W46091  12.763   3.595  10.754  0.1515 -0.1829  0.1644
30283W        W46092  17.789   4.391  11.339 -0.1275 -0.0669 -0.1547
30284W        W46093   2.708   8.133   1.885 -0.0320  0.1672 -0.2145
30285W        W46094  13.348  14.417  10.529 -0.0348 -0.0476  0.0712
30286W        W46095   7.105  12.096   1.744  0.0190  0.0256 -0.0599
30287W        W46096  15.661  18.206   2.871 -0.1635 -0.1852 -0.0039
30288W        W46097   4.904   4.986  13.296  0.0545  0.2943 -0.1406
30289W        W46098  16.820  13.589  12.837 -0.1270 -0.0956  0.0726
30290W        W46099   7.112  17.368  12.051  0.0214  0.0562 -0.1138
30291W        W46100   6.241  18.360   3.801  0.5568 -0.2028  0.0331
30292W        W46101  17.809   6.097  13.017 -0.2796 -0.0965  0.1572
30293W        W46102   9.586  15.210   1.410  0.1005 -0.0428  0.3926
30294W        W46103  10.906   8.834   5.334 -0.1269  0.0043  0.0636
30295W        W46104   7.223  11.891  11.913 -0.1050  0.1263  0.2693
30296W        W46105  16.946   3.008   1.933 -0.1161  0.3426  0.1024
30297W        W46106   6.652  11.374  12.373 -0.0130  0.0940  0.2564
30298W        W46107  10.027   2.154   2.609  0.1857 -0.0972 -0.2315
30299W        W46108   3.257   1.081   1.038  0.2574  0.1288  0.0121
30300W        W46109  13.591  11.732  13.758  0.0888 -0.0696  0.3992
30301W        W46110   3.610   5.483  13.880 -0.0795  0.1390 -0.0682
30302W        W46111   0.557  10.088   5.978  0.2097 -0.2167  0.1655
30303W        W46112   1.209   5.039  12.335  0.2397  0.2607 -0.2299
30304W        W46113   3.719   2.408  12.406  0.1491 -0.1700 -0.1141
30305W        W46114  13.531  11.235  11.606  0.4183  0.1063 -0.0272
30306W        W46115  13.254   2.373  14.630 -0.3045 -0.0706 -0.2413
30307W        W46116  14.367  11.204  13.830  0.4630 -0.2725  0.0409
30308W        W46117   8.669   5.192   3.695  0.0459 -0.2749  0.2211
30309W        W46118   4.246   3.831  12.768 -0.0970  0.3602  0.3128
30310W        W46119  12.180   8.383  14.110 -0.0323 -0.1916 -0.1644
30311W        W46120   2.353   8.254   2.678 -0.1995 -0.4446 -0.1788
30312W        W46121  17.928  14.685  14.578  0.3517  0.0676  0.2063
30313W        W46122   5.314   2.617   1.824 -0.1962 -0.0414  0.1643
30314W        W46123   1.539  11.309  15.132  0.1531 -0.0147 -0.0026
30315W        W46124   1.841  13.952  14.676  0.1904 -0.1188  0.1245
30316W        W46125   3.578   8.954  11.777  0.1631 -0.2862  0.1305
30317W        W46126   0.186   4.281   1.067 -0.1171 -0.1132  0.1279
30318W        W46127  13.354  18.541  14.868  0.0211 -0.2295  0.2245
30319W        W46128  17.829  13.416   1.159 -0.0279  0.1368  0.1887
30320W        W46129  11.370   8.563  11.846 -0.0338  0.3696  0.1299
30321W        W46130  11.483  15.812   4.276  0.0335 -0.1074  0.0977
30322W        W46131  17.321   4.353  14.777  0.2317  0.2191  0.0960
30323W        W46132   3.633  15.346  10.552  0.0313 -0.2098  0.0512
30324W        W46133  17.497   8.801   1.069  0.1977  0.0145 -0.2995
30325W        W46134   3.142  17.008  12.723 -0.0370 -0.1160  0.0507
30326W        W46135  17.775   9.415  14.988 -0.1676 -0.0812  0.3028
30327W        W46136   7.118  11.964  11.011 -0.0843  0.0778  0.0587
30328W        W46137   5.504   0.735  14.296 -0.2649  0.0564  0.1646
30329W        W46138  11.532  12.106   1.287  0.0779 -0.1896 -0.0828
30330W        W46139   0.691   7.310   0.803 -0.1606 -0.2550  0.1259
30331W        W46140   1.778  14.651   0.360  0.1817  0.1680 -0.1015
30332W        W46141   6.811   5.866  12.985  0.0710 -0.3094  0.0297
30333W        W46142  14.259  17.468   4.246  0.0052 -0.1822 -0.0614
30334W        W46143   4.535  13.915  12.462 -0.1693 -0.2605  0.1706
30335W        W46144  15.497   8.327   2.825 -0.0389 -0.0152 -0.0306
30336W        W46145  14.221  18.630   0.662 -0.2946  0.1991  0.0616
30337W        W46146  14.151  14.174  12.403  0.3484  0.0455  0.1411
30338W        W46147   5.384  16.649  11.121 -0.0776  0.4148  0.0214
30339W        W46148  15.625   7.307   0.802  0.2281  0.2189  0.1002
30340W        W46149   0.768  18.716   2.031 -0.1545  0.3827 -0.0394
30341W        W46150   2.672   4.015   5.181  0.0595 -0.1315 -0.2005
30342W        W46151  10.814  15.504   4.961 -0.1282 -0.2383  0.0936
30343W        W46152  12.089  14.945   3.554  0.0480 -0.1846  0.1910
30344W        W46153  18.116   3.900  11.147 -0.0137 -0.0962  0.3184
30345W        W46154   2.358   6.435   4.950 -0.3962 -0.1353  0.1044
30346W        W46155   9.091  13.773   0.960 -0.1110 -0.1406 -0.1509
30347W        W46156   6.788  10.399  14.664 -0.1316  0.1697 -0.1833
30348W        W46157  12.999   6.171  11.680  0.0441 -0.2044 -0.1458
30349W        W46158  15.661   2.255   0.904  0.4261 -0.2845 -0.1418
30350W        W46159  17.060   1.446   5.321 -0.3517 -0.1816  0.0059
30351W        W46160   3.708   1.883  12.091  0.1030 -0.1465 -0.2482
30352W        W46161   3.315  13.577   5.026  0.0052  0.1621  0.2018
30353W        W46162   0.690   4.990   2.221  0.1627 -0.0043  0.2819
30354W        W46163   1.647  18.412  14.649  0.1473  0.1499 -0.0072
30355W        W46164  15.456  17.759   2.688 -0.1012 -0.1051 -0.1757
30356W        W46165  13.968   4.132  13.930  0.0225  0.2055 -0.1729
30357W        W46166  18.194   6.855  12.374  0.0232 -0.0738  0.1808
30358W        W46167  15.870   3.805  14.792 -0.2889  0.2025  0.1231
30359W        W46168   4.909  12.091  14.779 -0.1930  0.0195  0.1035
30360W        W46169  10.685  15.821   1.911 -0.1259  0.0977  0.0991
30361W        W46170   7.345  11.649   0.937  0.0256 -0.0880 -0.1315
30362W        W46171  18.503  12.635  14.903  0.0755 -0.3677  0.2673
30363W        W46172   1.798   4.609   4.016  0.1269 -0.1767  0.0757
30364W        W46173   5.670  10.079  13.843  0.1989  0.1680 -0.1639
30365W        W46174   5.034   1.882   0.704  0.1077 -0.1559  0.1723
30366W        W46175  10.623   2.968   5.207 -0.2936 -0.1741 -0.0229
30367W        W46176  17.672   0.994  14.006  0.2819 -0.1384  0.1693
30368W        W46177   8.645   1.429  13.515 -0.4434  0.1221 -0.0301
30369W        W46178  18.524   6.418   2.581 -0.0574 -0.1241 -0.0021
30370W        W46179   8.714   2.429  11.854  0.3404 -0.1111 -0.0544
30371W        W46180   2.316   8.011   2.192 -0.1573 -0.0324 -0.0909
30372W        W46181   4.070   8.063  11.511  0.0508  0.1811 -0.1999
30373W        W46182   9.258  13.528   4.676 -0.1239  0.2409 -0.0716
30374W        W46183   4.639  10.466   2.772  0.0498  0.1720 -0.1014
30375W        W46184  16.471   9.221  11.146  0.1285  0.1172  0.0685
30376W        W46185  17.270   7.686   1.632  0.1713 -0.1367  0.2162
30377W        W46186   0.732   7.651   2.638  0.0618  0.2494  0.1664
30378W        W46187  17.795   1.197   4.241  0.0944  0.0378  0.1121
30379W        W46188   2.883   3.502  12.457  0.2467  0.1876  0.0936
30380W        W46189  13.610   3.773   2.730 -0.1932 -0.0296 -0.1624
30381W        W46190  14.182  11.857  13.300 -0.0239 -0.4497 -0.3204
30382W        W46191   0.232   8.260   9.693  0.0723 -0.1450  0.0045
30383W        W46192   6.814   5.459  11.450  0.2931  0.3384  0.0176
30384W        W46193  10.626   1.945  11.821  0.0611 -0.1983 -0.2060
30385W        W46194  11.875  15.833  15.383 -0.0582 -0.2521 -0.1503
30386W        W46195   5.503   6.465   0.091 -0.0301 -0.0583 -0.0196
30387W        W46196  13.171  18.182  11.409 -0.1423  0.2202 -0.0308
30388W        W46197   9.573  15.790   2.567  0.1255 -0.1363  0.1432
30389W        W46198   1.600  11.338   1.432  0.0321  0.0066  0.0132
30390W        W46199   9.579   1.374  14.332 -0.1685 -0.2949  0.0015
30391W        W46200  16.201   9.444   1.166 -0.0054 -0.5110 -0.2417
30392W        W46201  18.523  13.312   4.518  0.1481 -0.2146 -0.2163
30393W        W46202  10.274  10.956   3.599  0.0055  0.1779  0.1718
30394W        W46203  17.254  12.265   4.162 -0.1834 -0.1465  0.0799
30395W        W46204  16.460  17.016   5.280 -0.1622  0.1511  0.0490
30396W        W46205  11.980  13.055  14.848 -0.1871 -0.0135  0.1456
30397W        W46206   3.073   2.108  12.903 -0.0501  0.0283 -0.1879
30398W        W46207   7.961  17.961  13.914  0.3164  0.0155  0.0306
30399W        W46208   9.040   3.046   0.867  0.0819  0.1924 -0.2711
30400W        W46209   7.463   2.571   6.076 -0.2202 -0.0373 -0.2524
30401W        W46210   9.383  12.347  13.822  0.0298  0.2331  0.0231
30402W        W46211  12.010   7.981  12.731 -0.3984  0.2287  0.1913
30403W        W46212   7.868  15.589  14.877  0.0693  0.1435  0.3803
30404W        W46213   5.203  17.858   0.225  0.0586 -0.0986  0.1803
30405W        W46214  13.632  10.881  15.327 -0.0535 -0.1610  0.5230
30406W        W46215   6.024   5.025  11.364 -0.2917  0.0799 -0.0789
30407W        W46216   2.528  16.864  11.924  0.3292  0.0692 -0.0547
30408W        W46217   6.934   0.939   2.994 -0.0616 -0.1362  0.1359
30409W        W46218   0.486   5.544  13.124  0.0775 -0.2964 -0.2264
30410W        W46219   8.256  11.149  12.333 -0.0960  0.0634 -0.0896
30411W        W46220  13.100  14.348  14.843  0.2689 -0.2543 -0.0391
30412W        W46221  17.189  15.729   4.662  0.2608  0.2229 -0.1044
30413W        W46222   8.706   0.649   2.859 -0.0157  0.0987  0.0576
30414W        W46223  16.115   4.824  14.491 -0.0547 -0.0330 -0.0056
30415W        W46224   3.764   4.275  13.438 -0.1388 -0.0708 -0.2209
30416W        W46225  11.526   8.521  12.367  0.0652  0.1271  0.0953
30417W        W46226   5.643   6.174  13.635  0.2174  0.2975  0.0735
30418W        W46227  12.250   2.886  12.792  0.5800  0.0045 -0.3301
30419W        W46228  17.553   1.558   2.936  0.1784 -0.2139  0.3509
30420W        W46229  10.260   7.643  11.378  0.3625  0.0960 -0.2845
30421W        W46230  10.614   8.843  13.480  0.0039 -0.0761 -0.1080
30422W        W46231  16.114  18.731  11.554 -0.3154  0.1913 -0.1605
30423W        W46232   3.674   5.397  10.772  0.1138  0.0492 -0.3127
30424W        W46233  15.992   3.004   1.651  0.0186 -0.0539 -0.0401
30425W        W46234  12.202  17.142  14.139 -0.0119  0.3427 -0.0005
30426W        W46235   3.998   8.871   4.684 -0.1108 -0.0111 -0.0335
30427W        W46236  18.161  13.528   3.343 -0.2421 -0.3165 -0.1854
30428W        W46237   0.981  11.811   0.146 -0.0402  0.2541 -0.1731
30429W        W46238   5.499   5.596   2.216  0.1089 -0.0931  0.0975
30430W        W46239   8.187  18.389   4.973 -0.0214  0.0774  0.1020
30431W        W46240   0.413   3.198  11.491 -0.2672 -0.2835 -0.2936
30432W        W46241  15.825   1.412  11.257  0.0253  0.2853 -0.3248
30433W        W46242  17.396   8.575  14.606  0.2072  0.6047  0.1362
30434W        W46243   7.441  14.714  14.008 -0.2398 -0.2191  0.2745
30435W        W46244  16.205  15.944  11.447  0.0005  0.1889 -0.0462
30436W        W46245  15.719   2.365   3.427  0.4504 -0.1675  0.3115
30437W        W46246  14.285   5.866  11.215 -0.1453 -0.0467  0.3639
30438W        W46247   0.051   2.964   0.621  0.2227 -0.0608  0.1755
30439W        W46248  16.805   5.432  14.494 -0.3291  0.0348 -0.0501
30440W        W46249   0.825   2.248   2.495 -0.2255  0.0705 -0.0103
30441W        W46250  13.781   9.746  13.970  0.0983 -0.2876  0.1164
30442W        W46251   7.997  10.670   2.269 -0.2692  0.0580  0.3048
30443W        W46252   5.631  13.405   1.246  0.1165  0.0227  0.4667
30444W        W46253   7.547   8.818   3.680  0.2991 -0.0136 -0.2027
30445W        W46254   1.231   8.754  14.533 -0.1519 -0.1647  0.1469
30446W        W46255   6.343  13.102   4.057 -0.0534 -0.2732 -0.1758
30447W        W46256   9.910   4.793  12.004 -0.0595 -0.1711  0.1820
30448W        W46257   2.467   4.276  13.949 -0.3056  0.0495  0.2180
30449W        W46258  18.248   4.155  12.077 -0.0097  0.1576  0.1679
30450W        W46259  11.152  10.633  15.385  0.0537 -0.2407  0.2110
30451W        W46260   1.270   1.691  11.828  0.2206 -0.0279 -0.1731
30452W        W46261  18.005  16.408   3.746 -0.2848 -0.0624  0.0303
30453W        W46262  15.656   2.451  13.195  0.0593  0.0615  0.1486
30454W        W46263   9.230  10.339   5.694 -0.0151 -0.3700 -0.1458
30455W        W46264  11.278   3.195  11.894  0.0440 -0.0588 -0.0371
30456W        W46265  17.118  13.471  15.163  0.2092  0.1652  0.1743
30457W        W46266   7.762   6.668  14.565  0.0791  0.2614  0.3548
30458W        W46267   7.702   5.305   4.787  0.0826 -0.0864 -0.1867
30459W        W46268  17.215  14.370   3.852  0.0560 -0.1909 -0.1331
30460W        W46269   2.568  17.804   0.989  0.3610 -0.1349 -0.0848
30461W        W46270   4.460   0.259   4.485 -0.0812 -0.4471  0.1612
30462W        W46271   8.348  16.143  12.525  0.4336 -0.0582  0.1995
30463W        W46272   2.558   5.973   0.859 -0.0558  0.2219  0.2685
30464W        W46273   8.967   0.201   2.618 -0.4290 -0.6497  0.1953
30465W        W46274  15.283   3.425   4.640  0.1663 -0.0509 -0.3886
30466W        W46275  11.696   5.472   3.514 -0.0746  0.0736 -0.0677
30467W        W46276  15.941   0.009   4.067  0.1865  0.3734 -0.1447
30468W        W46277  17.413   5.370  12.395  0.1034  0.1390  0.1408
30469W        W46278   2.863   3.345  13.018  0.1310 -0.2929  0.1507
30470W        W46279  14.735  12.345  14.987  0.0597  0.2260 -0.0831
30471W        W46280  12.721  15.481  12.328  0.0144  0.2660  0.0544
30472W        W46281   9.054  13.381  12.754  0.1776  0.3219  0.0124
30473W        W46282   1.414  12.545   4.328  0.2584  0.5703  0.0918
30474W        W46283   4.140  10.310   5.440  0.2655 -0.0612  0.2698
30475W        W46284  16.083   7.629   1.006 -0.1473  0.0245 -0.1652
30476W        W46285   1.169  17.856  13.087  0.0086 -0.1122  0.0991
30477W        W46286   5.642   3.076   4.730 -0.1111  0.2450 -0.0891
30478W        W46287   1.935  14.974   2.409 -0.0199 -0.3391 -0.2369
30479W        W46288  16.952  13.593   2.696  0.0424  0.1513  0.0441
30480W        W46289  15.339   7.174   5.039  0.0487 -0.0082  0.4718
30481W        W46290   9.666  12.353  12.890  0.0376 -0.0764 -0.1043
30482W        W46291   7.996   9.683   2.406 -0.1895 -0.1661  0.0234
30483W        W46292   3.293  14.377   4.604  0.1047 -0.2842 -0.3209
30484W        W46293  13.517  12.499  13.495  0.3144  0.1700  0.0631
30485W        W46294   2.606  13.271  13.641 -0.1898  0.1369  0.0707
30486W        W46295  13.609  12.285   0.941 -0.0972 -0.0058  0.0614
30487W        W46296  14.496   4.371   3.715  0.3900 -0.0362 -0.1685
30488W        W46297   9.028  11.629   0.839 -0.2942 -0.3491  0.0979
30489W        W46298   6.510  18.757   0.527  0.3159 -0.0616  0.1740
30490W        W46299   9.834  10.393  12.064  0.0257  0.0932  0.0680
30491W        W46300  10.201  10.764  12.118  0.0086  0.0965  0.0964
30492W        W46301   1.891   2.216   4.151 -0.0120 -0.2564  0.0991
30493W        W46302   4.933  17.174  14.713 -0.4150  0.1368  0.1126
30494W        W46303   5.693   6.725  15.286 -0.1805  0.1613 -0.2117
30495W        W46304   5.728   0.530   3.874 -0.2961 -0.1615  0.1388
30496W        W46305   1.042  12.168  14.786 -0.1969  0.3367 -0.0735
30497W        W46306   0.278  17.395   1.533 -0.0110  0.2950 -0.1705
30498W        W46307  11.705   1.302  14.119  0.1355  0.2367 -0.1931
30499W        W46308  12.769   2.747   0.350  0.0482 -0.2627  0.3655
30500W        W46309  17.421  16.933   3.253 -0.4315 -0.0436  0.1580
30501W        W46310  10.907  18.543   4.541 -0.1110 -0.4023 -0.1811
30502W        W46311   0.526   6.111   3.149  0.1650 -0.3007  0.0677
30503W        W46312  15.893   6.329   1.755 -0.0725 -0.1494  0.1014
30504W        W46313  12.792   7.345  11.651  0.0636 -0.0694 -0.1225
30505W        W46314   2.322  10.556  14.378 -0.0998  0.1517 -0.0421
30506W        W46315   0.609   5.132  12.357 -0.1152  0.0791 -0.3252
30507W        W46316   2.439  17.877   2.258  0.5795  0.1987  0.2730
30508W        W46317   6.575  10.250   3.765  0.2056 -0.0330  0.0467
30509W        W46318  15.646  18.429  13.865  0.1824 -0.1922  0.2391
30510W        W46319   2.992   7.317   1.650  0.0478  0.0801  0.1371
30511W        W46320   0.212  10.856   5.086  0.1299  0.2756  0.2931
30512W        W46321  14.202   5.434   3.898 -0.0002 -0.1058  0.2717
30513W        W46322   5.449  15.869   4.993  0.0847  0.3352 -0.1773
30514W        W46323  15.508   7.746   1.067  0.1809 -0.2693  0.0845
30515W        W46324   0.684   6.919  13.127  0.1176 -0.0263  0.1966
30516W        W46325   9.970  11.551   2.383  0.3713 -0.1515 -0.3096
30517W        W46326  13.975   8.359  11.581 -0.0774 -0.0704 -0.0022
30518W        W46327   3.780   0.799  14.582 -0.4368  0.0800  0.2262
30519W        W46328  11.454   6.036  12.961 -0.0491  0.5301  0.1868
30520W        W46329  11.027  14.017   1.256  0.1341 -0.1203 -0.3073
30521W        W46330   7.477  14.677   2.341 -0.2429  0.0821  0.0829
30522W        W46331  13.406  15.193  11.079  0.0918 -0.2089 -0.2293
30523W        W46332   3.884   6.032  13.186 -0.0275 -0.1034 -0.2310
30524W        W46333   0.037   1.401   1.501 -0.2633 -0.3052 -0.0929
30525W        W46334  18.318   2.477   6.336 -0.0623  0.2099  0.0132
30526W        W46335  10.811   0.136   2.759 -0.1592  0.0233  0.2293
30527W        W46336  10.685   8.625   3.075 -0.0452  0.2450 -0.0945
30528W        W46337  16.581  16.165   1.767 -0.0736  0.0037 -0.3507
30529W        W46338   1.780   8.315  12.098 -0.0748  0.3094  0.1836
30530W        W46339   3.769   5.452   5.357 -0.1520  0.1177  0.0887
30531W        W46340   1.058  18.006   2.693 -0.0461  0.0099  0.2242
30532W        W46341   8.143   4.045  13.410  0.1170  0.0975 -0.1048
30533W        W46342   9.601  11.472   5.244  0.2933  0.0325  0.0028
30534W        W46343   8.365  17.646  14.025 -0.0175 -0.0226  0.0627
30535W        W46344  13.918   0.916  10.164  0.0345 -0.0826 -0.3756
30536W        W46345   6.247  14.232   4.680  0.1975 -0.1271  0.1443
30537W        W46346   9.977  14.168   4.677  0.3033 -0.4710 -0.5990
30538W        W46347   2.855   3.029  12.259 -0.0295  0.2936 -0.0674
30539W        W46348  14.463   2.084   5.753 -0.0644 -0.0535  0.3054
30540W        W46349   1.569   1.225  13.539 -0.3962  0.1349  0.2455
30541W        W46350   6.424   9.180  13.819  0.2193 -0.0096  0.0928
30542W        W46351   7.036   6.295   2.611  0.0159  0.2533  0.5356
30543W        W46352   1.924   3.033  12.081  0.4141 -0.4131  0.1527
30544W        W46353   9.344  17.094  15.209  0.1659 -0.2311 -0.2115
30545W        W46354  12.607   1.198   4.127  0.1589  0.1450  0.3516
30546W        W46355  14.053   1.667   5.902  0.0942  0.0526  0.0397
30547W        W46356   3.469   2.028  14.914  0.2487 -0.4766  0.0188
30548W        W46357  10.416   9.466  10.867 -0.0205  0.0665  0.1663
30549W        W46358   3.889   8.654   0.236  0.1867  0.1989 -0.1224
30550W        W46359  10.383  13.066   3.617  0.0263  0.0668 -0.1199
30551W        W46360   8.758   2.661   5.489 -0.1790  0.0093 -0.0918
30552W        W46361  11.295  18.491  11.726  0.0058 -0.4666 -0.2324
30553W        W46362   1.928  17.351   4.967 -0.2074 -0.0345 -0.1662
30554W        W46363  16.258  10.967  11.755 -0.1380 -0.0579 -0.0075
30555W        W46364  17.586   2.564  13.819  0.2423 -0.0617 -0.1057
30556W        W46365   3.375  16.715   0.574 -0.0573  0.1416  0.3024
30557W        W46366   9.883   2.941   4.532 -0.3943  0.4718 -0.0689
30558W        W46367   2.980   8.761   9.909  0.0970 -0.6030  0.0031
30559W        W46368  16.940  11.056  12.112 -0.3011  0.0463  0.0374
30560W        W46369   7.572   5.053   4.288 -0.2621  0.3550 -0.2035
30561W        W46370  15.449  16.945  12.750  0.2157 -0.0246  0.3092
30562W        W46371   9.388  18.609   1.286  0.0226 -0.0550 -0.1228
30563W        W46372   4.824  11.959   0.860 -0.0201  0.3531 -0.2288
30564W        W46373   7.366   9.592   1.477 -0.0911 -0.1438 -0.0029
30565W        W46374  13.474   7.204   4.850 -0.0388  0.3456  0.0603
30566W        W46375   8.154  11.386   0.961 -0.0142 -0.3435  0.2756
30567W        W46376   9.955   9.752   5.078 -0.0684 -0.0129 -0.3496
30568W        W46377   9.973  12.711   2.231  0.3040 -0.3905 -0.0576
30569W        W46378   3.630  13.982   3.235 -0.1418 -0.0618  0.1327
30570W        W46379  16.475   7.764  10.729 -0.1240  0.2233 -0.0061
30571W        W46380   3.783   0.914   1.076 -0.3957  0.0747 -0.0187
30572W        W46381   3.800   2.961  12.438 -0.1329 -0.4463 -0.0040
30573W        W46382   3.111   5.783   1.750 -0.0870  0.1047  0.0415
30574W        W46383   6.220   3.539  12.102 -0.0184 -0.0449 -0.2908
30575W        W46384   2.131   7.460   0.325  0.0498  0.1921  0.0710
30576W        W46385   9.518   0.209  13.916 -0.3366 -0.1621  0.1204
30577W        W46386   0.312   9.306  12.450  0.0312  0.0564 -0.3140
30578W        W46387   4.259  16.290   2.071 -0.0407  0.3399 -0.0339
30579W        W46388  17.131  12.037  10.870  0.2926 -0.2937  0.4659
30580W        W46389   6.539  16.863  14.118  0.2472  0.0248 -0.0661
30581W        W46390   4.887   7.182   2.878  0.0589 -0.0252 -0.1740
30582W        W46391  16.898  14.613  12.474  0.1943  0.1512 -0.3159
30583W        W46392  17.696   9.865  14.156  0.0546 -0.0077  0.0337
30584W        W46393  17.189  10.144  13.445 -0.0022 -0.0402  0.0977
30585W        W46394  12.006   7.124  11.402 -0.2142  0.1370 -0.2013
30586W        W46395   9.635  10.013  11.874  0.0801  0.1135 -0.0026
30587W        W46396   9.362   6.151   2.429  0.2986  0.1439 -0.1514
30588W        W46397  11.233  17.885  13.281 -0.0722  0.1847 -0.0487
30589W        W46398   0.959   8.171   0.210  0.0934 -0.1813 -0.0549
30590W        W46399   5.157   6.473   2.205 -0.1371 -0.0073 -0.2051
30591W        W46400  17.535   3.754   1.031  0.3009  0.2594 -0.0829
30592W        W46401  12.397   9.633  12.547  0.2269  0.3767  0.1387
30593W        W46402  10.888  13.242  15.177 -0.1405  0.0788 -0.4962
30594W        W46403   5.223  10.033  13.421 -0.0814 -0.0322  0.0654
30595W        W46404  15.413  16.847   2.367 -0.0403 -0.1436  0.2436
30596W        W46405  14.238  13.592   3.331 -0.1135  0.2486 -0.1851
30597W        W46406   4.184  18.192  13.448  0.0155 -0.1763 -0.2854
30598W        W46407   7.961   3.151  13.468  0.1554 -0.4410 -0.2736
30599W        W46408   0.451  15.028  10.277  0.2081  0.3842 -0.5027
30600W        W46409   1.930   9.170  11.362 -0.1825  0.1401  0.2311
30601W        W46410   2.272   0.309  14.379  0.0217 -0.0335 -0.2217
30602W        W46411  12.607   9.537   3.868 -0.0407  0.1193  0.1349
30603W        W46412   5.410   4.214   0.466 -0.2371  0.2911  0.0972
30604W        W46413  10.023   7.534  15.115 -0.0451 -0.4151 -0.1294
30605W        W46414  14.876  15.634  14.015  0.0513  0.1348 -0.0418
30606W        W46415  17.990  18.037   3.878  0.2079  0.1606 -0.2008
30607W        W46416   4.985  14.115   0.181 -0.0141  0.0507 -0.3026
30608W        W46417  17.946   6.770   5.410 -0.0133 -0.2752  0.1148
30609W        W46418   5.420   7.517  12.471  0.1214  0.3248  0.1688
30610W        W46419   8.770  15.697   2.125 -0.1111 -0.1707  0.0503
30611W        W46420   4.097   2.189   1.453 -0.2442  0.1704 -0.1775
30612W        W46421  11.761  15.539  12.529  0.2841  0.2764 -0.0269
30613W        W46422  18.104  13.547  11.647 -0.0705  0.0882  0.3384
30614W        W46423   5.385  12.264  12.549  0.0202  0.0999 -0.2976
30615W        W46424  14.653  14.407  13.516 -0.2067  0.2802 -0.1475
30616W        W46425   0.280  14.391   4.030 -0.1535 -0.1223  0.1335
30617W        W46426  18.281  12.410   1.901 -0.0240  0.0560 -0.0110
30618W        W46427   1.852  18.133   1.246  0.1657 -0.3032  0.0282
30619W        W46428  15.065  10.989   2.960 -0.2915 -0.0647  0.1052
30620W        W46429   2.909   3.013   1.695  0.1428  0.1011 -0.0255
30621W        W46430  11.912   1.116   1.527 -0.1530 -0.1845  0.3380
30622W        W46431   3.946  10.843   3.762  0.1548  0.0023 -0.1059
30623W        W46432  15.995  13.331   3.362 -0.1378  0.2866 -0.1020
30624W        W46433  14.611   0.692   9.940 -0.1469 -0.1226  0.3508
30625W        W46434   1.891   3.266   2.936  0.1092  0.1903 -0.1297
30626W        W46435   9.125  12.174  15.250 -0.4950  0.3134 -0.0272
30627W        W46436   4.447   6.659  13.732 -0.2427 -0.2015  0.0661
30628W        W46437   6.039  10.319  12.920  0.1533 -0.0613  0.0561
30629W        W46438   3.689   8.376  13.650 -0.0343 -0.0007  0.0209
30630W        W46439   7.299   9.455   4.045  0.0792  0.3601 -0.0358
30631W        W46440   1.851   1.492   2.104  0.2180 -0.1966  0.1994
30632W        W46441  10.792  16.237  12.572 -0.2161 -0.0986  0.0353
30633W        W46442   2.628  11.240  13.672  0.0737  0.0213  0.0264
30634W        W46443   0.581   3.540   0.082  0.1555  0.0180 -0.0117
30635W        W46444   4.897   8.470   2.358  0.0358 -0.0428 -0.3528
30636W        W46445   7.985   0.894   1.092  0.1098 -0.0247 -0.0039
30637W        W46446  17.652  13.434   4.789 -0.0510 -0.2448  0.3405
30638W        W46447  13.407   9.099   1.862  0.2820  0.1571 -0.3283
30639W        W46448   4.552  11.110  12.225  0.2743  0.2187  0.2346
30640W        W46449   3.210   8.990   4.329  0.1513  0.1312 -0.0007
30641W        W46450  14.691   6.910  11.412 -0.2209  0.0114 -0.2215
30642W        W46451   1.974   9.517   2.953  0.0359 -0.0507  0.1101
30643W        W46452   3.170   2.450   1.768  0.0404  0.3880 -0.0300
30644W        W46453  16.569  17.950  14.880 -0.0930  0.0386 -0.4143
30645W        W46454  13.684  11.813   3.337 -0.2425  0.0875  0.0143
30646W        W46455   8.391   8.587  14.746 -0.3681 -0.1202 -0.0699
30647W        W46456  10.879  11.800   2.351  0.0455 -0.1915  0.0058
30648W        W46457   5.937   9.716   2.683  0.0800 -0.1366 -0.1164
30649W        W46458   9.163   4.229  14.993 -0.1058 -0.4700 -0.0175
30650W        W46459  15.157  13.491   2.784  0.0604 -0.1351  0.1042
30651W        W46460  17.071  17.597   3.750  0.3057  0.0125  0.0822
30652W        W46461   5.590   7.773   0.742 -0.0192 -0.0444  0.0827
30653W        W46462  12.897  18.696  15.130  0.3674  0.0017  0.1772
30654W        W46463   7.789   7.045  10.345  0.0114  0.4283 -0.0430
30655W        W46464  17.247   1.375  13.975 -0.1386 -0.1648 -0.2699
30656W        W46465   9.312  14.027  14.408 -0.1795  0.1003 -0.1921
30657W        W46466   9.357   1.589  13.878 -0.0256  0.3757  0.1373
30658W        W46467  10.573   5.262  12.387  0.3345 -0.0576 -0.1135
30659W        W46468  14.926   3.947   2.463  0.2195  0.1486 -0.3091
30660W        W46469  14.029   1.236   1.103  0.1695 -0.1572  0.2062
30661W        W46470   7.323  16.655  13.679 -0.1019 -0.0318  0.1089
30662W        W46471   5.720   0.889   3.400  0.1885  0.1256 -0.2007
30663W        W46472   8.746  12.019   2.726  0.1281  0.0826  0.1115
30664W        W46473   9.507   8.644  12.324 -0.1459  0.0776 -0.3319
30665W        W46474  11.390   4.746   1.080 -0.0157 -0.1977  0.0551
30666W        W46475  12.956   8.285   3.582 -0.3120 -0.3147  0.1483
30667W        W46476   0.121   1.463  12.370  0.3896 -0.1483  0.1681
30668W        W46477  16.675  14.464   1.684 -0.2382  0.0815  0.2238
30669W        W46478  10.847   1.063   0.619 -0.3429  0.2953 -0.0294
30670W        W46479  16.663  17.009  14.490  0.3653 -0.1810  0.1613
30671W        W46480  10.788  12.847  14.707 -0.2251  0.2987 -0.4751
30672W        W46481   7.159  10.744  13.954 -0.0774 -0.0851 -0.0812
30673W        W46482  13.295  12.841   4.455  0.0416 -0.2483  0.0217
30674W        W46483  13.996  15.687   1.292  0.1614  0.4921 -0.1732
30675W        W46484   0.456  12.241   0.490 -0.2004 -0.0740 -0.0811
30676W        W46485   0.419  13.036   1.640  0.0647  0.0771  0.4240
30677W        W46486   2.040  14.849   0.803  0.2433  0.1732  0.1855
30678W        W46487  10.282   4.062  11.721 -0.2058  0.0757  0.1869
30679W        W46488  17.015   5.119  12.976  0.6059 -0.0679  0.2721
30680W        W46489  14.722  13.481  13.466 -0.1857 -0.0836 -0.4177
30681W        W46490   0.814   9.045   1.824 -0.1872 -0.2065 -0.0556
30682W        W46491   1.560   8.686   2.395  0.1344  0.4780  0.0939
30683W        W46492   3.458   5.709  14.746 -0.0314  0.2036 -0.0652
30684W        W46493   2.555  18.695  14.341  0.2028 -0.1311  0.0835
30685W        W46494  18.713   8.086  13.106 -0.0015  0.1847 -0.0644
30686W        W46495  11.766  10.602  13.990  0.1134  0.0586 -0.2830
30687W        W46496   5.899  11.736  11.967  0.0634 -0.5860 -0.0756
30688W        W46497   4.246   9.547  15.328 -0.0356 -0.2979 -0.2011
30689W        W46498   5.756   0.453  10.754  0.2061 -0.1459 -0.0830
30690W        W46499   0.620  12.154   0.014 -0.1590  0.1115 -0.3236
30691W        W46500  13.651   7.412  12.529  0.1830  0.1715  0.1233
30692W        W46501   8.248   7.759  10.902  0.0329 -0.0357  0.1016
30693W        W46502   6.251  12.030   4.944 -0.1290 -0.1347  0.0165
30694W        W46503   1.292  12.585  15.021 -0.0780  0.0729 -0.2839
30695W        W46504   8.722  16.146   2.733  0.1486  0.3518  0.0247
30696W        W46505  13.540  16.532   4.632  0.0406 -0.1521 -0.1602
30697W        W46506   0.470  17.591  12.730  0.1646 -0.0771 -0.0864
30698W        W46507  12.193  10.018  13.889  0.1812  0.0048  0.1538
30699W        W46508   5.644   1.065  14.860 -0.1446 -0.0978  0.2633
30700W        W46509  16.492  10.959  12.387  0.3516  0.0992 -0.0944
30701W        W46510   1.696  11.499  11.248  0.2694  0.1697  0.0737
30702W        W46511   7.696   6.931   3.118 -0.0121 -0.2306 -0.1694
30703W        W46512   1.080   9.573   2.509  0.1042 -0.1633 -0.1753
30704W        W46513   7.680  16.884   1.391  0.3117  0.1352  0.1867
30705W        W46514  10.472  18.390   4.903  0.2681 -0.3289  0.1214
30706W        W46515   1.782   5.637   2.746 -0.3255  0.0820  0.2357
30707W        W46516   5.251   4.584  11.374  0.1309 -0.1412 -0.0035
30708W        W46517   1.001   3.094  12.366  0.0891  0.0915  0.0735
30709W        W46518  11.266   3.293  11.422  0.2069 -0.0649 -0.0400
30710W        W46519   9.120  11.753   2.898 -0.1903  0.1663  0.0628
30711W        W46520   8.529  18.229   2.172 -0.1777  0.2329  0.0320
30712W        W46521  10.084   8.157   4.112 -0.3550 -0.3893 -0.1478
30713W        W46522   6.827  17.077   1.608  0.0860 -0.0223 -0.0006
30714W        W46523  12.364   1.674  10.236  0.0491  0.1645 -0.1498
30715W        W46524  11.163  10.021  15.369 -0.0337 -0.3904  0.1121
30716W        W46525  17.662   6.057   2.277  0.1359  0.0060 -0.1165
30717W        W46526   3.028   3.551  15.036  0.1891 -0.2460  0.1847
30718W        W46527  11.207   0.033   1.216  0.1625  0.3459  0.1543
30719W        W46528   1.812   4.720   1.761 -0.1160 -0.0563  0.1179
30720W        W46529   2.242   5.365   1.977  0.0446  0.1213  0.2454
30721W        W46530  18.090   3.533  14.517  0.2156 -0.1060  0.0584
30722W        W46531   3.625  13.255   2.668 -0.2668 -0.0878 -0.0657
30723W        W46532   7.778  11.607  12.804 -0.0554 -0.0799  0.2225
30724W        W46533   0.080  17.579  10.309 -0.1549 -0.1426  0.3429
30725W        W46534   3.893  11.163   5.105 -0.1603 -0.0554  0.2095
30726W        W46535  11.260   0.236  13.590 -0.0404  0.3726 -0.2132
30727W        W46536  17.169  16.463  11.871 -0.0005  0.2502  0.3586
30728W        W46537   9.883  16.531   2.635 -0.0574 -0.1945 -0.1332
30729W        W46538  14.473  13.922   5.210 -0.2089 -0.1626  0.2504
30730W        W46539  17.369  16.481   2.979  0.3509 -0.3077 -0.0332
30731W        W46540  17.479  11.711  14.811  0.1884  0.0642 -0.0876
30732W        W46541  13.887  14.999  11.074  0.0086  0.0620  0.3887
30733W        W46542   6.601  15.056  13.769 -0.3910  0.1322 -0.2002
30734W        W46543  15.442   2.610   2.417  0.3808  0.1336  0.1332
30735W        W46544   9.018  18.587  13.155 -0.1322  0.3824  0.3150
30736W        W46545   1.665  12.124  12.174  0.1006  0.0806  0.0990
30737W        W46546  15.281   6.374   2.299  0.0635  0.0467 -0.2925
30738W        W46547  11.689   3.033  12.670  0.0146  0.1776  0.2048
30739W        W46548  17.010  11.015  14.629 -0.1322  0.1069  0.1376
30740W        W46549  10.539  14.257   3.118  0.1686 -0.0331  0.1181
30741W        W46550   3.831   6.505  12.857 -0.0727 -0.3436 -0.1814
30742W        W46551   2.957  17.242  12.009 -0.0568 -0.1040  0.1677
30743W        W46552   5.327   7.060   6.350  0.0718 -0.1046  0.0795
30744W        W46553  17.399   6.762  10.952  0.1729 -0.2147  0.2968
30745W        W46554   1.243   9.379   2.109  0.2862 -0.0914 -0.1253
30746W        W46555   1.626  16.233  12.254  0.2034 -0.1837  0.2822
30747W        W46556  10.340   0.493   1.750 -0.0498  0.2750  0.1873
30748W        W46557   5.545   1.053  13.831  0.1166  0.0864  0.3032
30749W        W46558   5.230  18.110   1.487 -0.2132 -0.1906 -0.1017
30750W        W46559  13.325  11.259  15.496  0.1422  0.3082  0.0180
30751W        W46560   0.173   6.503  10.424 -0.2374  0.1936 -0.1907
30752W        W46561   0.425   4.576   2.806 -0.0462  0.0641 -0.0802
30753W        W46562   7.450  14.329   1.326 -0.5802 -0.2616  0.1370
30754W        W46563   4.517   1.630   4.795 -0.2869 -0.1447 -0.1950
30755W        W46564   7.215   7.323   0.501 -0.1818 -0.0791  0.0801
30756W        W46565   8.443   3.485   1.567 -0.0758  0.2161  0.0403
30757W        W46566  13.123  17.391   3.708  0.2272 -0.0621 -0.2080
30758W        W46567  17.777   2.941  12.548 -0.1819 -0.1793 -0.0327
30759W        W46568  18.269  13.128   1.440 -0.0780 -0.0101  0.0507
30760W        W46569   0.076   4.708   3.815  0.2977  0.2806  0.4619
30761W        W46570  18.388  14.971  14.116  0.0302 -0.0399 -0.0712
30762W        W46571   9.539   5.909  13.841 -0.1419 -0.0114  0.0175
30763W        W46572  15.133   7.324  11.685  0.0674 -0.3169 -0.0489
30764W        W46573   4.754  17.203   4.463  0.0272  0.0341 -0.4210
30765W        W46574  15.647   7.743   4.965  0.2661  0.0516 -0.0000
30766W        W46575  14.631   8.241  10.254 -0.1232  0.1494  0.1332
30767W        W46576   2.240   2.645  11.372 -0.0095  0.0151 -0.0560
30768W        W46577  15.667  13.276  12.513  0.0093  0.1324  0.2643
30769W        W46578   9.083   4.939  12.153  0.2054  0.1501 -0.0673
30770W        W46579   0.518  16.963  12.421 -0.0376  0.0170 -0.2449
30771W        W46580  18.077   6.571  14.393 -0.0137 -0.0947  0.1125
30772W        W46581   2.258   0.426   3.492 -0.1924 -0.0801 -0.0530
30773W        W46582   0.124   5.658  12.828  0.3643  0.2138 -0.1655
30774W        W46583  17.749   9.386   4.519  0.1881 -0.1217 -0.2487
30775W        W46584  11.621   4.810   0.100 -0.0438  0.0572 -0.0746
30776W        W46585   8.667   3.786  13.552 -0.1344 -0.1588  0.2247
30777W        W46586   7.412  17.398  11.637  0.2005  0.0701  0.0122
30778W        W46587   3.015   5.145   3.734 -0.0981 -0.2796  0.1280
30779W        W46588   4.656   9.097   4.733 -0.1442  0.1934  0.1821
30780W        W46589   5.796  13.788  12.729  0.1585  0.0263 -0.2653
30781W        W46590  14.483  13.165   5.582  0.0862 -0.4097  0.1954
30782W        W46591   7.990  11.599  12.296 -0.0767  0.2465 -0.1673
30783W        W46592  14.142  17.797   1.765  0.0151  0.2073 -0.1709
30784W        W46593   6.413   7.840  15.323  0.5391  0.1248  0.0795
30785W        W46594  17.000   8.611  12.359 -0.2604  0.0485 -0.1701
30786W        W46595   8.263   6.990  13.360  0.0081  0.0721  0.1493
30787W        W46596  10.888   8.602  12.010  0.1700 -0.4656 -0.0974
30788W        W46597   0.029   4.540  13.696  0.0889  0.4030 -0.1939
30789W        W46598  13.349  13.738  15.413 -0.0324  0.1399  0.1656
30790W        W46599   7.359   5.120   5.065  0.1394  0.0771 -0.1234
30791W        W46600   8.860   1.399  10.635  0.0049  0.1567 -0.0456
30792W        W46601  10.566  16.870   4.787  0.0647 -0.1205 -0.0574
30793W        W46602   4.764   6.498  13.317  0.0978 -0.0738  0.1881
30794W        W46603  11.219  10.985   6.040  0.1918 -0.3257  0.3415
30795W        W46604   1.573   5.179   1.231  0.4541  0.1258  0.1740
30796W        W46605  12.217   3.956   4.415 -0.0952  0.1605  0.1124
30797W        W46606   8.178   5.870   2.313  0.0942  0.0494 -0.1967
30798W        W46607  12.786  12.447   2.042  0.2271  0.1159 -0.0142
30799W        W46608   5.485   5.051   3.744  0.0119  0.1569 -0.2413
30800W        W46609  10.872   7.319   3.483  0.3790 -0.3028  0.1392
30801W        W46610   1.304   3.256   1.042  0.1685 -0.0841  0.1413
30802W        W46611  18.234  16.241   1.167  0.1566  0.3025  0.4773
30803W        W46612   9.685  12.971   0.246 -0.1456  0.0830  0.4491
30804W        W46613   9.667   7.689  12.147  0.1339  0.2439 -0.1380
30805W        W46614   6.212   3.741  14.397  0.5890 -0.0955  0.2432
30806W        W46615  18.636   7.784   2.925  0.1648  0.0762 -0.1878
30807W        W46616   6.273  18.604  13.492 -0.0998  0.3509 -0.2016
30808W        W46617  10.033   7.594   9.670  0.3555  0.0029  0.2871
30809W        W46618  11.483   0.786  10.971  0.0916  0.0046  0.1333
30810W        W46619   5.741  14.406   0.060 -0.3226  0.0669  0.0672
30811W        W46620  10.140   8.393   3.650  0.0003  0.1626  0.0386
30812W        W46621  14.674   9.116   2.816  0.1797  0.0160  0.1868
30813W        W46622   8.846   2.279  11.084  0.0978  0.0167  0.0436
30814W        W46623   6.081   1.640   5.343 -0.0817 -0.2062 -0.1580
30815W        W46624  12.035   1.765  14.842 -0.0900 -0.1420 -0.0812
30816W        W46625   0.429   0.553   0.951  0.2253  0.0396  0.1438
30817W        W46626  10.388  15.359   4.817  0.1702  0.0007 -0.0242
30818W        W46627  10.909  12.089  10.542  0.0149 -0.0533 -0.3323
30819W        W46628  10.441  12.090  14.620  0.1147 -0.1725  0.1083
30820W        W46629  16.493  12.922   1.420 -0.1327 -0.1746  0.1326
30821W        W46630  18.636  18.548   0.821  0.0218  0.2211  0.0286
30822W        W46631   9.399   5.743   3.846  0.2916  0.0877 -0.0606
30823W        W46632  17.798  12.659  11.772  0.1584 -0.3116  0.4138
30824W        W46633   6.842   0.568   4.170  0.1206  0.0185 -0.0053
30825W        W46634   0.691  16.085  14.425  0.1960  0.3558 -0.4469
30826W        W46635   2.768   9.842  11.454 -0.2646  0.2107  0.2066
30827W        W46636   1.393   1.425   1.406  0.0711 -0.1097 -0.3412
30828W        W46637   3.853  14.459   3.233  0.0470  0.4193 -0.2154
30829W        W46638   9.751  17.733   1.306  0.2417 -0.2445  0.1735
30830W        W46639   7.938  14.687  12.666  0.0384  0.0041 -0.2086
30831W        W46640   1.156   1.744   3.723  0.0703 -0.1020  0.5473
30832W        W46641   5.467   5.629   3.111  0.0858 -0.2367 -0.1132
30833W        W46642  11.233   2.470   2.635 -0.3676  0.1221 -0.0512
30834W        W46643  18.279  15.530   4.592 -0.0775  0.0004  0.0924
30835W        W46644   8.641   7.822   0.447  0.1240  0.0613  0.3701
30836W        W46645  11.049   6.838   1.308  0.2131 -0.0761 -0.1051
30837W        W46646  10.327   6.434  15.070  0.2442  0.2516 -0.3048
30838W        W46647   1.983  16.115   3.783 -0.0118  0.0732  0.3390
30839W        W46648   6.083  10.928   1.777 -0.2229  0.0759 -0.3287
30840W        W46649   9.260   7.046   4.866 -0.1349 -0.0335  0.1620
30841W        W46650  14.796  12.493   9.700 -0.1583 -0.3186  0.1220
30842W        W46651   3.859  11.348  14.222  0.4152 -0.0558  0.1253
30843W        W46652  14.136   7.040   0.454 -0.2778 -0.4450  0.0106
30844W        W46653   6.474  12.203   4.513  0.2414  0.0827  0.0090
30845W        W46654   2.473  11.568   1.212 -0.1236  0.0298  0.1866
30846W        W46655   6.354  17.169  11.848 -0.0940  0.0464  0.2365
30847W        W46656  12.154  17.333   4.597 -0.1377  0.0489 -0.1441
30848W        W46657  11.224  13.072   0.618 -0.0614 -0.0293  0.3360
30849W        W46658  13.120  11.415   2.613 -0.2509  0.3317  0.1340
30850W        W46659   2.525  17.176   1.699 -0.2083  0.2676 -0.2041
30851W        W46660  11.088  11.272  11.157  0.4173 -0.4810  0.1450
30852W        W46661   1.032   0.502   1.219 -0.0272 -0.0362  0.3191
30853W        W46662   0.154  14.194   2.538 -0.2767  0.1753 -0.1285
30854W        W46663  18.041   9.921   3.784 -0.1060 -0.0738  0.0235
30855W        W46664  10.852  12.036  13.574  0.2620  0.4824 -0.1338
30856W        W46665   8.019   3.162   1.529  0.2351  0.1506  0.2029
30857W        W46666  10.630  12.146   0.819 -0.1151  0.2603 -0.1632
30858W        W46667   4.571   2.152   5.679  0.4364 -0.1141 -0.1463
30859W        W46668   7.417  13.303   3.612  0.0663  0.0899  0.3639
30860W        W46669   7.755   6.265   3.618  0.0611  0.1834  0.3738
30861W        W46670   1.153  12.383  14.339 -0.2074  0.0533  0.1360
30862W        W46671   2.023  18.701   1.407  0.1051 -0.0708  0.2008
30863W        W46672   6.762   1.210   4.677  0.0459 -0.0272 -0.0370
30864W        W46673  10.695   1.301  11.203  0.0720  0.1492  0.0849
30865W        W46674  14.743  17.711  11.863  0.2234 -0.2337  0.2871
30866W        W46675  18.577  14.555   2.316  0.3234  0.5333  0.1951
30867W        W46676   2.603   4.131  10.443  0.0282  0.0676 -0.4219
30868W        W46677  16.883  16.303   4.717  0.1486 -0.2150 -0.0981
30869W        W46678  17.259  11.543   9.479  0.0083  0.1956 -0.0244
30870W        W46679  14.640  12.394   3.070 -0.0942 -0.0592  0.0407
30871W        W46680   4.660   8.047  14.122  0.0086  0.0623 -0.0173
30872W        W46681  16.651  17.245   2.464  0.1471  0.1549 -0.0800
30873W        W46682  17.648   2.579   2.111  0.1517 -0.3460 -0.1753
30874W        W46683   9.481  14.698   1.319 -0.4131  0.2109  0.0207
30875W        W46684  12.572  18.171  15.081  0.3092 -0.1892  0.1206
30876W        W46685   4.764   7.910   0.753 -0.0912  0.2582  0.0924
30877W        W46686  10.975   9.681   0.111 -0.0134 -0.0714 -0.3125
30878W        W46687  12.407   5.433   4.894 -0.0372  0.1347  0.2166
30879W        W46688   1.618   6.954  11.149 -0.1403 -0.0638 -0.0676
30880W        W46689   8.196   4.955   1.479  0.1397 -0.2823  0.1622
30881W        W46690  11.139   3.512  13.683 -0.0853  0.3043 -0.0538
30882W        W46691  13.403   3.590   3.698 -0.0801 -0.1773 -0.0587
30883W        W46692   3.426  17.718  14.102  0.2401 -0.0067  0.0217
30884W        W46693  12.875   1.024  12.164  0.1606  0.0937 -0.1734
30885W        W46694   2.259  17.962  14.193  0.3181  0.0663  0.1069
30886W        W46695   7.901   5.435   2.384 -0.0455 -0.1480  0.1337
30887W        W46696  16.292  12.235  15.492 -0.0491 -0.3361 -0.3099
30888W        W46697  15.775   1.674   3.882 -0.0235  0.2635  0.0993
30889W        W46698  14.277   5.903   4.149  0.3080  0.1123 -0.0480
30890W        W46699   5.475   3.324   5.183 -0.0258 -0.0266  0.0467
30891W        W46700   6.860  16.801  12.627 -0.0223  0.1206 -0.0892
30892W        W46701  12.972   4.653   3.465 -0.0844 -0.0986 -0.2304
30893W        W46702  17.018  14.862  14.123  0.2078 -0.0923 -0.1061
30894W        W46703  18.514   5.818  14.894  0.2818  0.2770 -0.3144
30895W        W46704  10.658  14.506   1.861 -0.0018  0.0967 -0.1624
30896W        W46705   3.164  10.615  11.298  0.1157 -0.0561  0.0032
30897W        W46706   4.985   0.862   3.520  0.1110 -0.1608  0.1546
30898W        W46707  11.306  12.173  11.888 -0.1415 -0.3133  0.1804
30899W        W46708   7.355   5.503  14.810 -0.0447  0.0332  0.1858
30900W        W46709  16.157  13.088  10.557 -0.0416  0.0045  0.1509
30901W        W46710  15.243   6.338  15.238  0.1626  0.2714 -0.0204
30902W        W46711  13.638   9.299  14.033  0.2262  0.1542  0.2089
30903W        W46712   7.141   3.607   1.220 -0.0957 -0.1175  0.0412
30904W        W46713   4.556   3.576  10.131  0.2572 -0.1515 -0.4368
30905W        W46714  16.965  18.113  12.654 -0.1898  0.0080 -0.1632
30906W        W46715  17.836  15.050   4.416  0.0382  0.4637 -0.0600
30907W        W46716   5.243   9.443  13.421 -0.1019 -0.1056 -0.3308
30908W        W46717  18.351  11.431  10.911 -0.1489  0.0306 -0.1857
30909W        W46718  13.485  15.493  10.650  0.1865  0.1351 -0.0894
30910W        W46719   8.154  13.626   3.255  0.1335  0.1179 -0.0694
30911W        W46720  17.901  16.904  11.918  0.0188  0.1544 -0.0158
30912W        W46721   9.285   3.948   3.821  0.0084  0.0064  0.1917
30913W        W46722  15.574   2.890   3.276  0.0416  0.1529 -0.0715
30914W        W46723   6.882  13.564  12.758 -0.2884 -0.1459 -0.0205
30915W        W46724   7.706   5.876  14.858 -0.0234 -0.0097 -0.2989
30916W        W46725  10.731  13.953  10.399  0.0551  0.5875 -0.0748
30917W        W46726   0.395   1.512   1.003 -0.1652 -0.0367 -0.0106
30918W        W46727  18.501  14.569  12.894  0.0493  0.2417  0.0149
30919W        W46728  10.696   1.305   3.047 -0.0169  0.0712 -0.0127
30920W        W46729   1.270   2.640   2.775 -0.2690 -0.1362 -0.1555
30921W        W46730   8.553   4.156   0.149 -0.0978  0.0430 -0.0316
30922W        W46731  14.067  10.376   5.722  0.1270  0.1090  0.4452
30923W        W46732   8.171   9.097  13.309  0.0204  0.2996 -0.1503
30924W        W46733   1.329  10.742  12.228 -0.0197 -0.0637 -0.1339
30925W        W46734   8.239   5.782   5.089 -0.1129  0.1779 -0.4044
30926W        W46735  14.526  18.313  14.250 -0.2044 -0.0453 -0.0228
30927W        W46736  16.365   8.796   2.827  0.3395 -0.0841  0.0928
30928W        W46737  17.477   6.429   3.364  0.0092  0.2546  0.0839
30929W        W46738   4.200   4.649  14.772 -0.1815 -0.3577  0.0164
30930W        W46739   3.088   9.403   3.843 -0.2105 -0.2198  0.0325
30931W        W46740  15.630   2.626   0.244 -0.1834 -0.0079 -0.3228
30932W        W46741  14.201   2.737  14.671 -0.1652  0.1352 -0.4225
30933W        W46742  10.052   6.504  10.706  0.1940 -0.5014 -0.1843
30934W        W46743   3.015   9.932  10.658  0.0736 -0.1916 -0.1459
30935W        W46744   5.635  14.502  11.699  0.0385  0.0864  0.2722
30936W        W46745  18.512   9.981   0.411  0.0586  0.0498  0.1318
30937W        W46746  18.284   3.491  10.916  0.4030 -0.0703 -0.2518
30938W        W46747   0.907  18.010   0.829 -0.2283 -0.0142  0.1275
30939W        W46748  15.062  11.989  15.238  0.0270  0.2131 -0.0264
30940W        W46749   6.454  11.967   4.052 -0.1113 -0.1453  0.1208
30941W        W46750  17.215   6.088  14.002  0.3906 -0.0793  0.0941
30942W        W46751   1.492  11.606   0.137 -0.0469  0.1866 -0.2362
30943W        W46752   7.205   6.128   3.617  0.0170  0.1237 -0.1055
30944W        W46753   6.038   2.484   9.841  0.0979  0.0130  0.3563
30945W        W46754   3.936   5.446   2.455  0.1003  0.3003 -0.2176
30946W        W46755   9.426   5.961   0.638  0.0435  0.2259 -0.1050
30947W        W46756  17.096   3.335   5.307 -0.3625 -0.2676 -0.2608
30948W        W46757   9.781   3.366  11.924  0.1441 -0.0334  0.0340
30949W        W46758  18.188   7.029   0.625  0.3670  0.1172  0.0646
30950W        W46759  13.238   5.727  12.595 -0.0739 -0.0293 -0.0549
30951W        W46760  16.564  16.707  10.958 -0.1044  0.2412 -0.1035
30952W        W46761   0.862   5.441  15.485  0.4884 -0.1376  0.0512
30953W        W46762   0.886  10.519  13.171  0.0026  0.0235  0.1888
30954W        W46763   9.801  13.186   4.933  0.1847  0.0592 -0.1495
30955W        W46764   5.945  10.798   3.902 -0.0423 -0.2937 -0.0668
30956W        W46765  13.249   1.377  11.169 -0.3046  0.1767 -0.0880
30957W        W46766  18.089  15.563  14.639 -0.0117 -0.2568 -0.0510
30958W        W46767  17.613   3.554   2.369  0.1363 -0.0130  0.0210
30959W        W46768  13.966  18.602   2.798  0.1794 -0.2393 -0.0744
30960W        W46769   7.748  17.820  10.996 -0.3607 -0.1210  0.3097
30961W        W46770   8.503   3.295   6.159  0.1069  0.1659  0.1532
30962W        W46771  14.026  17.698  12.834 -0.2054 -0.0877 -0.0999
30963W        W46772  18.683  14.999  13.101 -0.1581 -0.0439  0.2205
30964W        W46773   3.847  16.080   2.227  0.0549  0.1337 -0.0625
30965W        W46774  14.997  18.088  12.462  0.1215  0.1080 -0.0417
30966W        W46775  13.263   5.609   5.011  0.0851 -0.0173 -0.1211
30967W        W46776   5.667   9.790   0.372 -0.2215  0.2043 -0.3315
30968W        W46777   1.436  10.907  13.614  0.0817  0.1114  0.0280
30969W        W46778   6.833  14.017  15.294 -0.1230  0.3922  0.1212
30970W        W46779   0.749  13.094   2.465 -0.1990  0.1614  0.0348
30971W        W46780   8.222   4.969   0.009  0.0285 -0.1590  0.0372
30972W        W46781   5.987  10.632   0.003  0.0359 -0.0143 -0.0710
30973W        W46782   1.239  11.169   4.576  0.1986  0.0032 -0.1192
30974W        W46783  14.252   7.977   1.451  0.0793  0.3778  0.0886
30975W        W46784   8.496   8.593   5.810  0.2206  0.3068 -0.3357
30976W        W46785   3.599  12.723  14.378  0.0337 -0.1164 -0.2462
30977W        W46786  18.170   9.830  10.264  0.1944 -0.0844 -0.1213
30978W        W46787   2.518   2.520   0.544 -0.1362 -0.0929  0.1775
30979W        W46788  10.150  13.374  10.571 -0.1153 -0.0707  0.1131
30980W        W46789   4.122   5.707   4.002  0.0799  0.4813  0.2370
30981W        W46790  11.777   7.408  14.396  0.2246 -0.0254 -0.3398
30982W        W46791   2.141  10.773  10.804  0.2592  0.0078  0.0686
30983W        W46792  11.802  13.700   1.240  0.2367 -0.0188  0.0430
30984W        W46793  10.102   4.218   5.756  0.1881  0.2907  0.3689
30985W        W46794   2.725   4.267   4.777  0.0415 -0.2323  0.1661
30986W        W46795   7.190   4.720   4.706  0.1077 -0.1012 -0.5948
30987W        W46796   8.263  15.993  13.102  0.1130  0.0343  0.2948
30988W        W46797   2.519  18.193  13.036  0.0715 -0.1333 -0.0636
30989W        W46798   3.712   8.231   1.859 -0.1338  0.0898  0.0979
30990W        W46799   3.290  17.764   3.328 -0.1307 -0.0429  0.0888
30991W        W46800   4.745  15.457   5.543  0.1489 -0.0126 -0.0314
30992W        W46801   2.748  10.344   1.514  0.1708  0.1372  0.2035
30993W        W46802  17.367  16.268  14.738 -0.0302  0.0922  0.0196
30994W        W46803   5.303  11.891   1.228 -0.1686 -0.1517 -0.1251
30995W        W46804  15.071   1.589  12.546 -0.1034  0.0310 -0.1794
30996W        W46805   9.196  11.245  11.251 -0.0306  0.0063 -0.0391
30997W        W46806   7.389  13.804  13.601  0.0134  0.0039  0.2500
30998W        W46807  15.990  12.903  13.104 -0.3157 -0.3350  0.0604
30999W        W46808   1.156   3.456  14.629  0.0847  0.1405 -0.2982
31000W        W46809  11.252   5.199  14.311 -0.1753  0.0416  0.0937
31001W        W46810  16.668   4.671  14.067 -0.0689  0.1528 -0.2466
31002W        W46811   9.457   4.429   3.640  0.0088 -0.1191  0.0029
31003W        W46812   4.098   9.815  14.921  0.1522 -0.2102  0.0746
31004W        W46813  12.598   4.330   2.733  0.1836  0.3802  0.0278
31005W        W46814   6.227   3.606  11.463 -0.1308 -0.4521 -0.1321
31006W        W46815  18.498   9.855   3.917  0.0569  0.1003  0.0845
31007W        W46816   6.666   9.377  10.547  0.0663 -0.1030  0.0888
31008W        W46817  10.002   6.964   3.541 -0.3531 -0.3344  0.0910
31009W        W46818  14.659  14.913   4.154  0.0081 -0.0500 -0.2804
31010W        W46819   9.408  15.707   3.972  0.1843 -0.0883  0.0389
31011W        W46820  16.523  13.210  12.986  0.0142  0.3114  0.2440
31012W        W46821  11.716   4.344  14.233  0.3525 -0.1706 -0.3732
31013W        W46822   0.533  12.212  15.044  0.0621  0.0412  0.3368
31014W        W46823  16.263   8.801   0.532 -0.0781  0.1001 -0.0052
31015W        W46824   2.709   7.709  10.691 -0.0471 -0.0501 -0.0519
31016W        W46825  18.182   8.594  11.900  0.2366 -0.2353 -0.2781
31017W        W46826  10.158  13.125  14.761  0.2567  0.0583 -0.0785
31018W        W46827  18.410  18.033  14.346 -0.0654  0.0194  0.3157
31019W        W46828   8.203   4.394   4.251  0.0836  0.2043 -0.0556
31020W        W46829   1.121  14.181  15.464 -0.1347  0.2109 -0.4052
31021W        W46830   0.699   7.925  14.504 -0.1343  0.2342  0.1416
31022W        W46831  10.742  18.319   9.999  0.0540 -0.0226 -0.0459
31023W        W46832   4.166   5.712  10.600 -0.0862  0.2991 -0.1134
31024W        W46833  16.345  10.339  14.772 -0.4104  0.4135 -0.0070
31025W        W46834  10.811   3.895  13.675 -0.1666 -0.0188 -0.2518
31026W        W46835  16.198  13.846  14.528 -0.0863 -0.1304  0.3168
31027W        W46836   7.678   6.684  14.057  0.1778  0.0966 -0.0484
31028W        W46837   3.761   1.131  12.429 -0.2312  0.1737 -0.1732
31029W        W46838   2.815  11.829  12.452  0.0700  0.1215 -0.2530
31030W        W46839  12.484  18.338   4.754  0.6533 -0.1484  0.0208
31031W        W46840  10.666   8.086  13.057  0.1920 -0.3267 -0.2118
31032W        W46841   1.652  12.479  14.050 -0.0107 -0.1876 -0.0657
31033W        W46842   1.300  14.693  12.935 -0.4473 -0.0727  0.0186
31034W        W46843  18.027   8.482  13.381 -0.0850 -0.0071 -0.1458
31035W        W46844  10.505  14.351  12.176 -0.0233  0.0133  0.2159
31036W        W46845   7.423   0.569   3.108 -0.1988 -0.1753  0.1576
31037W        W46846   4.729  10.122   1.135  0.0977  0.1767  0.3573
31038W        W46847  18.111  11.766  15.062  0.2182 -0.0218  0.0216
31039W        W46848   7.563  18.699  10.631 -0.2676 -0.1094 -0.1487
31040W        W46849   4.554  16.354   2.645  0.0466 -0.0171 -0.1459
31041W        W46850  14.240   5.159   5.209  0.2703 -0.2607 -0.0079
31042W        W46851   1.878  13.684  12.035 -0.2378  0.0281  0.0370
31043W        W46852   8.384   5.750  13.060 -0.0878  0.2058 -0.2671
31044W        W46853  18.768   3.698  13.252 -0.0318  0.0306 -0.1971
31045W        W46854   4.798  15.742  13.923  0.1222  0.0880 -0.3147
31046W        W46855  16.004   1.868   5.885  0.2422  0.4297 -0.0713
31047W        W46856  12.282   7.923  13.739 -0.0706 -0.3138  0.0005
31048W        W46857   3.910  11.334   1.576  0.2012  0.1976  0.3926
31049W        W46858   8.153   9.625  12.137  0.0905  0.0575 -0.2682
31050W        W46859   6.580  10.884  11.624 -0.1090 -0.0251  0.1204
31051W        W46860  17.100   7.528   3.378 -0.1027  0.0888  0.0424
31052W        W46861  11.538   9.672  10.295 -0.2880  0.2378  0.3719
31053W        W46862   7.017   2.073   9.926  0.2038  0.2651 -0.2579
31054W        W46863   9.575   0.345  12.685 -0.1756 -0.1013 -0.1382
31055W        W46864   7.337  14.957   3.988 -0.0721 -0.2200 -0.4316
31056W        W46865   7.165   6.051   4.119  0.0354  0.3956  0.3206
31057W        W46866  14.604   7.788  13.862  0.3434  0.1431  0.0947
31058W        W46867  15.903  11.897  12.669  0.1109 -0.0431  0.4677
31059W        W46868  13.505   6.399   0.303 -0.3051 -0.1154  0.0903
31060W        W46869   5.740  14.700  13.406 -0.4660 -0.0049 -0.0510
31061W        W46870   7.857  15.354  10.960  0.1843  0.1984  0.0267
31062W        W46871  14.552  17.438  15.106  0.2147 -0.0375  0.0582
31063W        W46872   5.384   5.629   3.751  0.0897  0.0246 -0.0306
31064W        W46873   2.071   3.961  11.883  0.0646  0.1111  0.0489
31065W        W46874   4.528  10.002   2.459 -0.1385 -0.0566  0.2622
31066W        W46875  17.385  17.369   0.920  0.0286 -0.0730  0.1842
31067W        W46876  17.724  15.964   1.918 -0.2216  0.1886 -0.1028
31068W        W46877  13.003  13.640   0.888  0.0177  0.2556  0.0973
31069W        W46878  10.294   2.116   5.631 -0.1048  0.0461 -0.0433
31070W        W46879   0.778   8.710  13.313  0.0833  0.3214 -0.1764
31071W        W46880  11.116  13.590   0.716  0.2627  0.1016  0.2732
31072W        W46881  15.835   6.985  12.216  0.0068  0.4066  0.0809
31073W        W46882   3.757   9.561   0.055  0.0613  0.0868 -0.2238
31074W        W46883   6.351   8.804  13.400 -0.2613  0.3260 -0.0946
31075W        W46884   8.553   6.305   4.007 -0.1036  0.1599 -0.0151
31076W        W46885   8.968  11.170   4.558  0.0913  0.1297 -0.0641
31077W        W46886   1.075   0.491  12.976  0.0124 -0.0055 -0.1294
31078W        W46887   6.073   2.774  10.602 -0.1878 -0.0103  0.5090
31079W        W46888   4.567  11.922  11.992  0.0714  0.0923  0.1885
31080W        W46889   7.365   9.210  11.833  0.2393  0.0239  0.1792
31081W        W46890  10.296  12.573   1.378 -0.1350  0.2682 -0.0306
31082W        W46891   3.697   7.661   4.041  0.2243 -0.3601 -0.2671
31083W        W46892  16.748   7.272  13.208  0.2496  0.0546  0.0127
31084W        W46893   1.772   6.632  11.732  0.0443  0.0716 -0.0135
31085W        W46894   1.801  13.739   2.171 -0.0592 -0.3015  0.0806
31086W        W46895  18.694   7.474   3.302  0.4288  0.1018 -0.2333
31087W        W46896  10.413  14.209   2.208  0.0949  0.1199 -0.2063
31088W        W46897   1.466  12.854   2.069  0.0700 -0.2100 -0.1153
31089W        W46898   3.669  10.052   3.740  0.1702 -0.0750 -0.1309
31090W        W46899   1.414   4.982   1.695  0.0792  0.2485  0.0893
31091W        W46900   7.696  13.037  11.815  0.0481  0.5007 -0.1116
31092W        W46901   4.179  10.379  10.904 -0.0238 -0.1179 -0.1353
31093W        W46902   1.003   2.389  11.853 -0.0240 -0.4195  0.1030
31094W        W46903  15.131   6.164   3.969  0.0043  0.3152  0.3244
31095W        W46904  13.610   0.414  12.540 -0.0347  0.1572 -0.1607
31096W        W46905  15.786  11.143  11.613  0.2225  0.2016  0.0802
31097W        W46906   6.048  10.604   1.419 -0.0312  0.0042 -0.1925
31098W        W46907  14.319   5.777  12.300  0.1301 -0.4316 -0.1271
31099W        W46908   2.291   0.864  10.371 -0.2621  0.1111  0.1308
31100W        W46909   6.915  16.878  10.591  0.0430  0.1825 -0.1009
31101W        W46910   3.489   5.556  12.144 -0.3174 -0.0085 -0.0203
31102W        W46911   0.042  11.761   0.680 -0.0478  0.1588 -0.0719
31103W        W46912   7.334   0.664   0.008  0.1875  0.2944  0.0010
31104W        W46913   9.824  16.050   4.812  0.3854 -0.0863 -0.0335
31105W        W46914  10.017   8.726  14.824  0.0499 -0.1281  0.1333
31106W        W46915   5.862   5.434   4.087 -0.1626  0.2002  0.0334
31107W        W46916   2.208  16.204  11.444 -0.1463 -0.0911 -0.1130
31108W        W46917   4.312   7.301  14.827  0.1986 -0.0557  0.0023
31109W        W46918   7.433   9.464   5.113  0.0636  0.0654  0.0609
31110W        W46919  14.589  13.966  11.433  0.1848 -0.2771 -0.4179
31111W        W46920   4.495   9.458   3.003  0.0478  0.3766  0.1500
31112W        W46921   6.271   2.692   1.210  0.1151 -0.4693  0.1238
31113W        W46922   5.502  11.747  12.455 -0.1392 -0.0147 -0.0924
31114W        W46923   3.546  10.181  15.036  0.0221  0.0388  0.1109
31115W        W46924   2.791   0.864  11.065 -0.2347  0.2865  0.1085
31116W        W46925  18.465  14.349   2.884  0.2120 -0.0092  0.1214
31117W        W46926   1.619  10.678  14.487 -0.4270  0.0467  0.1945
31118W        W46927  12.136  13.900   4.123  0.1824  0.0271 -0.0196
31119W        W46928   9.088  14.168   4.420  0.0393  0.1381 -0.1192
31120W        W46929  13.136  10.967   4.881 -0.1566 -0.1847 -0.1886
31121W        W46930  17.006  18.503  12.329  0.2078 -0.1420  0.1516
31122W        W46931   8.735   0.787   3.412  0.0524 -0.1811  0.2760
31123W        W46932  12.636   3.748  11.734  0.0582 -0.1848  0.1200
31124W        W46933   3.205  17.337   4.801  0.0031 -0.1499 -0.1329
31125W        W46934   3.955   4.568   2.184  0.1486 -0.0620 -0.1005
31126W        W46935  11.791   5.815   2.353 -0.3251 -0.0277  0.2028
31127W        W46936   4.757  16.830   2.783 -0.0460  0.0012  0.1335
31128W        W46937  10.001  13.829  15.199 -0.1078 -0.0035  0.3672
31129W        W46938  11.913  10.218  11.940  0.1546  0.4295 -0.0133
31130W        W46939   2.063   0.871   3.386  0.0362  0.1872 -0.2297
31131W        W46940   2.260  14.606  15.068 -0.0655 -0.0940 -0.1452
31132W        W46941  14.530  14.826   4.654  0.0739 -0.0239 -0.0614
31133W        W46942   3.944  12.378  14.337 -0.1995  0.1967  0.0156
31134W        W46943   2.715  17.419   0.758 -0.2704 -0.0063 -0.2142
31135W        W46944   4.469   7.366  15.359  0.0030 -0.0339 -0.1651
31136W        W46945   6.629   0.336   4.996  0.1323 -0.2984  0.1011
31137W        W46946   5.185  14.576  13.820  0.1680  0.3099 -0.3058
31138W        W46947   3.546  13.358  11.474  0.0902  0.2229 -0.1294
31139W        W46948   6.305   0.464   3.400  0.2234 -0.0126  0.4188
31140W        W46949   5.715   3.636   4.894  0.1211 -0.2709  0.1643
31141W        W46950  17.140  14.171  12.284  0.2315  0.0649  0.0089
31142W        W46951   6.304   5.441   0.724  0.1098  0.3058  0.0309
31143W        W46952   7.534  18.183   1.167 -0.0480  0.1273  0.3345
31144W        W46953  12.197   8.258   5.007 -0.0765 -0.0856 -0.1923
31145W        W46954   2.039  17.917   1.686  0.2203 -0.1407 -0.1557
31146W        W46955   8.226  18.539   2.562 -0.1994 -0.2900 -0.0737
31147W        W46956   3.297   8.795   1.770 -0.1117 -0.1602 -0.1330
31148W        W46957   6.359  11.003   1.334  0.0827  0.2821 -0.0899
31149W        W46958  12.611  17.825   0.800  0.2149 -0.1164 -0.0706
31150W        W46959   5.279  13.912   2.710  0.2104 -0.0387 -0.1447
31151W        W46960  15.439  16.972  13.893  0.1142  0.3322 -0.2691
31152W        W46961  14.710   6.050  12.098 -0.2151  0.1462  0.3188
31153W        W46962  11.890   7.648  10.589 -0.3061 -0.0402  0.2919
31154W        W46963  16.509   8.375   0.335  0.1656  0.0091  0.1088
31155W        W46964   1.874   3.604  14.008  0.0857  0.0165  0.3587
31156W        W46965  12.446   9.578  14.711  0.5084  0.0659 -0.0679
31157W        W46966  15.112  11.533   3.175  0.2037 -0.1433  0.1472
31158W        W46967  17.278   0.969   0.990 -0.1153  0.2179  0.1976
31159W        W46968  11.844   3.898  12.170  0.1633  0.2627  0.5642
31160W        W46969   9.292   6.676  11.635 -0.0748  0.1334  0.1161
31161W        W46970  17.192  13.955   1.255 -0.1356 -0.0924 -0.1745
31162W        W46971   0.173  18.565  15.025  0.1746  0.1181  0.0981
31163W        W46972   5.083   9.482  15.309 -0.1859  0.0547  0.1450
31164W        W46973   9.019  16.098  15.275  0.0367 -0.0730  0.2230
31165W        W46974   1.079  12.512   3.500 -0.0589 -0.1230  0.0084
31166W        W46975   8.229   0.589   4.540  0.3607 -0.0712  0.0089
31167W        W46976  18.221   0.684   5.793  0.2763  0.2542  0.3452
31168W        W46977  18.129  17.510   1.647 -0.0263  0.0861  0.1317
31169W        W46978  17.938   6.883   1.896  0.0225  0.0487 -0.1574
31170W        W46979   9.393   1.688   3.713 -0.1039 -0.3974 -0.0303
31171W        W46980   1.503   3.592   3.157 -0.2176 -0.0858  0.0721
31172W        W46981  15.941   7.898   1.440  0.1737  0.1887  0.0344
31173W        W46982   8.980  10.381  15.173  0.1496 -0.0178 -0.0586
31174W        W46983  11.957  16.013   5.806 -0.3025  0.2201 -0.2487
31175W        W46984   7.208  16.013   4.153 -0.0174  0.2666 -0.0890
31176W        W46985   2.088   3.994  13.783 -0.2417  0.0236 -0.0343
31177W        W46986   7.839   5.429  14.838 -0.2177  0.0154 -0.1728
31178W        W46987   4.015   3.159  11.137  0.2232 -0.0741  0.2135
31179W        W46988   8.268   9.447   2.768  0.0433 -0.1994 -0.0840
31180W        W46989  12.080  18.568  14.160 -0.2357 -0.3927  0.1432
31181W        W46990   2.972  17.905  13.842  0.2824 -0.0520 -0.0010
31182W        W46991   8.814   0.318   3.603  0.1523 -0.0839  0.0756
31183W        W46992   7.435   8.310  14.873 -0.0538  0.0925 -0.0177
31184W        W46993   6.756  16.829  14.986 -0.1428 -0.2042  0.3536
31185W        W46994  10.887  16.072  14.071  0.1086 -0.0946  0.2921
31186W        W46995  15.069   3.349   1.298  0.4942 -0.4155 -0.1594
31187W        W46996  13.946   6.030  11.983  0.0200 -0.2209  0.2926
31188W        W46997  15.832  17.394   5.086 -0.0943  0.1857  0.2476
31189W        W46998   8.543  15.863  15.384  0.0907 -0.0412 -0.0087
31190W        W46999   1.066  15.807   0.706 -0.1523 -0.2941  0.2828
31191W        W47000   7.472  18.736   2.010 -0.0648  0.0874  0.0198
31192W        W47001   4.079   3.341  10.140 -0.0284 -0.1170  0.2545
31193W        W47002   4.321  15.073  11.091  0.0248 -0.1578  0.2857
31194W        W47003   8.660   3.973  10.882  0.0222 -0.3747  0.0807
31195W        W47004   5.671  14.942   3.656 -0.0830 -0.0003 -0.4157
31196W        W47005   7.336   1.002   3.954 -0.3519  0.2642  0.0360
31197W        W47006   2.429   0.465  12.874 -0.0993  0.0960  0.0827
31198W        W47007   6.045   5.496  14.194  0.5283 -0.0112 -0.0493
31199W        W47008   6.758   1.712  13.577  0.0306 -0.1039 -0.2122
31200W        W47009   9.534   6.741   3.772  0.0521 -0.0621 -0.0746
31201W        W47010  14.005  10.122   5.050  0.0118 -0.0049 -0.4680
31202W        W47011  10.542   6.852   1.807 -0.1715  0.1867 -0.0701
31203W        W47012  10.021   3.741  14.578 -0.2894  0.1456 -0.0541
31204W        W47013   5.493  18.354  12.209  0.1581  0.2719 -0.0525
31205W        W47014  12.274   7.706   3.531 -0.0239 -0.0666  0.0023
31206W        W47015  10.152   1.445   9.896 -0.1852 -0.4091  0.0400
31207W        W47016   8.634   2.723   3.313 -0.0081  0.2763 -0.1962
31208W        W47017  15.239   5.999  13.842  0.0049  0.0645  0.0346
31209W        W47018   9.331  17.513  13.976  0.0152 -0.0154  0.2006
31210W        W47019   2.115  18.447   0.923 -0.0762 -0.0831  0.0688
31211W        W47020   9.145  15.988   0.267  0.0084  0.3293 -0.0877
31212W        W47021   5.477   4.239  11.691  0.2428  0.1087 -0.1101
31213W        W47022   0.311  13.754   1.021  0.2409 -0.2265  0.1436
31214W        W47023  14.387  13.197   0.496  0.0902  0.3232  0.1416
31215W        W47024   0.869  10.926   2.713 -0.2241  0.0550 -0.2981
31216W        W47025  18.348  12.231   9.584  0.3481 -0.1730  0.2001
31217W        W47026  17.171   0.393  14.565 -0.1570  0.1000  0.1602
31218W        W47027   0.817   8.449  14.049  0.0046  0.4060 -0.0347
31219W        W47028  17.931   7.906   3.854  0.2666  0.0282 -0.1592
31220W        W47029  15.611  15.518  12.242  0.1546 -0.3345 -0.1537
31221W        W47030   4.254  12.690   3.319 -0.2304 -0.0719  0.1660
31222W        W47031  17.235   1.127  12.541 -0.0047 -0.1838  0.0814
31223W        W47032   0.360   4.772   0.497 -0.3314 -0.1932 -0.0280
31224W        W47033  13.254  18.763   4.403 -0.0019 -0.2125  0.4318
31225W        W47034  18.530   0.972   3.068 -0.2140  0.0786 -0.0035
31226W        W47035   4.859  16.104  11.627  0.2754 -0.0227 -0.1972
31227W        W47036   9.731   3.291   1.308 -0.0559  0.0991  0.0569
31228W        W47037   5.113   9.656   1.673  0.0977  0.4354 -0.1913
31229W        W47038   3.081   8.004  13.724 -0.0198  0.1811  0.0447
31230W        W47039  18.755   6.378  11.425  0.0692  0.0156  0.1394
31231W        W47040   1.500  15.898  11.733  0.2873  0.1046  0.0885
31232W        W47041  16.346   8.890   1.326 -0.2740 -0.1174  0.0141
31233W        W47042  13.828  10.274  10.749 -0.0671  0.0786 -0.0418
31234W        W47043  15.031   1.522   4.457 -0.3842  0.1651 -0.1353
31235W        W47044  16.042   1.925  15.159  0.0414 -0.3038 -0.2969
31236W        W47045  10.702  16.526   2.357  0.2432  0.3205 -0.0787
31237W        W47046  15.335  14.788  13.704 -0.0142  0.0779  0.0597
31238W        W47047   5.984   2.751  11.790  0.0834  0.3634 -0.2133
31239W        W47048  11.165  12.587  12.658 -0.0048  0.1694  0.0588
31240W        W47049   8.127   7.911  11.402  0.0599 -0.0303 -0.0096
31241W        W47050  18.229   8.646  14.670  0.0049 -0.0586 -0.0429
31242W        W47051   0.209  13.198   3.731 -0.4227 -0.2143 -0.0191
31243W        W47052  18.222   9.690  13.990  0.1051  0.0217 -0.3199
31244W        W47053  11.923   6.794  14.711  0.2614  0.5083  0.1343
31245W        W47054   8.619   7.592   0.016 -0.0287  0.0072 -0.1137
31246W        W47055   6.730   6.715  12.839  0.2268 -0.1329  0.2262
31247W        W47056   2.866   2.151  13.350 -0.0621 -0.0962  0.2207
31248W        W47057  16.907  14.261   4.577  0.2156 -0.2426 -0.0398
31249W        W47058  12.596  10.867  11.509  0.2093 -0.1621  0.2905
31250W        W47059  13.103   2.493  13.055  0.1295 -0.1003 -0.2167
31251W        W47060  10.422  10.525  14.839 -0.1481 -0.1205 -0.1908
31252W        W47061  13.191  16.053  14.157  0.0026  0.2595  0.2084
31253W        W47062  18.537  18.192   3.408 -0.0057  0.2877  0.3066
31254W        W47063   3.786  13.927   1.365  0.1911  0.1607 -0.1030
31255W        W47064   2.281   3.822   3.775 -0.3916  0.2656  0.0974
31256W        W47065   5.066   1.198   0.291  0.0211 -0.1415 -0.1229
31257W        W47066   2.649   6.281   5.376  0.1946 -0.3742 -0.1890
31258W        W47067   5.244   6.027   0.430  0.2345 -0.0136  0.1237
31259W        W47068   0.661  10.379   4.499  0.1944  0.1438  0.1189
31260W        W47069  16.376  11.312   0.320  0.2428 -0.0310  0.0952
31261W        W47070   2.579   9.694   0.717  0.1920 -0.0906  0.2111
31262W        W47071   0.399  16.521   3.156  0.2154  0.0447 -0.1965
31263W        W47072   4.697   8.548  10.992 -0.0928 -0.1622 -0.1039
31264W        W47073  13.315  18.307  13.277  0.0724  0.0149  0.1077
31265W        W47074  11.501  14.222   3.071  0.2781  0.2194 -0.0184
31266W        W47075  11.197  15.840  10.745 -0.1088  0.4285 -0.1460
31267W        W47076  13.418  16.325   2.887 -0.1591 -0.0405  0.0669
31268W        W47077  15.575  16.570   4.058  0.1818  0.0853  0.1589
31269W        W47078   7.465   4.691  11.016 -0.4838 -0.0252  0.0288
31270W        W47079  17.786  12.928  13.623  0.1276 -0.1534  0.2540
31271W        W47080   6.557  11.215  14.351 -0.2637  0.0155 -0.2731
31272W        W47081   4.482   8.779  14.469  0.0914 -0.1663  0.0379
31273W        W47082   5.980   3.457  13.432 -0.1117  0.0902  0.1260
31274W        W47083  12.092  14.610  12.111 -0.1104  0.1165 -0.2574
31275W        W47084  17.079   8.096   0.462  0.0023 -0.1804  0.0714
31276W        W47085  16.042   9.245  13.227  0.2104  0.2463 -0.1492
31277W        W47086  16.388   8.933   4.278 -0.0441  0.1260  0.4923
31278W        W47087  11.412   8.941   4.330 -0.0448  0.2519 -0.2925
31279W        W47088  12.486   6.908   5.369 -0.1751 -0.1683 -0.3664
31280W        W47089   4.511   6.055  14.535 -0.0912  0.1367 -0.0898
31281W        W47090  12.288   9.624   5.215 -0.0034 -0.2615 -0.2904
31282W        W47091  11.313  11.001   3.477  0.1965  0.0492 -0.0487
31283W        W47092  16.004   4.534  12.167  0.0944  0.2031 -0.2665
31284W        W47093  11.293  10.768   1.112 -0.0794 -0.1475 -0.0744
31285W        W47094  10.817   6.660  13.765  0.3349 -0.2016 -0.1549
31286W        W47095   4.016   9.167   2.284 -0.0302  0.1113 -0.5473
31287W        W47096   2.228  10.440  12.233 -0.1884  0.2513 -0.1944
31288W        W47097  10.250  15.285  14.150 -0.2913  0.0411  0.0951
31289W        W47098   4.366   6.145  11.426 -0.0817 -0.0745  0.1404
31290W        W47099   6.504   4.400  14.880  0.2735 -0.3320  0.1532
31291W        W47100  14.632  17.256   2.788 -0.1892 -0.1127 -0.0533
31292W        W47101   2.374   5.801   3.568  0.1051 -0.3206 -0.3193
31293W        W47102  13.606   6.446   2.094  0.3905  0.0310  0.0844
31294W        W47103  18.639   8.871  14.997  0.0411 -0.1152 -0.0986
31295W        W47104   8.937   9.973   2.141 -0.0355 -0.0677 -0.0447
31296W        W47105   0.407   3.771  12.010 -0.2079  0.0847 -0.0646
31297W        W47106  17.140  11.109   9.788 -0.2494 -0.0998 -0.0704
31298W        W47107   8.656  10.068  13.540  0.1747  0.1590 -0.1081
31299W        W47108   1.094   3.603   0.139 -0.0165 -0.3141 -0.0810
31300W        W47109   5.544   9.960  11.543 -0.1087 -0.1927 -0.1655
31301W        W47110   7.957   0.606   1.558 -0.0188 -0.0114 -0.1155
31302W        W47111  15.264  11.623   0.864 -0.2538  0.1299 -0.3345
31303W        W47112   8.504  12.209  15.119 -0.2259  0.2371  0.0062
31304W        W47113   5.031  10.160   0.628 -0.4083  0.0754  0.1830
31305W        W47114  14.105  11.369   0.484 -0.2012  0.0427 -0.2493
31306W        W47115   7.670   3.552  15.412  0.1814  0.0559 -0.2237
31307W        W47116  16.194   6.575   0.762 -0.2719 -0.1297 -0.2650
31308W        W47117   6.592  11.463  13.866  0.0355 -0.1542 -0.0070
31309W        W47118  17.462  14.689   5.933  0.1996  0.0422  0.2221
31310W        W47119   6.584   9.938  15.447  0.3430 -0.1737 -0.0263
31311W        W47120   1.170   7.283  11.044  0.2535  0.1840 -0.0176
31312W        W47121  13.206  10.376  13.899 -0.0577 -0.1118  0.3391
31313W        W47122   7.299  17.416  11.158  0.0209 -0.0057  0.3259
31314W        W47123  14.721   8.196   2.950  0.2184 -0.0035 -0.1744
31315W        W47124   6.679   5.973  14.846 -0.0090 -0.1945 -0.0736
31316W        W47125  14.522   9.482   0.864  0.0989 -0.1589  0.0751
31317W        W47126   9.569   1.420  11.864  0.5209  0.3751 -0.0472
31318W        W47127  18.779   5.853  10.957 -0.1815 -0.0704  0.2040
31319W        W47128  12.125   5.149  14.863 -0.1473 -0.1864 -0.0659
31320W        W47129  11.484  18.269  13.003 -0.0832  0.1125 -0.1151
31321W        W47130  16.858  11.548   4.398 -0.2262  0.1886 -0.2882
31322W        W47131   8.144  15.338  12.701 -0.1472 -0.2996  0.2132
31323W        W47132  13.730   0.402  10.427  0.0511  0.3246  0.1278
31324W        W47133  12.054  10.307   2.678  0.0414  0.3227 -0.0845
31325W        W47134   6.611   2.323   0.926 -0.5089  0.2283  0.1256
31326W        W47135   8.760   2.940   1.440  0.1601  0.0119  0.1250
31327W        W47136   8.923   4.788   2.868 -0.1885 -0.0581 -0.2878
31328W        W47137  14.975  15.430   2.370 -0.2903  0.1617  0.0318
31329W        W47138   4.654  12.293   3.950 -0.0738  0.0528 -0.0062
31330W        W47139   1.647   0.242  13.747 -0.1197  0.2173 -0.1467
31331W        W47140  14.572   1.057  13.044 -0.0798  0.4131 -0.1631
31332W        W47141   2.595  18.063   0.564  0.2506  0.0747 -0.2591
31333W        W47142  13.067   4.927   4.974 -0.1318 -0.0353 -0.1529
31334W        W47143  11.029  13.155   0.094  0.1136  0.2610 -0.0786
31335W        W47144  14.188  16.429  14.009 -0.0890 -0.0814  0.0308
31336W        W47145   6.264  11.968   2.826 -0.2587 -0.0164 -0.1832
31337W        W47146  15.214   2.101   3.199 -0.2270 -0.0786 -0.2235
31338W        W47147   1.880  11.617  15.440  0.2902 -0.0634  0.2654
31339W        W47148  16.151  18.615  14.774 -0.3684  0.4258  0.0263
31340W        W47149  13.305  18.312   2.086 -0.0653 -0.2691 -0.2343
31341W        W47150   7.745  12.183  12.134 -0.1593 -0.0491  0.3320
31342W        W47151   6.659  17.115   4.856 -0.0535  0.0168 -0.2664
31343W        W47152   1.549   9.715   3.271 -0.1902 -0.0628 -0.1505
31344W        W47153   2.671  17.132   0.287  0.0669  0.0335 -0.1049
31345W        W47154  12.193  12.360   2.088  0.4530  0.0950 -0.0859
31346W        W47155  11.422  18.232  14.995 -0.1067  0.1289  0.4267
31347W        W47156  10.871  17.209  14.899 -0.1019 -0.0125 -0.1714
31348W        W47157   4.370   9.858   0.676 -0.1461 -0.1471  0.1605
31349W        W47158  18.586  13.897  11.520 -0.0826  0.0588 -0.0155
31350W        W47159  16.690   8.575  11.368 -0.0221  0.1756 -0.3935
31351W        W47160   4.043   9.977   2.311  0.2019  0.1510 -0.0011
31352W        W47161   7.417   3.934  15.109 -0.2094  0.2251  0.2020
31353W        W47162  12.522   4.978  12.778 -0.0109 -0.2646 -0.0688
31354W        W47163  13.967  12.644   2.852 -0.1041  0.2365 -0.0074
31355W        W47164  11.352   2.561   4.254 -0.0167 -0.0225  0.1562
31356W        W47165  16.291  13.531   0.810 -0.1258 -0.0485  0.0002
31357W        W47166  16.093  15.853   4.725 -0.0088  0.0761 -0.0597
31358W        W47167   3.765  16.192  13.183 -0.0051  0.1620  0.2662
31359W        W47168  11.371  11.905   3.262 -0.1969  0.1663 -0.0763
31360W        W47169  15.849   9.591   4.631  0.0381  0.1241 -0.0062
31361W        W47170   4.887  15.633  13.457  0.3599  0.3615 -0.1708
31362W        W47171   4.141   2.915   3.081  0.0474 -0.0438  0.2677
31363W        W47172  12.237   7.696   0.957  0.2545  0.1381  0.2723
31364W        W47173  15.882   2.867  10.911  0.2187 -0.0856  0.1519
31365W        W47174   1.072   5.922  14.770 -0.1171  0.0038 -0.0325
31366W        W47175  13.948   2.156  12.151  0.0542  0.0253 -0.0262
31367W        W47176  18.307   0.789  14.819  0.1264 -0.3003  0.0261
31368W        W47177  16.599  15.746   0.980  0.1353  0.1530 -0.2899
31369W        W47178   1.793  10.819  13.218  0.3335 -0.1931  0.2328
31370W        W47179   3.487  18.369  12.528 -0.1520 -0.1749 -0.0450
31371W        W47180   0.788   3.348   1.115 -0.1230 -0.1659 -0.2489
31372W        W47181  16.318   2.089  14.320  0.6425 -0.3492  0.0927
31373W        W47182   6.885   6.822  10.987  0.1576 -0.2066 -0.2143
31374W        W47183  10.189   6.743  11.398 -0.3523  0.0841 -0.1877
31375W        W47184  16.054  11.073   0.588 -0.1730  0.0601  0.0902
31376W        W47185  14.611  15.605   2.708  0.2420 -0.2935  0.1491
31377W        W47186  17.926  11.843  14.060 -0.0571  0.2275  0.0196
31378W        W47187   8.387  14.188   4.230  0.2334 -0.3764  0.1530
31379W        W47188  12.347   6.180   1.493 -0.0801 -0.2266  0.3769
31380W        W47189  16.982   3.225   4.818 -0.0125 -0.0315  0.1258
31381W        W47190  17.080   3.275   2.291 -0.3190  0.1341 -0.5968
31382W        W47191   5.783  14.810   2.429  0.3919 -0.3576  0.2644
31383W        W47192   8.929   1.421   2.880 -0.3009  0.1943  0.0883
31384W        W47193   3.853   1.235  11.486 -0.0611 -0.1665 -0.3329
31385W        W47194   0.856   8.619  12.136 -0.0088  0.0646 -0.0717
31386W        W47195  14.073   9.923   2.608 -0.1960 -0.1478  0.0560
31387W        W47196   9.730  12.708   2.663 -0.0081 -0.1451 -0.0502
31388W        W47197   8.451  17.880   3.870 -0.4590 -0.3707 -0.0925
31389W        W47198  16.120   4.983  14.967 -0.0566 -0.0288 -0.1117
31390W        W47199   2.333   1.359  13.297  0.1998  0.2115 -0.0673
31391W        W47200   8.609   8.206   0.824 -0.0312 -0.0400 -0.4312
31392W        W47201   4.772  15.598  15.135 -0.1411 -0.1273  0.0311
31393W        W47202   2.014   1.510  12.536 -0.1983  0.0540 -0.0306
31394W        W47203  13.889  16.832   3.884  0.1301 -0.2248 -0.0568
31395W        W47204  14.600  15.904  11.460  0.1414 -0.0416 -0.0793
31396W        W47205  12.551   3.708   0.023  0.1406  0.0048  0.2182
31397W        W47206   2.043  14.614   2.865  0.0960  0.3712  0.0753
31398W        W47207   1.436   3.858   1.326  0.1648  0.1228 -0.0362
31399W        W47208   7.621   0.295  11.982  0.2234 -0.0357  0.1522
31400W        W47209   8.061  12.593   5.027  0.2169  0.2718  0.2813
31401W        W47210  12.050  11.193   0.108 -0.3101 -0.2890  0.0882
31402W        W47211  16.035  13.073   2.737 -0.0941  0.0775  0.1880
31403W        W47212  18.572  13.821  14.778  0.0729  0.3223  0.2943
31404W        W47213   6.601   6.857   5.293  0.2147  0.0001 -0.2896
31405W        W47214   1.549  15.899   2.567  0.1490  0.1062  0.1811
31406W        W47215  14.210  16.460   4.168  0.1066  0.1080 -0.0108
31407W        W47216   1.196  13.296  15.174  0.1291 -0.2875  0.2173
31408W        W47217   4.732  15.274   3.606 -0.1684  0.0482  0.2382
31409W        W47218   1.561   4.130   0.922  0.0686 -0.1891  0.2117
31410W        W47219   2.787   0.317   4.151 -0.0420  0.0944 -0.0906
31411W        W47220  10.787  10.148   2.104 -0.1954  0.0472  0.4241
31412W        W47221   3.356  10.358   2.765 -0.2878  0.0732 -0.1264
31413W        W47222  11.402   7.051   4.304 -0.0606  0.0940  0.1270
31414W        W47223   6.186   7.891  13.892  0.1132  0.0192  0.1848
31415W        W47224  16.223   8.861   1.861 -0.0369 -0.1311  0.0047
31416W        W47225  17.787   8.553  14.950 -0.1307  0.0122 -0.1893
31417W        W47226  13.936   5.138  12.990 -0.1537  0.0349  0.3198
31418W        W47227  11.283   6.076  14.910  0.2400  0.1279 -0.1661
31419W        W47228  10.465  11.116  10.752  0.0949  0.0547  0.1673
31420W        W47229  14.982   9.986   3.950 -0.0512  0.0312  0.0608
31421W        W47230  11.883   9.776  12.458 -0.1111  0.1694 -0.2552
31422W        W47231  18.767   1.729   4.730 -0.2356 -0.1183 -0.2893
31423W        W47232   5.161   9.713   4.393  0.0934  0.2697 -0.1645
31424W        W47233  17.231  15.380  11.886 -0.1989 -0.0548  0.1709
31425W        W47234  17.711   0.513  12.884  0.1038 -0.1224 -0.2143
31426W        W47235   4.316   4.195  10.767  0.4769 -0.2064  0.0639
31427W        W47236  17.408  13.454  12.997 -0.0750  0.2283  0.2369
31428W        W47237   8.047  11.055  11.273  0.3247 -0.0535 -0.1304
31429W        W47238  14.420  15.121   3.367  0.2582 -0.0001 -0.2359
31430W        W47239  17.304  10.423   2.856  0.1261  0.1334 -0.1522
31431W        W47240   9.816   7.795   0.951 -0.2136 -0.0268 -0.0731
31432W        W47241  15.615   7.579   2.033 -0.0854  0.1155  0.1781
31433W        W47242  11.900   8.318   2.851  0.3233  0.0392  0.1475
31434W        W47243  16.875  16.026  11.610  0.0406  0.3218 -0.0827
31435W        W47244   7.802  13.005  13.432  0.0637  0.1413  0.1678
31436W        W47245  11.735  10.336   1.651 -0.1304  0.0716  0.0151
31437W        W47246   9.366  15.862   4.823  0.2889  0.1917  0.1905
31438W        W47247  12.692  15.080  12.612  0.1892 -0.0063 -0.0886
31439W        W47248  16.970  13.110   3.850  0.0982 -0.3434 -0.1014
31440W        W47249  16.355  12.707   3.563 -0.0216  0.0590 -0.3019
31441W        W47250   2.203  15.932   4.163  0.0279  0.1539  0.2651
31442W        W47251  11.898  18.124   0.552 -0.2967 -0.1137  0.0367
31443W        W47252  18.367   9.986  12.967 -0.0364  0.3566  0.1824
31444W        W47253   8.594   7.505   5.143 -0.0545  0.5015 -0.0321
31445W        W47254   4.597   1.208   3.508  0.0767  0.1915 -0.0777
31446W        W47255   2.736   2.109   5.516 -0.4615 -0.0828  0.1744
31447W        W47256   6.982  14.181  13.555  0.1121 -0.0943  0.0846
31448W        W47257   6.268  16.216  15.192 -0.0983 -0.2336 -0.1785
31449W        W47258  15.061   4.981  11.972  0.1232  0.1066  0.1615
31450W        W47259   6.974   2.729   4.064 -0.1216 -0.0822  0.2019
31451W        W47260   2.905   0.500  15.071 -0.1103  0.2920  0.0077
31452W        W47261   0.387   3.122   3.984 -0.0632 -0.0543  0.0606
31453W        W47262   8.386   0.243   2.702 -0.1160 -0.2352  0.0852
31454W        W47263   9.593   3.642  13.254 -0.2560  0.1374  0.3028
31455W        W47264  13.892  11.507   3.809 -0.0342 -0.1072  0.0266
31456W        W47265  18.575   7.722  13.490 -0.0185 -0.0059  0.3069
31457W        W47266   8.421  14.064  13.061  0.1009  0.1362  0.1154
31458W        W47267   7.901  15.439  12.178  0.2982  0.3474 -0.0671
31459W        W47268  17.991  15.885  12.087  0.1418 -0.0371 -0.0067
31460W        W47269   2.752   0.184  11.667  0.1955 -0.0563  0.1024
31461W        W47270  14.154  18.342   5.359 -0.0460 -0.3128  0.0097
31462W        W47271   3.724   5.411   5.864 -0.0216 -0.2455  0.2923
31463W        W47272   2.271   8.388  12.925 -0.1154  0.0264 -0.0125
31464W        W47273   9.808   6.337   3.259  0.2122 -0.1874  0.0954
31465W        W47274   1.757  11.777  14.984  0.2727  0.3120 -0.1943
31466W        W47275  16.518   9.039  11.632  0.2774 -0.0338 -0.0959
31467W        W47276  16.794   6.158  13.052  0.1348  0.0970 -0.2072
31468W        W47277  11.679   3.776   2.248  0.1555 -0.1934 -0.0346
31469W        W47278   4.298  12.950   5.523  0.3029 -0.1180 -0.3035
31470W        W47279   8.193  12.568   4.521 -0.2433  0.0919  0.0227
31471W        W47280   7.826   1.908  14.944 -0.0777 -0.2246  0.1416
31472W        W47281  18.178   2.664  10.869  0.1565 -0.0434 -0.0590
31473W        W47282  13.111  15.234   1.950 -0.2796  0.0753  0.1111
31474W        W47283   2.425  13.378   3.422 -0.0913  0.1520 -0.2735
31475W        W47284   3.478   9.850  10.900  0.1607 -0.0200  0.4051
31476W        W47285  12.769  15.944   1.728 -0.0334  0.0621  0.0284
31477W        W47286   0.283  11.778  15.136 -0.2145  0.0162  0.2029
31478W        W47287   8.718  16.723   3.434  0.2224  0.3366  0.0770
31479W        W47288  15.132   0.719  14.468 -0.1552  0.1815 -0.0501
31480W        W47289   4.365   8.086   1.775  0.3706 -0.0834 -0.3839
31481W        W47290  14.091   7.894   5.366 -0.1060  0.0409 -0.0176
31482W        W47291  11.107   3.148   5.182 -0.2137  0.0241 -0.0878
31483W        W47292  11.847   4.833  15.228 -0.1028 -0.3177  0.4088
31484W        W47293   8.637   2.506   1.801 -0.2624  0.2709 -0.1261
31485W        W47294   3.569  17.500  13.656 -0.0459  0.0422  0.0795
31486W        W47295   2.227  15.925  15.485  0.0634  0.0076 -0.1619
31487W        W47296   8.706  16.720  13.286  0.2119  0.2210 -0.0736
31488W        W47297  13.471   5.075   3.365  0.0312 -0.0359 -0.1546
31489W        W47298  10.323  11.142   1.182  0.2500 -0.0267 -0.0528
31490W        W47299   3.295   3.945   3.360  0.2002 -0.4692  0.1015
31491W        W47300   0.778   0.427   3.211  0.0429  0.1488 -0.0744
31492W        W47301  10.268   3.990   3.314 -0.0957  0.1837 -0.0821
31493W        W47302  12.028  17.394  14.857  0.2293  0.0293 -0.1715
31494W        W47303  13.966   9.154  11.005 -0.0202  0.1260  0.1892
31495W        W47304   7.912   9.421   1.423 -0.0841  0.1405 -0.1976
31496W        W47305   5.423   6.709  11.073  0.0644  0.0625  0.2386
31497W        W47306  15.499   1.501   4.257  0.3271  0.1582 -0.0267
31498W        W47307   3.625  15.026  14.204 -0.3017 -0.0906  0.2124
31499W        W47308   2.818   6.831  10.898 -0.1135  0.1169  0.2511
31500W        W47309  11.795  10.839   3.385  0.1711  0.3216  0.2640
31501W        W47310   7.937   6.885   0.731  0.0351  0.1977  0.1265
31502W        W47311   9.735   6.563   2.318 -0.0009 -0.0065  0.3214
31503W        W47312  12.075  10.418   2.137 -0.0787 -0.1320  0.2069
31504W        W47313  13.707  14.378   1.050  0.1117 -0.1675  0.1246
31505W        W47314   3.989   3.700  10.972 -0.0681 -0.3721 -0.0295
31506W        W47315   5.835   3.793   3.023 -0.1690 -0.1862  0.0445
31507W        W47316  11.528  16.128  15.544  0.3108 -0.1780 -0.3859
31508W        W47317   9.425   5.626  11.833 -0.2580 -0.0526 -0.5292
31509W        W47318   4.468  12.849  11.728  0.0973  0.2757 -0.1584
31510W        W47319  14.167   9.881  11.707 -0.2208 -0.1146  0.1345
31511W        W47320  10.586   6.800   4.766  0.0451 -0.2279 -0.1477
31512W        W47321   5.171  11.537  12.805 -0.2604 -0.2406  0.0151
31513W        W47322   9.125   3.753  13.091 -0.0704  0.0137 -0.1229
31514W        W47323   9.922   9.766   2.362 -0.2672 -0.0951 -0.3744
31515W        W47324   0.307   5.784  14.736 -0.0604 -0.0207 -0.3723
31516W        W47325  11.441   9.432   4.673  0.1386 -0.1600 -0.0929
31517W        W47326   9.176   8.175   5.331  0.0194 -0.1348 -0.1535
31518W        W47327   1.349  17.635   4.000  0.1070  0.0242 -0.2692
31519W        W47328   8.857   7.010  15.237 -0.1515 -0.1660 -0.0347
31520W        W47329  18.391   4.987  10.482  0.3721 -0.0098 -0.0195
31521W        W47330   0.457  10.831  12.283  0.0296  0.0023 -0.1443
31522W        W47331   4.787  11.373   1.664  0.1400  0.1145 -0.0281
31523W        W47332   3.452   1.602   0.565  0.2605 -0.1041 -0.1648
31524W        W47333  15.293  17.717   0.794  0.4818 -0.2419  0.4509
31525W        W47334  15.660   7.975  13.896  0.2078  0.0179 -0.3079
31526W        W47335   1.945   5.399   0.728  0.1764 -0.2825 -0.3287
31527W        W47336  11.435  17.876  11.792  0.0681 -0.0945 -0.0189
31528W        W47337  17.028   7.061  10.767  0.0930 -0.1362 -0.0782
31529W        W47338  12.266  10.724   3.571 -0.1565  0.2965 -0.0330
31530W        W47339   1.130   7.573   4.646  0.3318  0.1208 -0.3062
31531W        W47340   4.627   0.684  10.843 -0.1589 -0.1053  0.0370
31532W        W47341   1.526   2.257   0.553 -0.1180 -0.0622  0.0944
31533W        W47342  11.945  13.797  13.721  0.1523  0.1492  0.1936
31534W        W47343   4.804  13.330   2.210  0.2385 -0.0259  0.1862
31535W        W47344  12.094   9.607  13.480  0.0200  0.2538 -0.4954
31536W        W47345  14.045  12.086   2.893 -0.1310  0.2833 -0.0520
31537W        W47346  16.091   8.420  12.167 -0.0320  0.0678  0.1590
31538W        W47347   5.231  14.054   0.771 -0.0597 -0.2160 -0.1512
31539W        W47348  12.757  15.425   3.538 -0.1955  0.0263  0.2758
31540W        W47349  16.697   6.243   0.571 -0.1815  0.1025  0.1166
31541W        W47350   6.236  12.868   2.514  0.0454 -0.0060  0.2670
31542W        W47351  17.672   5.531   2.219 -0.0809 -0.1636  0.0465
31543W        W47352   0.788  11.115   2.237  0.1443  0.1089 -0.0164
31544W        W47353  12.765  10.182   2.515  0.1575  0.0617  0.2966
31545W        W47354   9.507  17.070   0.464  0.0595  0.3744  0.2507
31546W        W47355   7.941   3.630  10.911  0.0462 -0.1442  0.0178
31547W        W47356   9.244   4.751  14.740  0.0560 -0.1891  0.2939
31548W        W47357  16.363  14.432   3.383 -0.1493  0.0727  0.2073
31549W        W47358   6.817   5.343   0.583 -0.1959  0.1529 -0.0215
31550W        W47359  14.396   4.406  12.160  0.0754  0.4070 -0.1939
31551W        W47360   2.670  10.654   3.837 -0.2027  0.0179 -0.2223
31552W        W47361   8.365  13.549  12.229  0.0110  0.0171 -0.1540
31553W        W47362  12.050  15.835   3.936  0.0357  0.2014 -0.2571
31554W        W47363   8.807  13.216  11.107 -0.0290 -0.4710  0.1544
31555W        W47364   8.281   6.089   0.523 -0.3134  0.0631 -0.0019
31556W        W47365  15.373   2.379   1.687  0.2472 -0.1645  0.1002
31557W        W47366  14.849   2.358   3.420  0.1940  0.1481 -0.2481
31558W        W47367   4.014   9.134  15.201 -0.1221 -0.4136  0.4580
31559W        W47368   1.160  14.004   0.972  0.0299  0.2922  0.2176
31560W        W47369  18.326   2.846  12.603 -0.0673 -0.3363  0.0549
31561W        W47370  10.556  18.294  10.457  0.1349  0.2628 -0.1641
31562W        W47371  16.667   6.363   1.540 -0.1667  0.3743  0.1107
31563W        W47372  17.030  16.797  11.381 -0.3749 -0.0026  0.3472
31564W        W47373  17.677   6.842  12.448 -0.0218  0.1996  0.5073
31565W        W47374  15.894   6.379   0.400 -0.1804  0.0689 -0.1473
31566W        W47375  13.082   6.778   1.406 -0.1399 -0.0322 -0.1684
31567W        W47376   6.606   4.821  13.877 -0.1553  0.0544  0.2844
31568W        W47377   2.399   3.419   9.622  0.3030 -0.1679  0.2140
31569W        W47378   8.504   2.031  12.086  0.1818 -0.1711  0.0822
31570W        W47379   7.841   2.974  11.327 -0.4344  0.0288 -0.0750
31571W        W47380  13.893  16.868   4.776  0.0943 -0.0289  0.0412
31572W        W47381   3.437  11.107  15.146 -0.2697  0.1496 -0.2732
31573W        W47382  11.744   3.408  15.173  0.2661 -0.2532 -0.1938
31574W        W47383   7.635  13.231   1.342 -0.0800 -0.2588  0.0378
31575W        W47384  14.423   6.551   3.539  0.1651 -0.2979 -0.2677
31576W        W47385  12.562   8.511  11.458  0.1913 -0.1300  0.1304
31577W        W47386  11.809  14.707   2.343 -0.2208  0.1359 -0.0211
31578W        W47387   8.924  11.592  13.101  0.0452  0.1733 -0.0349
31579W        W47388   9.808   0.580  15.457 -0.0322 -0.2852 -0.0621
31580W        W47389   5.974   0.841  10.486 -0.0334  0.2447  0.0447
31581W        W47390  10.381  15.183  13.667 -0.0784  0.0185 -0.1086
31582W        W47391  18.240  16.929   3.836  0.0458 -0.2814  0.0920
31583W        W47392   1.565   5.910  14.926 -0.1035  0.1317  0.1279
31584W        W47393  14.231  10.434  14.649  0.2700  0.0689  0.0587
31585W        W47394   6.887   0.413  13.065 -0.2055  0.0404 -0.0988
31586W        W47395  14.680   9.296  10.942 -0.1581  0.0732 -0.0350
31587W        W47396   9.199  18.323   0.882 -0.4464 -0.0496 -0.0994
31588W        W47397  16.419  13.540   2.855 -0.0965  0.0456  0.1173
31589W        W47398  12.565  16.734   5.480 -0.1357 -0.0613 -0.0721
31590W        W47399  11.694  18.598   2.565  0.1275 -0.2065 -0.3831
31591W        W47400   7.308  13.873  14.468  0.0063 -0.1966  0.1767
31592W        W47401   1.895   8.151  14.440 -0.5026  0.0412 -0.1526
31593W        W47402   2.795   8.463  13.148 -0.2530 -0.0172  0.2456
31594W        W47403  16.334  16.868  14.855 -0.0591  0.0008  0.1417
31595W        W47404   6.488   6.932  15.504  0.0653  0.1296 -0.2655
31596W        W47405  16.240  11.417  14.367 -0.0630 -0.3194  0.0741
31597W        W47406   6.430   9.917   5.127 -0.0865  0.0671 -0.0795
31598W        W47407  13.161  10.106  11.511  0.0252 -0.0346 -0.1431
31599W        W47408   6.549   2.800  13.131 -0.0179 -0.1959  0.0956
31600W        W47409  16.954  14.096   2.664 -0.0304  0.0089  0.0528
31601W        W47410   3.812  12.220   2.421  0.0725 -0.0814 -0.5008
31602W        W47411  12.814  16.371  14.096 -0.2020  0.1065 -0.0347
31603W        W47412  17.847   0.937  15.040 -0.0811 -0.1248 -0.1033
31604W        W47413  11.719  18.564   1.248  0.0458  0.1812  0.1066
31605W        W47414   1.530   6.088   2.891  0.2050  0.0376 -0.1697
31606W        W47415   5.262   0.309   2.730  0.0094  0.1989  0.1256
31607W        W47416  16.082   6.173  15.458  0.0779 -0.0170 -0.2426
31608W        W47417   6.526   2.543   4.710  0.0833  0.1585 -0.2800
31609W        W47418   9.082  11.276   3.036  0.0175  0.0365  0.1054
31610W        W47419  12.148  18.525  12.240  0.0558  0.1025 -0.0194
31611W        W47420  17.939   4.728  11.700 -0.1005 -0.0537 -0.1011
31612W        W47421   3.571  10.687  14.826  0.1809  0.0092 -0.0849
31613W        W47422   5.538  13.246  11.989  0.1532 -0.0819  0.1144
31614W        W47423   6.906  15.151  11.997  0.2561  0.2421  0.1060
31615W        W47424  13.720   1.925   0.986 -0.1384 -0.1200  0.2027
31616W        W47425   0.846   0.394   5.046  0.0410 -0.0049  0.0322
31617W        W47426   8.098  10.718   5.381  0.0881  0.1378 -0.0408
31618W        W47427  12.623  12.237  14.624 -0.0821  0.2056 -0.2011
31619W        W47428  12.060   4.347  14.979 -0.0898  0.0462 -0.1937
31620W        W47429  14.135  16.122  14.382 -0.1111  0.1810  0.1879
31621W        W47430  14.984  13.243   0.114 -0.2903 -0.0544 -0.2956
31622W        W47431   3.413   3.617  13.185  0.3006  0.2044 -0.0499
31623W        W47432   2.835  18.258   4.912  0.2713 -0.1484  0.0402
31624W        W47433  11.495  17.357  11.828  0.0708  0.0544 -0.2531
31625W        W47434   2.765   1.801   3.303  0.1542 -0.0786 -0.0652
31626W        W47435   6.488  12.726  13.636  0.2637 -0.0483  0.1235
31627W        W47436  17.873  15.365   0.850  0.1462 -0.2740  0.0020
31628W        W47437  10.341   4.551  11.832  0.0839  0.0229 -0.0273
31629W        W47438   2.296   5.745  15.147 -0.0755 -0.0478  0.0123
31630W        W47439  17.649   1.912   2.329 -0.0633  0.1104 -0.0265
31631W        W47440   6.572  14.174   3.035 -0.1594  0.1051  0.3743
31632W        W47441   1.430   9.201   3.521 -0.1332 -0.2565  0.1629
31633W        W47442   6.248   0.480  12.501 -0.1646 -0.1894  0.0638
31634W        W47443  16.253   8.886  10.587  0.2045 -0.1934 -0.3743
31635W        W47444   2.714   5.707  12.884 -0.0788 -0.0503 -0.1031
31636W        W47445  14.780  14.860  13.665 -0.1717 -0.0869  0.1174
31637W        W47446  18.313   2.428  14.388 -0.0616 -0.1826  0.0925
31638W        W47447   0.808   3.748   2.504  0.2393  0.1457  0.2148
31639W        W47448   7.963   3.328  14.771 -0.0441  0.2115  0.1610
31640W        W47449   2.169   7.555   2.324 -0.0562  0.1302 -0.0797
31641W        W47450  12.673   7.805   3.879  0.0162 -0.1390  0.1630
31642W        W47451   4.923   3.303  12.884  0.3988  0.0139 -0.1439
31643W        W47452  17.316  13.489   1.049  0.3231 -0.1943  0.0723
31644W        W47453  16.077  11.607   1.663  0.3525  0.0854  0.1687
31645W        W47454  15.224  10.072   0.444  0.0129  0.1065 -0.2715
31646W        W47455  16.541   4.500  15.463  0.0560  0.0195  0.2277
31647W        W47456   8.296  13.880   0.370  0.0399 -0.0649 -0.1640
31648W        W47457  12.781   8.379  13.853 -0.2260 -0.1359  0.2522
31649W        W47458   5.469   8.360  12.345  0.3474 -0.0697  0.0756
31650W        W47459   6.048   7.721  15.003 -0.0489 -0.1264  0.1252
31651W        W47460  14.886  17.270   1.747 -0.0556  0.0993  0.2474
31652W        W47461   7.539  14.553   0.547  0.0710 -0.0008  0.1832
31653W        W47462   3.470   6.817  12.397  0.0484  0.0321 -0.1805
31654W        W47463   0.949   0.709   2.603 -0.2073 -0.1491  0.0770
31655W        W47464  10.851   3.787   2.750  0.1575 -0.0247  0.2512
31656W        W47465  12.053   4.459  12.232 -0.1593  0.2009  0.0483
31657W        W47466   7.514  13.992  13.184 -0.2242 -0.0065  0.0852
31658W        W47467  10.423   8.900   2.701  0.3115 -0.1723 -0.4344
31659W        W47468   1.340  10.205  10.288 -0.0704  0.1049  0.1132
31660W        W47469   0.979   2.898   1.001 -0.2534  0.1706  0.0491
31661W        W47470   3.314   2.083   0.843 -0.2003 -0.1155 -0.1292
31662W        W47471   1.710   4.225  12.131 -0.0099 -0.4010  0.2401
31663W        W47472   1.158   9.251  14.806  0.0741 -0.2278 -0.1210
31664W        W47473   9.310   9.322   0.235 -0.0870  0.2826 -0.2087
31665W        W47474  16.844   3.733  13.941  0.1310 -0.4895 -0.0221
31666W        W47475   7.205  10.509  10.750  0.1983  0.1352 -0.1790
31667W        W47476  11.403   8.819   5.120 -0.1288  0.1165 -0.1998
31668W        W47477  16.846   3.185  13.609 -0.4261  0.1541 -0.0552
31669W        W47478  15.591   4.013  12.918  0.1226  0.0681  0.3659
31670W        W47479   3.987   2.960  13.045 -0.2671  0.0564  0.4398
31671W        W47480   6.801  18.744  14.977  0.0285  0.3962 -0.1749
31672W        W47481  11.428   3.657   4.914 -0.0392 -0.0528  0.0591
31673W        W47482  17.227  13.764  11.408 -0.1180  0.0885 -0.1646
31674W        W47483   4.452  10.345   3.251  0.2755  0.0752  0.1335
31675W        W47484   2.929   4.097   2.468  0.5162  0.0390  0.0700
31676W        W47485  17.713  14.650   0.608 -0.2526  0.2446 -0.0851
31677W        W47486  16.038  17.685   0.534  0.0024 -0.1016  0.5420
31678W        W47487  14.933  18.430  11.603  0.1039  0.0469 -0.2289
31679W        W47488   2.470   5.444  14.767  0.1028 -0.2059 -0.1784
31680W        W47489   8.517  13.634  14.593  0.0422 -0.0871 -0.0475
31681W        W47490   8.844  18.021  11.664  0.6195  0.0345 -0.5050
31682W        W47491  12.067   9.708  11.149 -0.2184 -0.1820 -0.3622
31683W        W47492  17.196   6.838   4.999  0.0477 -0.0833  0.3637
31684W        W47493   5.493   8.697  11.013  0.1460  0.5078 -0.0759
31685W        W47494  17.193  15.675   3.342 -0.1502  0.3035  0.0235
31686W        W47495  13.264   2.662   3.307  0.0945 -0.2601  0.0881
31687W        W47496   1.503   0.615   1.047 -0.0568  0.2957  0.1359
31688W        W47497  17.442  12.350  13.478  0.1826 -0.0347  0.1125
31689W        W47498   9.956  12.230  14.688 -0.3905 -0.2650 -0.0428
31690W        W47499  17.549  16.311   1.584  0.0679 -0.1094  0.1574
31691W        W47500   6.227   0.337   1.512  0.0022  0.0170 -0.0589
31692W        W47501  12.916  18.125   5.681  0.2541  0.1267 -0.1098
31693W        W47502  17.224   9.296   1.710  0.0721 -0.0774 -0.0658
31694W        W47503  17.276   5.473   5.912  0.0701 -0.2212 -0.1602
31695W        W47504   2.518   9.639  11.956 -0.0988  0.1693  0.0850
31696W        W47505  15.498   8.262  12.163  0.0580  0.0503 -0.0019
31697W        W47506   5.164   1.552   2.985  0.0368  0.2979  0.1770
31698W        W47507  12.837   3.526   3.633 -0.0901  0.0936  0.2213
31699W        W47508   6.516   8.194   4.272 -0.1650 -0.2086  0.3089
31700W        W47509  11.457   1.730  13.862  0.5008  0.0258 -0.0348
31701W        W47510  16.815   6.111   5.058  0.0697 -0.1003 -0.1590
31702W        W47511  10.297  18.520   2.494 -0.2068  0.2378 -0.0564
31703W        W47512   5.917  17.376   5.233  0.0602 -0.2320  0.1228
31704W        W47513   8.269  11.179  13.670 -0.0345 -0.4549 -0.1831
31705W        W47514   7.540   3.580  14.766 -0.2264  0.0100  0.0422
31706W        W47515  11.831  11.154  13.934 -0.2530 -0.3120  0.1146
31707W        W47516   3.336  10.219  12.106  0.1088  0.0344  0.1979
31708W        W47517   9.807  10.155   0.108  0.1495  0.0838 -0.0242
31709W        W47518  15.190  17.307   2.111 -0.1015  0.1431 -0.1122
31710W        W47519   1.428  12.959   3.277  0.0195 -0.0132  0.0138
31711W        W47520  13.522   6.443  10.790 -0.0420  0.0044  0.0264
31712W        W47521  16.908   6.948  14.602 -0.1682 -0.2497  0.0778
31713W        W47522  17.054   3.629   0.383  0.0720 -0.1608 -0.0216
31714W        W47523  18.253   2.750   4.870 -0.0452 -0.2458  0.1872
31715W        W47524  16.326   7.289   3.254  0.2401  0.0317  0.0688
31716W        W47525   7.921   1.666   4.316 -0.1010 -0.1024 -0.1777
31717W        W47526   0.314   1.968  10.975 -0.1841  0.2162  0.2834
31718W        W47527  17.745  18.766  12.004  0.1371 -0.1070 -0.1883
31719W        W47528   7.230   5.345  11.702  0.1927 -0.2076 -0.0992
31720W        W47529  16.995   3.196  10.901  0.0939 -0.1345 -0.0316
31721W        W47530   5.344  11.553  14.248 -0.0675  0.1950 -0.0260
31722W        W47531  17.453  10.915   4.053  0.1766 -0.4937 -0.0475
31723W        W47532   0.252   5.638   3.115 -0.0635  0.1710 -0.2448
31724W        W47533   6.179  14.510  13.685  0.2607 -0.0342 -0.1931
31725W        W47534   7.427   5.666   2.337  0.1148  0.2473  0.1922
31726W        W47535   5.313  12.031   2.504 -0.1979  0.2926 -0.3063
31727W        W47536   4.757  15.874   2.794 -0.0811 -0.1651 -0.0342
31728W        W47537  15.261  14.200   0.527 -0.1420 -0.4311  0.0821
31729W        W47538   6.443   3.252  13.545  0.2391 -0.2062  0.2375
31730W        W47539  10.629   3.125   1.537 -0.0400 -0.0420 -0.3380
31731W        W47540  15.631   5.036  13.408 -0.2388 -0.1705  0.0330
31732W        W47541   5.715   2.198   4.574 -0.2157 -0.1574 -0.1182
31733W        W47542   7.395   9.348   3.595  0.2663 -0.2516 -0.1870
31734W        W47543  10.306   7.950   0.803 -0.1839  0.0319 -0.1705
31735W        W47544  10.520  16.440  12.183 -0.1918 -0.0359 -0.0055
31736W        W47545   0.999   5.436  13.867 -0.1353  0.4022 -0.2620
31737W        W47546  13.167  10.900  12.142  0.1322  0.0784 -0.1909
31738W        W47547  12.657   3.652  14.831 -0.0175 -0.3981  0.2196
31739W        W47548   1.372   7.863   0.377 -0.0930  0.0485  0.1665
31740W        W47549  13.654   0.021  12.876  0.2256  0.5396 -0.0752
31741W        W47550  14.060  14.336  14.241 -0.2137  0.0647 -0.1311
31742W        W47551  17.384  13.992   4.984  0.1711 -0.3360  0.0593
31743W        W47552   1.413  18.076  12.680 -0.1212 -0.1486  0.2187
31744W        W47553  14.568   1.840  14.208  0.3207 -0.0033 -0.2072
31745W        W47554  14.576   2.374  14.574 -0.1880  0.1665  0.0093
31746W        W47555   1.293  11.365  13.165  0.2954 -0.0631  0.1211
31747W        W47556   0.604  11.154  11.888 -0.1500 -0.0018 -0.3172
31748W        W47557   8.496   5.282  11.429  0.2092 -0.2937 -0.1110
31749W        W47558   6.763   7.506  11.952  0.0351 -0.3705 -0.3181
31750W        W47559   9.328  12.516  14.615  0.0547  0.2832 -0.3763
31751W        W47560  15.740  16.326  12.237  0.2241 -0.0601 -0.1886
31752W        W47561  16.392  17.013   1.451 -0.1297 -0.0316 -0.1703
31753W        W47562   4.418  15.418   4.718 -0.0651  0.0773 -0.0306
31754W        W47563  10.219   7.601   1.700  0.2099  0.0018 -0.0604
31755W        W47564  18.522  10.746   0.848  0.0544  0.3270 -0.0630
31756W        W47565   2.563   4.434  15.532  0.0868  0.1512  0.0082
31757W        W47566   7.165  17.928   3.007  0.1768  0.1534 -0.0832
31758W        W47567   5.714  10.185   3.746 -0.1199 -0.2994  0.2046
31759W        W47568   2.755  10.255   5.291 -0.1859 -0.1322 -0.2623
31760W        W47569   5.851  15.921  14.292 -0.0030  0.2277 -0.1519
31761W        W47570   1.623  12.816   1.521  0.0350  0.1699  0.1543
31762W        W47571   0.137   3.823   0.913  0.1921  0.0769 -0.1876
31763W        W47572  15.439   2.853   1.635 -0.0833 -0.3534  0.1859
31764W        W47573   1.361  18.271  10.732 -0.2070  0.0397  0.0198
31765W        W47574   4.610   7.953  12.721 -0.0000  0.3863  0.0073
31766W        W47575   5.516   8.038   4.627  0.1857 -0.0507 -0.0943
31767W        W47576   0.642  15.592  11.057 -0.1036  0.1276 -0.0113
31768W        W47577  12.175   5.221   0.599  0.0470 -0.1067 -0.0612
31769W        W47578  18.234  18.255   4.257  0.0860 -0.2098 -0.0542
31770W        W47579  17.993   1.753   5.357  0.0601 -0.1701 -0.1524
31771W        W47580   2.837   1.199   0.145 -0.2180 -0.1966 -0.0044
31772W        W47581   0.935   5.137   3.994  0.1986  0.0451 -0.0459
31773W        W47582  10.192  15.486  13.208 -0.0023 -0.1279 -0.2573
31774W        W47583  10.392   1.249  14.588 -0.1065  0.0380 -0.0474
31775W        W47584  18.448   5.271   4.846  0.1482 -0.3607  0.2086
31776W        W47585  12.241   8.103   2.566 -0.3206 -0.2469 -0.2378
31777W        W47586  12.628  17.428   6.343 -0.1173 -0.0265  0.0159
31778W        W47587  10.876   6.798  14.911  0.2555 -0.3742 -0.1915
31779W        W47588  13.491   0.015   2.643 -0.0505 -0.3199  0.0577
31780W        W47589   9.166  11.625  14.443  0.1626  0.0596  0.2443
31781W        W47590  15.660   5.886  13.544 -0.2792 -0.2030  0.0085
31782W        W47591  13.299   2.835   0.416  0.0077 -0.2282  0.0186
31783W        W47592   7.362  13.912   4.239  0.1208 -0.1587 -0.0408
31784W        W47593  15.117   9.780  15.248 -0.0731 -0.0042  0.1527
31785W        W47594  12.563  12.471  11.857  0.0431  0.2325 -0.1364
31786W        W47595  10.941  11.666   3.306  0.1730 -0.1242  0.0958
31787W        W47596  12.297   7.986   3.072 -0.1339 -0.3512  0.2662
31788W        W47597   8.264   4.470   1.316 -0.1839  0.1573 -0.1814
31789W        W47598  12.305  15.196   4.903  0.2145  0.1712  0.2732
31790W        W47599  11.813   9.361   3.203 -0.1764 -0.0707 -0.1948
31791W        W47600   9.277   8.443   1.607  0.1296 -0.1889  0.3648
31792W        W47601  18.781  18.485   4.853 -0.0633 -0.2370 -0.4914
31793W        W47602  12.584   2.806  14.158 -0.1430  0.1236  0.2154
31794W        W47603  15.123   6.894   2.029  0.1347 -0.2587 -0.1475
31795W        W47604  14.259  14.669  11.255 -0.3028  0.1440 -0.0506
31796W        W47605   4.723  10.299  11.098  0.1210  0.1283  0.2206
31797W        W47606  10.826   7.196  12.793 -0.0301 -0.1632 -0.1567
31798W        W47607   9.285   1.169   2.572 -0.0404 -0.1678 -0.2744
31799W        W47608   6.984   1.424   0.544 -0.1347  0.0471  0.2103
31800W        W47609   7.668   5.371  11.444 -0.1288 -0.0602  0.1111
31801W        W47610  16.358  13.452   0.313 -0.3138 -0.2110  0.0895
31802W        W47611  17.675   8.961   5.336 -0.0312  0.1772 -0.2023
31803W        W47612   9.380  14.684   5.735  0.3306 -0.0765 -0.0198
31804W        W47613  12.069  12.802  14.056 -0.3552 -0.0314 -0.0244
31805W        W47614   6.922   8.106   3.743  0.0027 -0.2595 -0.0150
31806W        W47615   7.083  14.347   0.605  0.0232 -0.0030 -0.2709
31807W        W47616  15.544   5.181  12.069  0.0545 -0.1412  0.0779
31808W        W47617  10.434  17.628  11.008 -0.1980 -0.1293 -0.2296
31809W        W47618   3.258  13.787   0.196 -0.2940  0.0399  0.0449
31810W        W47619  15.409   6.549   0.417 -0.0045  0.1090  0.1859
31811W        W47620  12.765   5.140   1.295 -0.0879 -0.1700 -0.0129
31812W        W47621  11.547  17.356   5.221 -0.0509  0.0407  0.1800
31813W        W47622  11.305  18.458  12.548 -0.1029 -0.4465 -0.1937
31814W        W47623  15.258   2.732  11.689  0.0559 -0.4440  0.1044
31815W        W47624  14.256  14.708  14.523 -0.1993 -0.1721 -0.0051
31816W        W47625   9.311  18.679   3.199  0.4287 -0.1541  0.0138
31817W        W47626   6.841  12.305  13.716 -0.1099  0.0675 -0.0979
31818W        W47627   3.933  12.923   2.470  0.1824 -0.0644  0.1775
31819W        W47628  10.636  18.601  14.677  0.0358 -0.0340  0.1083
31820W        W47629  10.623   6.134  10.102  0.0731 -0.1735  0.1494
31821W        W47630   7.236   8.419   0.556  0.1694  0.0166 -0.0294
31822W        W47631  15.614   6.573   1.413  0.0004  0.0061 -0.0890
31823W        W47632  16.963  10.730   2.101 -0.3774 -0.0784  0.2889
31824W        W47633  15.993   0.569  14.938 -0.0322 -0.0330  0.1003
31825W        W47634  12.164  12.855  13.413 -0.2027  0.1136  0.2079
31826W        W47635   5.961   6.379  11.802  0.1700  0.2369 -0.0416
31827W        W47636   6.167  14.448   2.382  0.1786 -0.1283  0.1424
31828W        W47637  16.704   8.054  15.060 -0.0681  0.4498 -0.1404
31829W        W47638   7.222  14.804  15.006  0.0049  0.1644 -0.1147
31830W        W47639  12.644   0.785  14.848  0.0384  0.2240 -0.0267
31831W        W47640   0.467  15.898   3.499  0.2123 -0.3455 -0.1648
31832W        W47641  13.579   0.045  10.775 -0.1937  0.0427  0.1619
31833W        W47642   4.581   7.432  11.015 -0.2292 -0.1737 -0.3374
31834W        W47643   2.258  12.135  12.941  0.0758 -0.2483  0.1845
31835W        W47644   1.240  16.316   2.763 -0.0768  0.3086 -0.5087
31836W        W47645   7.815  17.670   4.059 -0.0226 -0.3114 -0.3346
31837W        W47646   8.018  11.309   3.971 -0.0271  0.0634 -0.0491
31838W        W47647  15.876   3.796   0.777  0.3475 -0.2127 -0.1663
31839W        W47648  11.068   0.858   5.518 -0.0354 -0.0823  0.2047
31840W        W47649  10.458   8.467   1.140  0.2848 -0.1077 -0.1744
31841W        W47650   8.208  14.233   1.345  0.3731  0.0177  0.1048
31842W        W47651  17.802   8.341   4.068 -0.1181 -0.0035 -0.0094
31843W        W47652  15.482  16.044  13.033  0.0220 -0.0772  0.2077
31844W        W47653   0.459  17.176  11.510 -0.2073 -0.4929  0.0170
31845W        W47654   5.550  10.211   5.099  0.1307  0.1025  0.0562
31846W        W47655   8.175  14.670   3.485  0.2219  0.0677  0.0542
31847W        W47656  13.029   5.539  10.831  0.0145  0.0068 -0.0638
31848W        W47657   1.835  11.025   2.396  0.1275 -0.2492  0.2347
31849W        W47658   0.480   0.285   2.249  0.0126 -0.2089 -0.0237
31850W        W47659   2.453  11.262  15.337  0.2004 -0.4672  0.4450
31851W        W47660  13.973  12.945  13.702  0.2640 -0.2659 -0.0539
31852W        W47661   1.113  17.953   0.396  0.1606  0.0736  0.0523
31853W        W47662   4.657  15.891   1.214 -0.0394 -0.1906 -0.2014
31854W        W47663  13.898  12.744  11.385 -0.2907  0.0860  0.1168
31855W        W47664  12.052  11.344  12.627  0.0147  0.1190  0.2344
31856W        W47665  13.542   0.511   0.326  0.2331 -0.1390  0.0548
31857W        W47666  15.951   7.069   1.154  0.1292 -0.1463  0.0327
31858W        W47667  13.130  17.646   3.273 -0.0963  0.2201 -0.0122
31859W        W47668  12.245  18.412  11.524  0.0269 -0.0825  0.0314
31860W        W47669  11.187   3.197   0.664  0.0950  0.1083 -0.2014
31861W        W47670   7.973  13.764  13.006  0.1067 -0.1182  0.0940
31862W        W47671  10.473  14.073   4.224  0.3078  0.1050  0.2180
31863W        W47672  14.646  17.076  15.432  0.1462  0.1987 -0.0912
31864W        W47673  18.219   5.598  10.408 -0.1163  0.0196 -0.0781
31865W        W47674   7.826  13.517  11.523  0.1557  0.0677 -0.1229
31866W        W47675  15.039  17.591   3.909  0.1992 -0.1309 -0.1654
31867W        W47676   4.682   8.053   2.185 -0.1638 -0.0216  0.2447
31868W        W47677  17.897   8.488  11.447 -0.1233  0.2423  0.0345
31869W        W47678  13.858   7.460  13.700 -0.2151 -0.0950 -0.1118
31870W        W47679   7.360   3.891   0.505  0.2317 -0.0091  0.0590
31871W        W47680   3.730   4.515  13.967 -0.0229  0.1177  0.4110
31872W        W47681   9.948   7.920  14.427 -0.0371 -0.0193 -0.2281
31873W        W47682   3.200  10.912   0.010 -0.1262 -0.0582  0.2190
31874W        W47683   2.894   0.527   1.567 -0.0792 -0.0981  0.1623
31875W        W47684   5.177  13.443  12.297  0.4672  0.0568  0.2631
31876W        W47685   6.684   0.548  13.516  0.4291  0.0631  0.1627
31877W        W47686   6.217   7.111   1.774  0.1488  0.0641  0.1001
31878W        W47687   3.725   4.217  14.420 -0.0625  0.2892  0.0109
31879W        W47688  17.951  14.439  12.623 -0.3439 -0.4918  0.2896
31880W        W47689  13.522  12.204   4.069 -0.0149  0.1710 -0.0720
31881W        W47690  18.396   1.910  14.849  0.0204 -0.1466  0.1278
31882W        W47691  16.889   8.551   3.729  0.1898  0.2687 -0.1979
31883W        W47692   3.699  12.936  15.489  0.1845  0.4623  0.2746
31884W        W47693   4.199   0.250   3.172 -0.2846 -0.1766  0.1358
31885W        W47694   1.307   0.472  11.427  0.5987  0.1957 -0.0005
31886W        W47695   2.786   2.606   5.471 -0.2159  0.0479 -0.2332
31887W        W47696  12.115   8.434   1.496  0.2753 -0.0624  0.2093
31888W        W47697   8.959   9.112   1.766  0.0594 -0.3086 -0.1087
31889W        W47698   2.741  11.054   2.876 -0.0030  0.1685  0.0239
31890W        W47699  12.735   8.309   3.086 -0.2072  0.0003 -0.1054
31891W        W47700  17.762   2.138   4.440  0.1527 -0.1096  0.1167
31892W        W47701   2.770  15.800   9.379 -0.1412 -0.0398  0.0719
31893W        W47702  14.284  11.133  11.766 -0.0694 -0.3490 -0.0194
31894W        W47703   5.448   7.625  13.880 -0.1140 -0.2458  0.2330
31895W        W47704  17.308   4.714   0.839 -0.0466  0.4585  0.0093
31896W        W47705   0.899  14.964  14.087  0.0467  0.2183 -0.2389
31897W        W47706  17.221  11.174   0.739 -0.0906 -0.0021  0.0231
31898W        W47707  12.334  15.803  10.361 -0.2121  0.2648  0.1864
31899W        W47708  13.441  14.187  11.536  0.1944 -0.1951  0.1162
31900W        W47709  17.184   9.617  12.729 -0.1061 -0.0797  0.2218
31901W        W47710  13.508   7.423   3.564  0.1367  0.0213  0.1783
31902W        W47711   1.977   8.959   1.603  0.0872 -0.2114 -0.0047
31903W        W47712   3.619  14.110  15.233 -0.2147 -0.1251  0.3242
31904W        W47713  18.065   6.969  13.664  0.1066  0.1530 -0.1473
31905W        W47714  17.004   7.809   2.063  0.0436  0.4267  0.1815
31906W        W47715   5.823  15.680   2.084  0.0425  0.0803 -0.3445
31907W        W47716   0.211   0.895   3.239  0.0214  0.1188  0.1485
31908W        W47717  17.457  16.837  11.710 -0.0786  0.3059  0.0047
31909W        W47718   4.187  12.052   2.727  0.3749 -0.0559  0.3867
31910W        W47719  17.589  15.290   3.062 -0.0469 -0.0795  0.1007
31911W        W47720  18.626   5.172   4.026  0.0479  0.2953 -0.0258
31912W        W47721   8.596  13.944  10.654  0.1022  0.1526  0.0268
31913W        W47722  18.502  13.346   0.550  0.1173  0.1004 -0.1971
31914W        W47723  12.100   4.019  15.549 -0.0434 -0.1494 -0.3399
31915W        W47724   6.032  13.599   2.106 -0.1399 -0.0196  0.5687
31916W        W47725  12.682  12.921  14.320 -0.1954  0.1167 -0.0722
31917W        W47726   6.317  18.493   1.368 -0.2597  0.1415 -0.0679
31918W        W47727   7.040   0.065   2.885  0.0869  0.3048 -0.5278
31919W        W47728   5.437  10.995   2.698  0.0354 -0.5654  0.2936
31920W        W47729  10.153  14.885   4.111  0.2128 -0.0451 -0.1054
31921W        W47730   5.588   3.125   1.791  0.1442  0.5208  0.0816
31922W        W47731  11.906  17.240   0.614  0.2221  0.1923  0.2111
31923W        W47732  11.861   3.372   4.227 -0.3726 -0.2385  0.0176
31924W        W47733   5.521   2.787  10.635  0.2078  0.1069 -0.2408
31925W        W47734   0.111   5.399  14.900  0.3013  0.0063  0.2644
31926W        W47735   7.685  15.675   3.167  0.0998 -0.1426  0.1589
31927W        W47736   9.425   1.950   5.316  0.0544  0.1263 -0.0996
31928W        W47737   0.935  10.124   3.334 -0.2655  0.1256  0.1569
31929W        W47738   3.006  16.676  13.150  0.2792 -0.0867 -0.2228
31930W        W47739  15.272  15.014   1.605  0.5003 -0.0245 -0.0396
31931W        W47740   5.569  15.993   0.924 -0.3535  0.2128 -0.0572
31932W        W47741  18.288   4.961   3.684 -0.2187 -0.1222  0.2533
31933W        W47742   3.079   8.523   2.974  0.0631  0.1142  0.0379
31934W        W47743  13.950  17.184  13.505  0.1422  0.1186 -0.0833
31935W        W47744   5.286   9.127  12.881 -0.0032 -0.0877 -0.3464
31936W        W47745  15.587   2.314  14.176 -0.3228  0.0727 -0.0840
31937W        W47746   0.918   2.314  13.953 -0.0724 -0.0612 -0.3133
31938W        W47747   6.738  16.881   2.828 -0.1160 -0.2881  0.1161
31939W        W47748   6.759  18.206   4.014 -0.1603  0.0416 -0.0764
31940W        W47749  18.659  16.424  11.560 -0.0745  0.1715 -0.1572
31941W        W47750   5.340   5.714  14.319 -0.0180  0.0422  0.0820
31942W        W47751  16.213  15.889   0.721  0.3075 -0.2895 -0.0141
31943W        W47752  10.664  13.507  12.144 -0.2007 -0.0996  0.1078
31944W        W47753   3.959   0.758  11.078  0.0777 -0.0855 -0.0764
31945W        W47754  14.717  17.674   4.708 -0.1216  0.2166 -0.3427
31946W        W47755  16.622   0.358   2.967  0.0121  0.0424  0.0226
31947W        W47756   2.740  17.586  14.720 -0.2570  0.0586 -0.1437
31948W        W47757   6.561   0.647   2.214 -0.0835  0.0445  0.1099
31949W        W47758   1.002  15.435   2.033 -0.2018 -0.0981 -0.0061
31950W        W47759   0.239   4.637   3.351  0.4031 -0.1160 -0.0915
31951W        W47760   1.670  11.562  13.947  0.1191  0.2081 -0.1563
31952W        W47761   9.334   0.560  15.311  0.1847  0.1378 -0.0730
31953W        W47762  14.631  17.245  14.500  0.1571 -0.0841  0.1295
31954W        W47763  14.483   2.124   0.760  0.1558 -0.0910 -0.0799
31955W        W47764  11.310   0.160  11.917 -0.0430  0.0861 -0.1920
31956W        W47765  16.232   9.150  15.370  0.0935 -0.1092  0.5004
31957W        W47766  18.265  18.463  11.687 -0.1421 -0.1190 -0.0241
31958W        W47767  13.409  17.688   4.579  0.5101 -0.0699 -0.0044
31959W        W47768   8.625  13.394   3.906 -0.1577 -0.1049  0.3425
31960W        W47769   1.407   9.989  14.313  0.0230 -0.2240  0.0482
31961W        W47770  13.038  15.666   0.826  0.2470  0.0117 -0.0989
31962W        W47771  18.219   2.403   3.677 -0.1884  0.1228 -0.1163
31963W        W47772   2.601   3.937   0.302  0.0835  0.0569 -0.3813
31964W        W47773  16.087  13.368   4.965 -0.2180  0.0524  0.1967
31965W        W47774   7.577  16.321  15.344 -0.0334  0.2487 -0.0044
31966W        W47775   7.055   8.577   4.831 -0.1008 -0.1398  0.0919
31967W        W47776  10.013  14.464  10.715  0.0644  0.1181  0.1121
31968W        W47777   7.262   5.246   0.039  0.4147  0.5283  0.1557
31969W        W47778   2.478   3.089   3.392  0.0770 -0.0514 -0.1195
31970W        W47779   8.977  10.256   5.302 -0.1137  0.0845  0.1722
31971W        W47780  15.730  17.163   6.312 -0.2742  0.2155 -0.1348
31972W        W47781   2.692   1.011  10.588  0.0245 -0.0906  0.1972
31973W        W47782  15.238   5.602  11.286  0.1968 -0.3753 -0.1413
31974W        W47783  14.681   7.208   5.120  0.0387 -0.0267 -0.3029
31975W        W47784   7.030  16.357  13.460  0.4525  0.1340 -0.4358
31976W        W47785   2.637  10.397   3.275  0.0017  0.2174  0.3652
31977W        W47786   1.817  17.114  13.882 -0.1897 -0.1134 -0.3714
31978W        W47787  16.282  15.026  13.820  0.1431  0.0525 -0.1112
31979W        W47788   5.474   6.721   3.903 -0.2526  0.0622 -0.0733
31980W        W47789   8.317   9.718   1.423  0.2462 -0.0509  0.0112
31981W        W47790   2.342   1.215  12.199 -0.2100 -0.0464  0.0268
31982W        W47791   9.469  17.184   3.552 -0.1867  0.0729 -0.0207
31983W        W47792  17.906   7.454  13.929 -0.0435 -0.2787  0.3000
31984W        W47793  18.775   3.987  10.404 -0.3876  0.0281  0.1865
31985W        W47794  14.404  17.387  13.701 -0.0332  0.1184 -0.5516
31986W        W47795  13.699  16.389  13.660  0.0240 -0.0946  0.0701
31987W        W47796   0.676   8.961  12.457 -0.0371 -0.0089  0.0505
31988W        W47797  16.461  17.407   0.369  0.0987  0.0964 -0.0522
31989W        W47798  11.959   3.261   3.424  0.0858 -0.1645  0.5021
31990W        W47799  15.508  11.730  11.099 -0.0174 -0.1103  0.3852
31991W        W47800   9.536  12.365   5.641 -0.0789  0.0211  0.0455
31992W        W47801  18.089   0.687  15.460  0.1440 -0.0739  0.1104
31993W        W47802   0.179   0.125  10.136 -0.0952 -0.2318 -0.1165
31994W        W47803   8.137   6.538  14.073 -0.5014  0.0608  0.1709
31995W        W47804  10.940   6.842  12.414  0.1319 -0.1016  0.1621
31996W        W47805  10.820   8.392   2.235  0.0221  0.1588 -0.0360
31997W        W47806   9.237   3.433   5.373 -0.3808  0.1665 -0.2707
31998W        W47807   2.983   2.744   3.317 -0.0117 -0.0089 -0.0801
31999W        W47808  14.644  13.107  14.290 -0.1708  0.0180 -0.1395
32000W        W47809  13.257   9.332  13.573 -0.1780  0.0799 -0.0071
32001W        W47810   2.706   9.055  13.986  0.2814 -0.0792 -0.0759
32002W        W47811  15.511   6.054   2.662  0.0268 -0.1611  0.3039
32003W        W47812   3.929  14.126  10.258  0.1692 -0.1712  0.0131
32004W        W47813   6.770   8.509   0.856 -0.0350  0.0389  0.0574
32005W        W47814  13.706  12.221  14.592 -0.2215 -0.1364  0.1007
32006W        W47815   3.623   8.541   2.879 -0.0684  0.0941  0.2468
32007W        W47816  12.138  13.020   1.065 -0.0238  0.3061  0.0646
32008W        W47817   0.995  10.887  10.930  0.0142  0.2762 -0.0517
32009W        W47818   1.596  15.891   5.441 -0.1037 -0.2602  0.0493
32010W        W47819   0.905   6.729   0.115 -0.3614  0.1287  0.1034
32011W        W47820  10.002   6.330   1.725 -0.0453 -0.0700 -0.0916
32012W        W47821   4.858   4.608   0.018 -0.1141  0.0255 -0.0719
32013W        W47822   7.468   8.732  11.060  0.0046 -0.4041  0.0581
32014W        W47823   5.963   2.967   2.806 -0.1467  0.1500 -0.1019
32015W        W47824  18.132   5.437  15.526  0.0945  0.0880  0.0705
32016W        W47825   8.249   4.522  13.507 -0.0438  0.0063 -0.2404
32017W        W47826   4.376  10.992   4.925 -0.0171 -0.1740  0.4769
32018W        W47827   5.164  17.603  14.921  0.1471 -0.0261 -0.0757
32019W        W47828   7.813   6.111   2.590 -0.3224  0.1297  0.0149
32020W        W47829   0.333   5.389  10.776  0.1587 -0.1672 -0.1872
32021W        W47830   5.802  10.729  13.071 -0.4131  0.1080  0.2162
32022W        W47831  10.514   6.633   5.340  0.3101  0.2848  0.2956
32023W        W47832  15.544   5.309  10.346  0.2634  0.1388 -0.1918
32024W        W47833  13.655   6.745   3.072  0.0994  0.0565  0.2061
32025W        W47834   9.919   5.858  11.653 -0.2317  0.0040  0.0479
32026W        W47835   4.484  17.292  13.771  0.2451  0.1215  0.2863
32027W        W47836   4.352   4.131   1.269 -0.0119  0.4297 -0.2540
32028W        W47837  13.415   6.674   3.632 -0.2998  0.1686 -0.0799
32029W        W47838   2.110  14.883  12.057  0.0728  0.1350  0.0892
32030W        W47839  14.409   7.609   1.108 -0.1005 -0.0236 -0.1949
32031W        W47840  18.480   7.328   4.345  0.0178  0.0283 -0.1590
32032W        W47841  14.848   0.649   5.177 -0.1136  0.1302 -0.3220
32033W        W47842  16.605   3.416   0.156 -0.0068 -0.0387  0.3244
32034W        W47843   8.079   6.272  14.626 -0.0745 -0.0922 -0.1071
32035W        W47844  11.962   2.636  15.270 -0.4535 -0.0902  0.1610
32036W        W47845  12.559   1.923   1.828 -0.0041 -0.1606 -0.0843
32037W        W47846  15.142   9.342  15.028 -0.1692  0.2496 -0.1579
32038W        W47847   7.491   7.393  10.860  0.1394  0.2631 -0.2055
32039W        W47848   1.692  16.023   0.695 -0.1016  0.0362 -0.2923
32040W        W47849   8.363   1.085   4.090  0.0195  0.2969  0.0728
32041W        W47850  10.947  10.249  11.873  0.2159 -0.0447 -0.1547
32042W        W47851   0.659  16.554   4.480  0.0600  0.1099 -0.1570
32043W        W47852  18.448  18.583  14.455 -0.2467  0.0179  0.0162
32044W        W47853  15.128  15.104  14.633  0.1909 -0.2319 -0.0170
32045W        W47854  17.540  10.132  10.446  0.1377 -0.2351 -0.0340
32046W        W47855   0.229   0.160   2.599  0.1490 -0.2292 -0.4797
32047W        W47856   8.642  12.429   9.761  0.2848  0.1901  0.1471
32048W        W47857   2.629  10.013  11.014 -0.0981 -0.2619  0.1105
32049W        W47858   8.622   6.844   4.316 -0.2032 -0.2927  0.0480
32050W        W47859   0.910  16.215   4.045  0.1184 -0.0040 -0.0899
32051W        W47860   7.739   3.671   5.293  0.1161  0.2220 -0.1996
32052W        W47861   3.876   8.541  11.251 -0.0950  0.0366 -0.0195
32053W        W47862  13.491   7.190  13.263  0.3391  0.1901 -0.2026
32054W        W47863  16.362   8.065   1.241  0.0210  0.1138  0.0594
32055W        W47864  11.319   7.929   0.796  0.1996 -0.1820  0.0335
32056W        W47865  15.559  10.455   0.297 -0.0351  0.1041  0.1430
32057W        W47866   4.975   0.598   4.417 -0.0745 -0.0596 -0.1161
32058W        W47867  15.020   7.242   4.582 -0.0353 -0.2344 -0.1202
32059W        W47868  16.533   0.903   4.777  0.6070  0.2595 -0.1849
32060W        W47869   5.907  14.594   3.419  0.0045 -0.3368 -0.1614
32061W        W47870  14.236   8.235  12.448 -0.3501 -0.0577  0.1080
32062W        W47871  11.392   0.556  12.824 -0.1387 -0.1855  0.0514
32063W        W47872   0.315   1.204  11.602 -0.5549 -0.3512 -0.2675
32064W        W47873  12.966  16.776   2.791 -0.0491  0.0773  0.0577
32065W        W47874   7.844   4.214  10.943  0.2547 -0.0091 -0.0437
32066W        W47875  16.065   6.066  13.168  0.1613  0.0000 -0.0158
32067W        W47876   6.171  11.337   4.725  0.0945  0.2669  0.0710
32068W        W47877  17.063   0.019   5.175 -0.2304  0.1229 -0.1410
32069W        W47878  18.278   3.314   3.485  0.1076  0.0440  0.2268
32070W        W47879  12.428  15.265   4.408  0.0474  0.1000  0.1329
32071W        W47880   9.416  14.822   0.078  0.0213 -0.1602 -0.0004
32072W        W47881  18.173   2.283   3.145  0.1032  0.0083 -0.3281
32073W        W47882   6.779   3.544   9.974  0.0676  0.2720  0.1597
32074W        W47883   1.885   7.044   0.281 -0.2779 -0.0462  0.0425
32075W        W47884   9.698   1.552   4.058 -0.0099  0.2892  0.1004
32076W        W47885   0.863  14.549  12.135 -0.4056 -0.1035 -0.2804
32077W        W47886  14.426  10.913   4.394 -0.1215 -0.1391  0.0370
32078W        W47887   9.806  10.931  11.847 -0.2001 -0.1913 -0.0867
32079W        W47888   5.729  15.645  13.328 -0.4242 -0.0992 -0.1391
32080W        W47889   9.162   5.385  12.742 -0.2132  0.0870 -0.0812
32081W        W47890   2.381   3.180  11.332  0.0685 -0.0659 -0.3705
32082W        W47891   1.266  12.444  12.143 -0.0303 -0.0650  0.0313
32083W        W47892   7.202   3.675   4.496  0.0454  0.3058 -0.0152
32084W        W47893  14.498   8.353  11.389  0.0580 -0.0025  0.2760
32085W        W47894  18.578   4.788  11.293 -0.0494  0.1994 -0.1670
32086W        W47895  10.463  11.788   4.206 -0.0706  0.2881  0.1430
32087W        W47896   2.394  15.233  13.513  0.0722  0.2068  0.0799
32088W        W47897  15.837   0.638  13.342 -0.0422 -0.1664 -0.1647
32089W        W47898   6.451   7.826   4.821  0.0596 -0.1046 -0.2664
32090W        W47899  18.500  17.829   4.307 -0.0293  0.1370  0.0137
32091W        W47900   4.783  15.790   0.658  0.0874 -0.1391 -0.1683
32092W        W47901   4.766  17.387  15.219  0.3398 -0.0087  0.0397
32093W        W47902  10.579  11.871  11.030  0.0284  0.0468 -0.0314
32094W        W47903  13.415   0.305   3.946  0.2334 -0.0764 -0.0205
32095W        W47904  13.515   0.523   3.445 -0.0165 -0.1150  0.0735
32096W        W47905   3.451   1.566  14.869  0.1132  0.1359  0.3008
32097W        W47906  17.598  10.751   5.306  0.0394  0.2948  0.2492
32098W        W47907  12.704  16.618   4.882  0.0010 -0.0971 -0.0766
32099W        W47908   2.062  18.291   4.411  0.4359 -0.0954 -0.1062
32100W        W47909   5.201   9.314   0.911 -0.0252 -0.0958 -0.1291
32101W        W47910   7.725   4.836   0.040  0.2463  0.3226 -0.0715
32102W        W47911   7.748  16.274   9.718  0.1330 -0.1364 -0.2473
32103W        W47912   6.406   2.606  14.757 -0.2429  0.1613 -0.0693
32104W        W47913   8.706   9.393  14.060  0.2992  0.1284  0.0607
32105W        W47914  16.513  14.753  14.179  0.0154  0.3119 -0.1962
32106W        W47915  18.185   7.922   0.787 -0.0631  0.3243 -0.0327
32107W        W47916  12.149  15.898  12.865 -0.0030 -0.0704  0.0273
32108W        W47917   4.985  10.958   0.332  0.1701 -0.1048 -0.1776
32109W        W47918  13.857   4.783   4.250  0.5227  0.1398  0.0154
32110W        W47919   5.600  18.324  10.637  0.0025  0.2233 -0.2563
32111W        W47920   7.546   6.947   2.647 -0.1019 -0.1104  0.3370
32112W        W47921  14.911   9.821   1.234 -0.2274 -0.0699  0.2806
32113W        W47922   9.282   6.886   1.971 -0.2513  0.1532  0.2337
32114W        W47923   6.132  15.225   1.341 -0.1037  0.1494 -0.0594
32115W        W47924   2.727  15.035   4.035  0.0406 -0.0676 -0.0560
32116W        W47925  11.283  17.442  14.173  0.1396 -0.0667  0.0693
32117W        W47926  17.741  16.803  13.570  0.0157  0.3476 -0.3742
32118W        W47927  13.236   5.310  11.676 -0.0838  0.1180 -0.0846
32119W        W47928   9.269  18.289   2.840  0.0759 -0.3487  0.0201
32120W        W47929   9.907   8.592  11.026  0.1186  0.0897  0.1760
32121W        W47930  13.071   3.719   0.025 -0.1623  0.2234 -0.1288
32122W        W47931  14.942   9.047   1.147  0.0928  0.1450  0.0124
32123W        W47932   6.656   0.421  11.704 -0.1997  0.0446  0.1333
32124W        W47933  13.650  13.151  11.037 -0.0461  0.1576  0.0842
32125W        W47934   9.432  14.709  14.659  0.2310  0.0379 -0.0116
32126W        W47935   6.075   7.522   0.825  0.0888  0.1066  0.2078
32127W        W47936   3.962  15.158  12.766 -0.1583  0.1361 -0.1778
32128W        W47937  14.750   8.591  13.287  0.0525  0.1107 -0.0114
32129W        W47938   9.305  18.435   4.213  0.0760  0.1135 -0.4933
32130W        W47939   1.174  11.439   2.053 -0.3023 -0.1644 -0.0870
32131W        W47940  13.185   0.319   1.780 -0.2940 -0.0145 -0.3728
32132W        W47941   5.594   5.381   2.687 -0.0649 -0.2462 -0.1225
32133W        W47942   1.217  14.187  14.164 -0.2748 -0.0525  0.0403
32134W        W47943   7.755  18.082  11.890 -0.0737 -0.1820  0.3933
32135W        W47944   3.875  12.160   0.125 -0.2379 -0.0295  0.0048
32136W        W47945   6.878  15.047  15.526  0.2622  0.1841 -0.2876
32137W        W47946   1.144  13.686  13.821 -0.1047  0.1328 -0.2244
32138W        W47947  12.896  16.005   2.220 -0.0140  0.1620 -0.1762
32139W        W47948   6.710   1.779   2.711 -0.0570  0.0416  0.0838
32140W        W47949  15.187  10.278  13.727 -0.3416  0.2159  0.0171
32141W        W47950  17.998  11.709   2.178 -0.3127  0.3479 -0.3476
32142W        W47951   4.767  14.315  13.270 -0.1775 -0.1615  0.1351
32143W        W47952  15.122  16.295  13.252  0.2822 -0.2504 -0.3167
32144W        W47953  13.667   1.484   0.405 -0.1390  0.1204 -0.0229
32145W        W47954   8.872  14.187   3.357 -0.3802  0.0466 -0.0147
32146W        W47955   0.772  11.730   1.807  0.2361  0.1010 -0.0747
32147W        W47956   2.265   5.131  11.394  0.0599 -0.2276 -0.2029
32148W        W47957   9.440   0.073  11.690 -0.2351 -0.2070 -0.1889
32149W        W47958  12.464  15.403   2.553  0.2870 -0.2098  0.2107
32150W        W47959   5.779   2.305   5.765  0.2205 -0.1108 -0.2313
32151W        W47960   1.018   1.348  12.697 -0.2746 -0.0286 -0.3929
32152W        W47961  15.108   7.801   0.007  0.0662 -0.1421  0.0688
32153W        W47962  18.672  11.088   2.316  0.0947 -0.2012 -0.0620
32154W        W47963  10.469   0.388   4.200 -0.3278 -0.1259 -0.1225
32155W        W47964   8.553   7.237  13.065 -0.1904 -0.1220 -0.0922
32156W        W47965   9.453  11.626  11.730 -0.2039  0.3038  0.1527
32157W        W47966  13.786   2.888   0.703  0.3947  0.1760  0.0761
32158W        W47967  17.303   2.863   3.020  0.3980 -0.0231 -0.3423
32159W        W47968  15.269   5.122  12.486 -0.0597 -0.2901 -0.2195
32160W        W47969  18.668   8.622  12.037 -0.1421  0.1663 -0.1075
32161W        W47970   6.401   3.686   3.181  0.0376 -0.1379  0.0495
32162W        W47971   1.873   8.946  13.336  0.0397 -0.0233 -0.0514
32163W        W47972   4.531   1.499   1.440 -0.1761 -0.0100  0.0709
32164W        W47973  14.673   0.674   6.206 -0.1390 -0.0984  0.2407
32165W        W47974   2.272  15.459   3.984 -0.0893 -0.1875  0.4341
32166W        W47975   1.167   1.868   0.491  0.0478  0.0056  0.0419
32167W        W47976   1.621   2.089   3.716 -0.1368 -0.1782 -0.0970
32168W        W47977   3.575   9.052  13.454 -0.0544  0.0223 -0.0096
32169W        W47978  16.866  15.379   4.583  0.2288  0.0659 -0.0080
32170W        W47979  16.046   4.129  13.107  0.0126 -0.0485 -0.0871
32171W        W47980   0.073   6.351  10.931 -0.1404  0.0348 -0.1692
32172W        W47981   7.128  18.768   1.184  0.0889 -0.2893  0.0209
32173W        W47982   0.201  17.146  15.393  0.1215 -0.0324 -0.3338
32174W        W47983   1.137  13.939   4.319 -0.0391  0.0258 -0.0568
32175W        W47984   6.299   5.321   1.697  0.1810 -0.0073  0.0581
32176W        W47985  15.911  18.519  14.318  0.2246 -0.0522  0.1957
32177W        W47986  10.520  12.324  12.840 -0.2024  0.1240 -0.1956
32178W        W47987   4.651  15.817   4.906 -0.0888  0.0294 -0.0124
32179W        W47988   2.200  12.053  14.910  0.2085  0.0077 -0.1366
32180W        W47989   6.078   9.458   4.870 -0.0730  0.1195  0.0276
32181W        W47990   6.602  13.109   0.891 -0.1354 -0.2212  0.1480
32182W        W47991   9.293   0.176  14.800 -0.2430  0.1485  0.0390
32183W        W47992   0.046   8.302   4.959  0.0590  0.0325 -0.0530
32184W        W47993   4.741  13.655   0.133 -0.0285 -0.1181 -0.0402
32185W        W47994   7.244   3.212  14.712  0.2450  0.0776  0.2991
32186W        W47995   4.565  14.321  12.804  0.1381 -0.0580  0.0541
32187W        W47996  10.609   5.886   1.656 -0.0429  0.1851  0.0913
32188W        W47997   7.923   8.297   5.941  0.1033  0.0660  0.2366
32189W        W47998  13.262   3.360   1.438  0.0122  0.0671  0.0538
32190W        W47999   9.191  14.273  14.930 -0.1575 -0.2982  0.0353
32191W        W48000  16.330   4.242   3.838  0.4065  0.1152 -0.0965
32192W        W48001   1.611   5.499  15.200  0.1677  0.3269  0.0003
32193W        W48002  13.469   4.098  11.728 -0.0825  0.1901 -0.0017
32194W        W48003   9.566   6.683   0.537 -0.0555  0.1124  0.3167
32195W        W48004   2.877   9.998   1.094  0.0560 -0.1219 -0.0600
32196W        W48005  11.477  13.570  13.590 -0.0507 -0.0690 -0.2249
32197W        W48006   8.079  16.559   4.189  0.1338  0.0400 -0.2240
32198W        W48007   4.815  13.796  12.047 -0.0039 -0.1867  0.0369
32199W        W48008  14.262   9.199  12.667  0.4256 -0.2508 -0.3020
32200W        W48009   4.039  16.944   2.309  0.0407  0.1563  0.0184
32201W        W48010  13.488  13.845  14.849 -0.0873  0.2266  0.0242
32202W        W48011   0.648  13.713  11.753 -0.0543  0.0956 -0.2128
32203W        W48012   6.038   1.155  14.082  0.2176 -0.0194  0.2366
32204W        W48013   9.790  11.048  13.375 -0.1216 -0.3508 -0.1370
32205W        W48014   4.887  15.381   5.037  0.0505  0.0091  0.1001
32206W        W48015  11.285  15.504   3.540  0.1736  0.2009 -0.1588
32207W        W48016  14.668   3.202   1.877  0.2540  0.0313 -0.1651
32208W        W48017   4.387  14.383  12.343 -0.1108  0.0625  0.1466
32209W        W48018   6.615  18.070   1.282  0.0754  0.3434 -0.1416
32210W        W48019   4.921   5.500   3.623 -0.2214  0.2207  0.0451
32211W        W48020   4.477   2.329  12.557 -0.0952  0.0859  0.1858
32212W        W48021   9.427  10.716  12.094  0.1088 -0.0785  0.1908
32213W        W48022   7.569  11.436  14.327  0.1241 -0.0378  0.3550
32214W        W48023   9.993   6.092  13.687  0.1685 -0.2550 -0.2234
32215W        W48024   8.690   8.892  14.022 -0.0175  0.0946  0.0893
32216W        W48025   1.150   6.910  11.376  0.0549 -0.1881 -0.3666
32217W        W48026  18.507  14.460   4.199  0.3925 -0.1405  0.1310
32218W        W48027  13.477   0.007   4.996 -0.3793  0.0066 -0.2052
32219W        W48028   7.087  10.219  13.182  0.0961  0.3475 -0.1222
32220W        W48029   0.010   7.197   0.062 -0.2673 -0.0658  0.5000
32221W        W48030   7.680  12.593   4.726 -0.0467 -0.1268  0.0285
32222W        W48031  15.267   7.298  13.434 -0.0520  0.1460 -0.0507
32223W        W48032  11.031  17.789   4.091 -0.1326  0.0010 -0.1809
32224W        W48033   9.915  15.085  15.459  0.1590  0.0121  0.0373
32225W        W48034   5.088  18.691  14.515  0.2176 -0.1398  0.1324
32226W        W48035   1.951   4.088   0.282 -0.0721  0.0249  0.1287
32227W        W48036   3.438  10.889  10.967  0.0781  0.2035  0.1127
32228W        W48037   1.640   4.762  10.289 -0.1568 -0.3571  0.0661
32229W        W48038   6.396  12.737   4.429  0.1849 -0.3123  0.0045
32230W        W48039   7.586  15.400   3.671 -0.1482 -0.0036  0.2229
32231W        W48040   2.220   1.307  10.441 -0.3903  0.2416  0.3071
32232W        W48041  17.971   3.721   1.345 -0.2760 -0.1290  0.0762
32233W        W48042  10.318  16.113  14.060 -0.2243 -0.1757 -0.3368
32234W        W48043  15.904   2.655  13.915  0.2837 -0.1447 -0.0216
32235W        W48044   4.167   6.566  11.613 -0.0095  0.0670 -0.1812
32236W        W48045   0.763   1.614  13.124  0.2064  0.0843 -0.1042
32237W        W48046  18.718  16.993   0.952 -0.2704  0.1651 -0.1344
32238W        W48047  12.726   5.940   1.170  0.1459 -0.1739 -0.0464
32239W        W48048   9.359   5.414   3.455  0.0514 -0.2341  0.2533
32240W        W48049  11.752  16.402   5.975  0.2195 -0.2511  0.1520
32241W        W48050   9.069  17.467  11.509  0.0371 -0.0732 -0.1013
32242W        W48051  13.467  17.152  12.252 -0.1214 -0.0550  0.2217
32243W        W48052  15.358  13.597  11.667 -0.0855  0.2190  0.0387
32244W        W48053   7.898   0.310  10.650 -0.0781  0.1094  0.1458
32245W        W48054   7.044  15.601  15.472  0.0292  0.2276 -0.2413
32246W        W48055   3.457   1.390  10.511 -0.0594  0.0486 -0.0814
32247W        W48056   8.887  10.465  14.281  0.1125  0.1286  0.0608
32248W        W48057  15.725  13.622  13.531  0.2091 -0.0046 -0.3232
32249W        W48058  15.437   5.509   1.655 -0.2398  0.0439  0.1403
32250W        W48059  12.532  13.903   5.807  0.0162  0.2974 -0.0555
32251W        W48060  16.132   1.012  13.197  0.3035  0.1116 -0.1676
32252W        W48061   8.857   7.222  14.686  0.3197  0.1701 -0.0048
32253W        W48062   5.443  15.423   4.608 -0.2351  0.0307  0.2183
32254W        W48063  11.265   3.281  10.893  0.1737  0.0626 -0.0849
32255W        W48064   2.928   3.385   2.126 -0.1263 -0.1617 -0.0876
32256W        W48065   6.430   9.358  12.408  0.0224  0.0173 -0.2799
32257W        W48066   3.607   4.687   0.254 -0.1696 -0.0956  0.2497
32258W        W48067  11.086   0.597  11.876 -0.0285 -0.2030 -0.0297
32259W        W48068  16.317   6.511  13.936  0.0164  0.0048  0.0458
32260W        W48069   3.782  10.162   4.229 -0.0845  0.1957  0.1059
32261W        W48070  10.420   4.434  14.224  0.2472  0.1374 -0.1149
32262W        W48071  13.333   7.834   2.978 -0.2316  0.1010  0.1452
32263W        W48072   3.058   1.534   2.415  0.0370  0.3207  0.0608
32264W        W48073  18.531   9.546  12.385  0.0864  0.0782 -0.1126
32265W        W48074   8.421  10.962   0.854 -0.1586  0.1718 -0.0507
32266W        W48075  18.587   0.332  15.226 -0.1373  0.1471 -0.1246
32267W        W48076  13.818  18.112   1.528  0.1729  0.0377  0.1712
32268W        W48077   4.587  15.735  14.606 -0.0546  0.4827 -0.3152
32269W        W48078  17.210  16.180   4.365 -0.3557  0.0384  0.0463
32270W        W48079   3.580   0.101   4.905  0.3916 -0.1635  0.0529
32271W        W48080  13.695   8.046   9.931 -0.1855  0.0010 -0.1093
32272W        W48081  17.488  17.415  15.379  0.3696 -0.3258 -0.2034
32273W        W48082   1.881   9.616  15.354 -0.1695  0.0337 -0.2125
32274W        W48083  17.655  16.996  15.083  0.1639  0.0507  0.4196
32275W        W48084   5.204   0.455   2.228  0.2665  0.1467  0.0160
32276W        W48085   1.267   4.117   0.064 -0.2973  0.1037  0.4631
32277W        W48086   9.278  11.588  12.192 -0.0727 -0.0706 -0.1402
32278W        W48087   4.914  14.158   4.359  0.2965  0.2551 -0.1007
32279W        W48088   7.640   9.992  13.865  0.1925 -0.1032  0.0614
32280W        W48089   4.097   8.343  12.106  0.0208 -0.1363  0.0478
32281W        W48090   4.326  11.316  12.629 -0.1013 -0.0023  0.0952
32282W        W48091  12.262   8.059  11.361 -0.1337  0.1518  0.1845
32283W        W48092   5.216   3.116  11.516 -0.4804 -0.0002 -0.0277
32284W        W48093   2.400  11.273   3.505  0.3102 -0.3199  0.0568
32285W        W48094   2.649   7.948  15.371  0.2440 -0.2248 -0.1482
32286W        W48095   9.262   5.050  13.691 -0.2483  0.0769 -0.0373
32287W        W48096   2.929  10.698  10.776  0.2905 -0.1699 -0.2385
32288W        W48097  11.101   4.106   4.954  0.0383  0.0197 -0.1847
32289W        W48098   8.203   6.452   4.397 -0.0702  0.0385 -0.1201
32290W        W48099   5.488  17.699   3.626 -0.2068 -0.1288  0.1042
32291W        W48100   7.242   5.154  15.136 -0.1976  0.1638  0.0651
32292W        W48101   7.312   0.832  14.264 -0.1216  0.2032  0.0797
32293W        W48102   2.080   6.381   0.995 -0.0591  0.0982 -0.0456
32294W        W48103  12.390   2.210   4.183 -0.2470  0.2445 -0.1931
32295W        W48104  14.973   5.011   2.369  0.0797 -0.0384  0.1070
32296W        W48105   5.050  13.350  13.102 -0.1800  0.3452 -0.3787
32297W        W48106  17.502   7.192  12.028 -0.3238 -0.1270  0.0061
32298W        W48107   2.155  10.009  15.419 -0.1989 -0.0729 -0.3501
32299W        W48108  18.521  18.199  10.752 -0.0420  0.1070 -0.1485
32300W        W48109  10.907   2.044   4.743  0.0078 -0.0326 -0.0233
32301W        W48110  15.301   4.051   2.003 -0.1290 -0.0989 -0.1079
32302W        W48111  15.835  10.228   3.718  0.0578  0.0616 -0.1109
32303W        W48112  18.150   1.326   5.103 -0.1096  0.1435 -0.1583
32304W        W48113  15.930  11.726  14.699 -0.0996 -0.1290 -0.3534
32305W        W48114  16.586   1.123   5.234  0.1963 -0.0615  0.3524
32306W        W48115   4.510  11.723   2.514  0.0225 -0.0582 -0.3027
32307W        W48116   3.291   5.398   0.574  0.0702 -0.0930 -0.2110
32308W        W48117   4.225   2.110   3.867  0.0774 -0.0014 -0.2041
32309W        W48118  15.478  18.551   1.572  0.2215  0.0832  0.3301
32310W        W48119   5.966  15.317  11.899 -0.0546  0.2188  0.1768
32311W        W48120  15.577  17.193   3.609 -0.0284  0.1235 -0.1913
32312W        W48121   4.029  10.454  11.405 -0.1071 -0.0308  0.1973
32313W        W48122  16.018   8.202   3.434 -0.0251 -0.1476 -0.0898
32314W        W48123   1.279   9.603  13.882 -0.0457 -0.2091  0.1028
32315W        W48124  14.729   8.879   1.553  0.0585  0.0425  0.1844
32316W        W48125   5.125  10.426  10.824 -0.1708 -0.2635  0.0350
32317W        W48126  13.736   5.853   4.232 -0.2069  0.2019 -0.0516
32318W        W48127   0.433  12.567  15.411  0.1265  0.2231 -0.0223
32319W        W48128   6.656   5.786   3.965  0.3559  0.0875 -0.1212
32320W        W48129  17.404   5.754   0.828  0.1879  0.0262 -0.2930
32321W        W48130   8.672   5.860   2.365  0.1352  0.0521  0.0827
32322W        W48131  18.403   6.344   3.480  0.0278  0.1430  0.1501
32323W        W48132   9.075   7.683   0.262 -0.1998 -0.0597 -0.4570
32324W        W48133   1.461   9.630   0.524 -0.0471  0.2664  0.3089
32325W        W48134  10.529   5.738   2.958 -0.0230 -0.1932 -0.0604
32326W        W48135   5.045  11.877   4.692  0.0485 -0.0627 -0.0310
32327W        W48136  11.987  10.525   5.007 -0.0429 -0.0585 -0.0523
32328W        W48137   1.412  12.989  12.218 -0.2718  0.1672 -0.0048
32329W        W48138   4.533   2.319  11.219 -0.4518  0.1354 -0.0288
32330W        W48139  15.110  16.891   0.808 -0.3033 -0.4280  0.0694
32331W        W48140   0.612   4.516   2.371 -0.1879  0.1412  0.4705
32332W        W48141  12.486  17.675  15.373  0.1550 -0.0215 -0.2558
32333W        W48142   0.212   1.635   1.944 -0.1561  0.3053  0.1430
32334W        W48143   1.966  16.132   2.365  0.0844  0.0508  0.4446
32335W        W48144   2.619   9.183  15.469 -0.0304 -0.2690  0.0313
32336W        W48145  11.298  10.108  10.646 -0.4174 -0.0376 -0.1889
32337W        W48146  10.848   7.780   0.093  0.1489 -0.0614  0.0904
32338W        W48147   8.431   4.699  13.931 -0.6219  0.0110  0.0699
32339W        W48148   7.595   7.548  14.490  0.3904  0.0907 -0.1584
32340W        W48149   8.364   4.398   9.856  0.1378 -0.2891  0.1557
32341W        W48150   7.581   5.255   1.971  0.3510 -0.0417 -0.1125
32342W        W48151  12.960  15.314   5.424  0.0369  0.2318  0.1839
32343W        W48152  15.197  16.427   2.417  0.2815 -0.0660  0.0281
32344W        W48153   3.111  18.032  12.160 -0.0738  0.1936 -0.0447
32345W        W48154  15.827  16.905  15.418  0.1188  0.0039 -0.3497
32346W        W48155  18.349  16.754  12.068 -0.0853 -0.3288  0.3511
32347W        W48156   8.687   5.261   9.799  0.0534 -0.0107 -0.1263
32348W        W48157  11.536  13.111   1.613 -0.0110 -0.1016 -0.0328
32349W        W48158  12.709  12.283   4.188 -0.1224 -0.1739 -0.1534
32350W        W48159  17.219   3.979  13.301 -0.0568 -0.3242 -0.1855
32351W        W48160   6.700   2.371  15.102 -0.3063 -0.2400  0.1202
32352W        W48161   0.189   4.554  14.974  0.0302  0.1254  0.1365
32353W        W48162  12.556   3.273  12.024 -0.2194  0.0551  0.1658
32354W        W48163  17.920  13.285  11.105 -0.0786  0.0707 -0.1958
32355W        W48164   1.922   9.342   3.403 -0.1288  0.0867 -0.1791
32356W        W48165  16.862  13.704  12.322  0.1850  0.1324 -0.2010
32357W        W48166  10.787  12.538   1.205  0.0060 -0.1611  0.0828
32358W        W48167  15.803   7.658  11.234  0.0372  0.2093  0.0679
32359W        W48168  14.187   3.892   1.563  0.0374 -0.2536 -0.0349
32360W        W48169  10.297   0.120  11.775  0.1174 -0.0688 -0.3427
32361W        W48170  18.697   8.798   5.432 -0.0197  0.1499 -0.0001
32362W        W48171   6.900  16.541  14.476 -0.1025  0.1459 -0.4134
32363W        W48172  13.682  16.886  13.023 -0.1068 -0.0534 -0.0410
32364W        W48173  18.228  10.435  13.506  0.3152  0.0074 -0.3493
32365W        W48174   7.909  16.065  13.969 -0.0926 -0.1632  0.1491
32366W        W48175  16.491  12.742  13.001  0.1427 -0.0781 -0.1114
32367W        W48176  12.759   1.632  14.151 -0.2339  0.1506  0.2959
32368W        W48177  10.968  11.385   4.256 -0.0643 -0.2731  0.2415
32369W        W48178   6.364  14.073   4.186  0.0469 -0.1775 -0.2017
32370W        W48179  15.951  10.705  11.357  0.0598  0.0236 -0.0035
32371W        W48180  15.228   5.183  13.121 -0.2389 -0.0413 -0.3465
32372W        W48181   2.426   7.877   0.639  0.0808  0.3180  0.1421
32373W        W48182   8.341  13.065  13.425 -0.0375 -0.2385  0.2097
32374W        W48183   5.370  12.806   2.802 -0.2258  0.1712 -0.0167
32375W        W48184   1.648   8.199  10.684 -0.2377 -0.4369  0.1456
32376W        W48185   3.070  15.772   0.614  0.0680 -0.0468 -0.4963
32377W        W48186  13.993  11.456  13.638  0.0969 -0.0813 -0.0775
32378W        W48187  10.238   2.621  14.127 -0.2752 -0.2852 -0.1787
32379W        W48188   0.287   2.387   0.318  0.2331 -0.1048 -0.4210
32380W        W48189  13.355  14.991   1.175 -0.0108 -0.1335  0.1764
32381W        W48190  12.835   8.449   5.285 -0.4653 -0.1620  0.2391
32382W        W48191   5.150   3.128  14.641 -0.1490  0.0797  0.3620
32383W        W48192  14.655  10.322   3.246 -0.0920 -0.0641 -0.2735
32384W        W48193   3.799   8.610   5.096 -0.2651  0.3974 -0.0679
32385W        W48194  12.739   3.125  13.118  0.1532 -0.0970 -0.2239
32386W        W48195   3.407  13.524   2.179  0.1065 -0.0451 -0.3337
32387W        W48196  12.816   6.801  11.573 -0.2425 -0.1155  0.2503
32388W        W48197   6.302  13.007  12.347  0.2282  0.0538  0.0167
32389W        W48198  14.892   6.271   2.054  0.0699 -0.2438  0.1695
32390W        W48199   8.886   6.974  13.335  0.0397  0.1764  0.1827
32391W        W48200  12.194  14.446   2.280 -0.1877 -0.0899 -0.2790
32392W        W48201   8.469   6.245  12.912  0.0489 -0.0155 -0.3397
32393W        W48202   6.595   2.643   1.690  0.0663  0.2622 -0.0039
32394W        W48203  11.604   2.008  12.601  0.1382  0.3338  0.3460
32395W        W48204   4.663   1.946  15.363 -0.0944 -0.2322  0.0686
32396W        W48205  16.781  10.094  12.124 -0.2003 -0.0123 -0.1319
32397W        W48206  17.803   1.264   1.979  0.0339  0.1286  0.1494
32398W        W48207   3.783  12.164   0.864  0.0800 -0.4528  0.0113
32399W        W48208   3.569   7.741   2.041  0.0194  0.5915  0.2021
32400W        W48209  14.923   1.039  14.172 -0.2725  0.1434  0.0019
32401W        W48210  14.424  16.683   4.597  0.0051 -0.0133  0.1375
32402W        W48211   5.269   3.089  15.526  0.2697 -0.3283 -0.3086
32403W        W48212   1.765   4.651  13.647 -0.0001 -0.3719 -0.0459
32404W        W48213   1.567   2.273  12.548  0.1863  0.2324  0.0972
32405W        W48214   1.418   2.526   3.489 -0.1291  0.1996 -0.1066
32406W        W48215  16.714  17.700   3.473  0.1103 -0.0910 -0.0578
32407W        W48216  11.901   8.937  12.314 -0.0455  0.1180  0.0204
32408W        W48217   7.868  11.432   4.788  0.0801  0.0254 -0.1816
32409W        W48218  16.361  15.459   0.017 -0.4453  0.0590 -0.2198
32410W        W48219   5.968   0.501   1.089 -0.0873  0.1779 -0.0198
32411W        W48220  12.295   5.541  11.892  0.5450  0.0407  0.2328
32412W        W48221   7.731   3.693  13.352  0.1844 -0.2668 -0.4527
32413W        W48222  11.038   3.670  14.677  0.1277  0.1739 -0.0024
32414W        W48223   3.606   2.202  15.416  0.0097  0.2001  0.1000
32415W        W48224   9.651   8.623   4.163  0.2199  0.3789 -0.2463
32416W        W48225  14.720   3.649   0.513  0.2079  0.1708 -0.0057
32417W        W48226   6.290  11.971  10.389 -0.1834 -0.1799  0.2445
32418W        W48227   5.111  13.946  14.994 -0.0205  0.1628  0.0537
32419W        W48228   5.517   9.525   0.008 -0.2499  0.3644 -0.4886
32420W        W48229  12.267  15.713   4.835  0.0580 -0.1152 -0.1315
32421W        W48230   0.647   9.131   3.115  0.1309  0.1460  0.1202
32422W        W48231   4.385   3.677  12.289  0.2106  0.3421 -0.1295
32423W        W48232   8.370  18.313  15.327 -0.3022  0.2158  0.0500
32424W        W48233  11.108   1.613   4.354  0.3910  0.2925 -0.0029
32425W        W48234  18.390  13.833  15.332 -0.2865 -0.2213 -0.1944
32426W        W48235   4.379   4.829   2.392 -0.0868 -0.0121  0.1768
32427W        W48236   8.642   1.446  11.136 -0.0576  0.0535  0.2975
32428W        W48237   7.376  12.697  11.535  0.0064  0.0139 -0.0404
32429W        W48238   0.057  14.423  14.678 -0.2539 -0.0347  0.3674
32430W        W48239  11.674  18.563  13.731  0.3896  0.1775 -0.4562
32431W        W48240   3.150  15.291  13.977 -0.0956 -0.1186 -0.2749
32432W        W48241   9.199  12.480  13.330 -0.1063  0.1502 -0.1401
32433W        W48242   6.956  10.516   1.856 -0.0884  0.3504  0.2469
32434W        W48243  17.915  16.436   2.087  0.5653  0.0966  0.2189
32435W        W48244  12.257   9.845  10.684 -0.0392  0.0029  0.2435
32436W        W48245  16.153   9.413   1.734 -0.1761  0.0088 -0.1309
32437W        W48246  12.802  15.775  10.400 -0.3959  0.0554 -0.2301
32438W        W48247  17.613   9.378  12.641  0.1422  0.0417 -0.0490
32439W        W48248   8.173  12.868   1.466 -0.3691 -0.0191  0.1284
32440W        W48249   1.222  15.929  10.352 -0.2120  0.1049 -0.0723
32441W        W48250  15.642   3.485   4.965 -0.0548  0.2871 -0.3127
32442W        W48251   3.354  10.509   1.497 -0.0708 -0.1744  0.2287
32443W        W48252  14.110   2.807   2.948  0.1305 -0.0409 -0.0791
32444W        W48253   4.118  16.793   3.257  0.1671 -0.2037 -0.2098
32445W        W48254   4.590   0.531   5.369 -0.0332 -0.1345  0.0029
32446W        W48255  14.969  15.691   5.527 -0.0419 -0.0942  0.3711
32447W        W48256  15.500  16.857   1.152  0.1449 -0.1509 -0.0287
32448W        W48257   6.326   5.638  14.980 -0.3188  0.1638  0.3764
32449W        W48258  13.020   5.529   0.517 -0.1330  0.1781  0.0526
32450W        W48259  14.948   3.464  11.831 -0.1842  0.3400  0.2567
32451W        W48260  18.525  10.175   3.478  0.1559 -0.2137  0.0286
32452W        W48261   5.556   9.575   4.942 -0.0436  0.1052  0.3849
32453W        W48262  14.265   8.408   3.118  0.2361 -0.2703 -0.3978
32454W        W48263   5.226  14.016   3.992  0.1632  0.1502  0.2830
32455W        W48264   8.049   3.491   4.865  0.5680 -0.0986 -0.2667
32456W        W48265   8.591   3.033  10.530 -0.0438  0.0047 -0.0437
32457W        W48266  10.616  14.154   3.700  0.1521 -0.0583 -0.1202
32458W        W48267   1.681  17.489  12.753  0.1443 -0.2285 -0.0745
32459W        W48268   3.686   6.611  14.868 -0.1893  0.1934 -0.0472
32460W        W48269  17.137   9.441  14.397  0.2821 -0.0348  0.2804
32461W        W48270  18.220  11.011  14.535 -0.2521 -0.1954 -0.1417
32462W        W48271   7.566   1.440  10.522 -0.0208 -0.1042 -0.0112
32463W        W48272  12.330  11.817  13.498 -0.0519  0.0842  0.1846
32464W        W48273  12.019  12.006   2.558  0.0745 -0.2393  0.1740
32465W        W48274   1.050   6.257   4.045  0.0870  0.0134  0.0024
32466W        W48275  13.520  16.663  15.267 -0.0880 -0.2065 -0.1678
32467W        W48276  11.051   5.662  14.181 -0.0230 -0.0589  0.3351
32468W        W48277  10.584   2.932   0.640  0.2588  0.2367  0.1283
32469W        W48278  10.646   8.126   4.920 -0.0167  0.1306  0.2530
32470W        W48279   3.832   6.274   2.456  0.2967  0.1468 -0.1827
32471W        W48280   7.934   6.373   3.058 -0.2715  0.1431 -0.3635
32472W        W48281  13.002   2.172   1.795 -0.1031  0.1981  0.1912
32473W        W48282  11.599   6.046   3.349  0.1855  0.0123 -0.0233
32474W        W48283   5.021  15.071   1.895 -0.0982 -0.1882 -0.0901
32475W        W48284   4.653  15.564  11.653  0.3307 -0.1395 -0.0163
32476W        W48285   4.262  17.269  14.254 -0.1067 -0.0717 -0.1171
32477W        W48286  12.560   0.374  15.303 -0.0922 -0.0587  0.0427
32478W        W48287  15.985  16.350  15.427 -0.3441 -0.1016 -0.2722
32479W        W48288   8.252   5.951  13.500  0.1320  0.1224  0.1631
32480W        W48289  17.897   7.583   9.769  0.2504  0.4903 -0.2179
32481W        W48290   3.413  12.130  14.322 -0.0550 -0.0927 -0.0935
32482W        W48291   5.320  17.787  10.969 -0.0882  0.2129  0.1120
32483W        W48292  10.137   9.252   2.371 -0.3690 -0.0682  0.2909
32484W        W48293  11.104   6.129   3.925  0.1690 -0.1382 -0.1690
32485W        W48294  13.828  15.043   0.248  0.3838 -0.2015  0.0788
32486W        W48295   1.675  11.807   0.605 -0.1614 -0.1698  0.0893
32487W        W48296   7.327  18.551   3.835 -0.3723 -0.2659 -0.2098
32488W        W48297  10.737   9.023   1.482  0.0787 -0.0896 -0.1566
32489W        W48298   3.961  13.213   3.908  0.2679 -0.1228  0.1957
32490W        W48299  15.122  11.250   3.711  0.1645  0.1907 -0.0545
32491W        W48300  12.895   6.481   3.420 -0.0722  0.1409  0.1843
32492W        W48301  17.785   1.777  14.735 -0.0531  0.2532  0.0558
32493W        W48302  13.591  17.788   3.182  0.3278  0.1760  0.3402
32494W        W48303   8.432   3.315  12.588  0.0144 -0.0841  0.0760
32495W        W48304  13.607  13.242   1.892  0.4588  0.0452  0.3182
32496W        W48305   8.162  10.216  11.796 -0.1277  0.1948  0.0953
32497W        W48306  12.373   3.124  15.494 -0.3721 -0.0168 -0.1431
32498W        W48307  11.743  18.420  14.600  0.0452 -0.0489 -0.0698
32499W        W48308  16.889  12.973  12.240 -0.2559  0.2110 -0.4194
32500W        W48309   8.618  11.020  13.196  0.3541  0.1986  0.0438
32501W        W48310   0.308   9.068   2.266 -0.1055 -0.0956  0.2388
32502W        W48311   0.491   9.518  12.900  0.0457  0.1753 -0.1763
32503W        W48312  12.297   2.527  13.300  0.0457  0.0461 -0.1209
32504W        W48313   7.352   2.394  12.986 -0.0048 -0.0525  0.0388
32505W        W48314  13.807   6.721   3.910 -0.1079 -0.0302 -0.3720
32506W        W48315   2.791   5.268   1.582  0.2315 -0.4185  0.0758
32507W        W48316   5.524  10.565   1.481 -0.0137  0.2714  0.1850
32508W        W48317   2.888   0.347  11.184  0.0828 -0.1161 -0.1511
32509W        W48318  14.190  16.125   1.411 -0.1481  0.1581  0.0995
32510W        W48319   7.836  11.660  10.531 -0.3237 -0.1042  0.0337
32511W        W48320   0.966   5.409   0.863  0.0387  0.1374 -0.1602
32512W        W48321   2.445  10.682   2.778  0.2603 -0.1473 -0.1181
32513W        W48322  10.230  11.177   0.709  0.3051 -0.1574  0.1090
32514W        W48323  10.160   5.366   5.443 -0.1667 -0.3160  0.0920
32515W        W48324   6.570   5.008   0.822 -0.0698  0.0483  0.1787
32516W        W48325   8.022   8.383  10.326 -0.0790  0.2532 -0.0803
32517W        W48326  10.533   5.075   1.276 -0.3479  0.2444  0.0793
32518W        W48327   4.257  15.542  11.354  0.2387 -0.1881 -0.0520
32519W        W48328  10.753   2.703   3.329 -0.1437 -0.0839 -0.0991
32520W        W48329  17.101   9.140   0.889  0.0625 -0.1400 -0.1451
32521W        W48330   6.710  17.492   0.125 -0.3518  0.2098  0.0862
32522W        W48331   2.935  11.103  10.458  0.2742  0.1168 -0.2688
32523W        W48332   9.152   2.254  11.519  0.0311 -0.1294  0.0208
32524W        W48333   0.399  13.444  15.205 -0.3069  0.2293 -0.0629
32525W        W48334  17.935  14.737  10.484  0.1062 -0.4455  0.2155
32526W        W48335   7.130   0.352  14.892  0.1497  0.1873 -0.0015
32527W        W48336  18.438  14.966  11.647  0.1527 -0.2174  0.0248
32528W        W48337   5.867   4.971   0.833  0.1053  0.1396  0.1067
32529W        W48338   4.213  11.535   0.190  0.1188 -0.1378  0.0291
32530W        W48339  16.564   4.721  11.155  0.1653 -0.5581 -0.3666
32531W        W48340   6.069   6.686   0.048  0.1910  0.0149 -0.0322
32532W        W48341  17.691   4.883  15.530  0.0370 -0.0113 -0.0747
32533W        W48342   9.700  13.225  13.347 -0.2268  0.0382  0.0973
32534W        W48343  13.813   4.258  11.373 -0.3639 -0.0231 -0.1663
32535W        W48344  17.548  14.129  10.743  0.2937  0.1329 -0.0672
32536W        W48345  13.705   1.083   0.102  0.2854 -0.0077  0.0125
32537W        W48346  15.678  14.061  13.713  0.1404 -0.0278  0.2314
32538W        W48347  13.395   0.231  11.983  0.2425 -0.3052  0.0644
32539W        W48348   1.151   7.550   0.065  0.2752 -0.0803 -0.4798
32540W        W48349  10.970   2.941  12.208 -0.1533  0.4466 -0.0800
32541W        W48350   3.721  17.634  11.511  0.1178 -0.2682 -0.0512
32542W        W48351   5.348   2.476  11.049  0.2535 -0.1127 -0.2830
32543W        W48352   4.220  15.340   3.381 -0.1118 -0.0846 -0.0275
32544W        W48353   2.660  17.576   1.909  0.1291  0.2086  0.0252
32545W        W48354  14.397   5.470  15.027  0.2107  0.0505 -0.2136
32546W        W48355   2.948   9.415  13.130 -0.1346 -0.0753  0.1340
32547W        W48356   2.722   6.706   3.058 -0.2790 -0.2850 -0.0369
32548W        W48357  11.638  12.292  11.003 -0.0696  0.1177  0.0918
32549W        W48358  13.713  15.152   4.043  0.2699 -0.0468  0.0862
32550W        W48359  13.122  17.142   6.266  0.0016 -0.1532 -0.1018
32551W        W48360   7.595  18.216   4.171  0.0611 -0.1386 -0.2796
32552W        W48361   8.540   6.285  14.245 -0.3979 -0.0890 -0.0617
32553W        W48362  13.291   8.944  11.731  0.0628  0.1609  0.0491
32554W        W48363   3.863  10.015  11.210 -0.3809  0.3555  0.0650
32555W        W48364  12.126   3.303  12.445  0.0485 -0.1940  0.0408
32556W        W48365   5.929  18.435   4.584  0.2547  0.1798  0.0073
32557W        W48366   0.711  15.403  14.931  0.0272  0.2103  0.1185
32558W        W48367  18.755   2.650   4.570  0.0878  0.4129  0.2705
32559W        W48368  13.584  18.320   2.906 -0.2035 -0.1815 -0.2891
32560W        W48369   7.794   4.651   4.615 -0.1157 -0.0986  0.2252
32561W        W48370   3.893   5.294  15.376  0.0109 -0.2346 -0.0726
32562W        W48371  14.805   5.806  13.680 -0.0988 -0.0455 -0.0885
32563W        W48372  16.804  13.813  10.295  0.0442 -0.1744 -0.0093
32564W        W48373   4.436  11.971   1.643 -0.0214 -0.0090  0.0062
32565W        W48374  16.088   3.628   5.793 -0.1286 -0.1205  0.3661
32566W        W48375   5.843   6.869  14.366 -0.1131  0.0487  0.2462
32567W        W48376   7.806  17.487  13.034  0.3041 -0.2341  0.1421
32568W        W48377   3.661  11.212  11.243 -0.1114  0.4433 -0.6306
32569W        W48378  13.610   2.450   2.926 -0.1666  0.0884  0.0016
32570W        W48379  12.223   3.418  13.703  0.2427  0.1624 -0.0595
32571W        W48380  13.376  10.951   5.321  0.0011  0.1450 -0.0963
32572W        W48381  13.782   3.321   4.378  0.0648 -0.2155  0.2328
32573W        W48382   8.574   2.155   2.510  0.3226 -0.1391  0.2397
32574W        W48383   9.999  14.411  11.576 -0.1588 -0.1508 -0.4187
32575W        W48384   0.214   6.948  11.395  0.0981  0.2594 -0.1946
32576W        W48385  12.104  16.506  15.009 -0.0787 -0.1547  0.0368
32577W        W48386  14.509   0.469  11.266  0.1176 -0.0272 -0.2449
32578W        W48387  12.584  15.679   3.157 -0.1728 -0.3999 -0.1084
32579W        W48388   0.497   5.624   4.964 -0.0517 -0.2215 -0.0658
32580W        W48389   9.579  15.330   5.351  0.1587  0.1193 -0.0702
32581W        W48390  17.230  13.493   4.031 -0.1426  0.1305 -0.0593
32582W        W48391  14.819  13.050  12.729  0.1733 -0.0712  0.2927
32583W        W48392   6.592   8.480  15.022  0.0945 -0.2429 -0.0648
32584W        W48393  10.566   0.624  11.878 -0.3039 -0.3717  0.0400
32585W        W48394   1.304  10.001   2.969  0.2079 -0.1667  0.2770
32586W        W48395  11.002   4.741   0.049 -0.0296 -0.2005 -0.2615
32587W        W48396  14.175   3.168   0.967  0.0061  0.1204 -0.0299
32588W        W48397   9.756  13.995  11.574  0.1509 -0.1123  0.0640
32589W        W48398  13.761   1.553   1.388 -0.1107  0.0951 -0.0446
32590W        W48399  13.545  17.490   4.127 -0.0429  0.3740  0.0215
32591W        W48400  15.416   1.936  10.943 -0.1442  0.0970 -0.2263
32592W        W48401   8.709  16.009   1.223  0.0945 -0.3928  0.0089
32593W        W48402   2.030  10.494  11.825  0.2471 -0.0732  0.0451
32594W        W48403  18.333   0.249   4.108 -0.2813 -0.0470  0.0603
32595W        W48404   5.889   1.708   0.977 -0.1154  0.0734  0.1508
32596W        W48405  11.828   2.205   2.344 -0.0058 -0.0154 -0.1299
32597W        W48406  11.490   6.522   0.604 -0.2545 -0.1717  0.2448
32598W        W48407   6.351  12.365  15.487 -0.1160 -0.1703  0.0489
32599W        W48408  18.306  17.661  11.293  0.3377 -0.3418 -0.0161
32600W        W48409  16.455   2.961   0.420 -0.0704  0.0631  0.2440
32601W        W48410   0.816  15.879   2.136 -0.1931 -0.1364 -0.2301
32602W        W48411  17.426  16.907   4.902  0.1108 -0.0813  0.0863
32603W        W48412  13.842  10.691   1.023 -0.1467 -0.2068  0.0229
32604W        W48413  16.948   2.261  11.570  0.3108  0.1796 -0.0017
32605W        W48414   1.508  11.783  13.097 -0.2311 -0.1021  0.0873
32606W        W48415  18.409   1.098  14.415  0.1481 -0.3305 -0.5768
32607W        W48416   9.578   8.519  13.622  0.2905 -0.0825  0.0816
32608W        W48417  13.352   0.706  15.207  0.1650 -0.1289  0.0605
32609W        W48418   5.011   3.837   2.874 -0.0665  0.0446 -0.1835
32610W        W48419  12.392  13.255   2.247 -0.1834  0.1321 -0.0535
32611W        W48420   9.677   5.557   0.401  0.0040 -0.1038 -0.2571
32612W        W48421  13.946  13.099   5.333 -0.0009  0.1688 -0.3221
32613W        W48422  18.223  17.175  11.145 -0.2695  0.1362  0.3687
32614W        W48423   6.839  12.473   3.624 -0.2159 -0.2637  0.3629
32615W        W48424   0.565  18.551  12.951  0.0734  0.0943 -0.0475
32616W        W48425   0.872  18.388  12.469 -0.0452  0.4020 -0.2956
32617W        W48426   1.974  12.896  10.928  0.1627  0.1588 -0.0028
32618W        W48427  11.366   8.692  13.083 -0.0608 -0.1919  0.1795
32619W        W48428  16.067   7.886  13.499 -0.2657  0.3294  0.2262
32620W        W48429   2.584  10.570  11.805  0.2597 -0.0852 -0.0571
32621W        W48430   9.645   2.114  14.592 -0.3618  0.1288 -0.1355
32622W        W48431  13.007  16.973   3.371 -0.1359 -0.0044 -0.3901
32623W        W48432   1.416   9.421   5.072  0.4135 -0.1154  0.1533
32624W        W48433   8.257  16.889  15.299  0.0490 -0.1374 -0.3004
32625W        W48434   3.009  12.325  12.594 -0.1347  0.2611  0.4611
32626W        W48435  15.770  18.188   5.459  0.1204  0.3141 -0.0013
32627W        W48436   4.886  18.388   5.375  0.1912 -0.2307  0.2314
32628W        W48437  10.086   1.578  14.222 -0.3626 -0.0882 -0.0627
32629W        W48438   4.292  11.481   4.814 -0.1355 -0.1118 -0.1926
32630W        W48439  12.305   9.242   1.763  0.0267 -0.2251 -0.0736
32631W        W48440   0.176   7.531   5.069  0.1920  0.1212 -0.2059
32632W        W48441  13.984   3.385   1.996 -0.0351  0.1659  0.0795
32633W        W48442   6.191   6.796   4.668 -0.0158  0.1305  0.1315
32634W        W48443  17.612   4.974  12.129 -0.2657 -0.0617 -0.0944
32635W        W48444   6.846   4.382  14.057  0.4607 -0.1647 -0.0812
32636W        W48445   5.700  15.346   1.167  0.2066  0.1263 -0.1548
32637W        W48446  13.336  17.496   1.557  0.0511 -0.2828  0.0650
32638W        W48447   4.412  18.116  14.047  0.0999  0.1639  0.4506
32639W        W48448   5.408  15.164  13.342 -0.1002  0.1055  0.0715
32640W        W48449  10.522   8.677  14.486  0.2900 -0.0067  0.4994
32641W        W48450   3.336   9.533   4.366 -0.1205  0.2275  0.1043
32642W        W48451   7.696  16.831  14.285 -0.1977  0.2295 -0.0879
32643W        W48452  11.070  12.061   1.060  0.0208  0.3208 -0.2048
32644W        W48453  10.364  13.792  10.746  0.1021 -0.0573 -0.3924
32645W        W48454  14.037  14.746   4.990 -0.2250 -0.1168  0.0300
32646W        W48455   7.816  14.331   1.672 -0.3522  0.0838 -0.0621
32647W        W48456  13.261  17.673  12.213 -0.1428  0.3791  0.2919
32648W        W48457   6.281   0.941  11.056  0.1706  0.1965  0.3379
32649W        W48458   3.490  17.450   1.777 -0.6123 -0.0478 -0.0620
32650W        W48459  14.654  15.566   3.416  0.0868  0.0586  0.1044
32651W        W48460  10.452  11.553   3.423  0.1435 -0.2711  0.0913
32652W        W48461  17.311   1.032   2.458 -0.1096 -0.1128 -0.1994
32653W        W48462  10.284   5.866  15.060  0.0741  0.2079 -0.3036
32654W        W48463   7.603   4.083  14.692  0.1974 -0.2678  0.0949
32655W        W48464   2.052   7.637   1.349  0.1979  0.0644 -0.0911
32656W        W48465   9.520   4.934   3.593  0.0003  0.0023 -0.1324
32657W        W48466  11.465   9.116   6.027 -0.1112  0.3062  0.0079
32658W        W48467   8.091  16.436  15.529  0.2910  0.0007 -0.1438
32659ION     NA48468   8.415   3.138   4.705 -0.0272 -0.1854  0.1056
32660ION     NA48469   5.710  12.454   2.810 -0.0119  0.0630 -0.5086
32661ION     NA48470  14.513  16.665   6.208  0.0606  0.0691  0.1607
32662ION     NA48471   1.133  10.685   3.644  0.2390  0.1064 -0.1872
32663ION     NA48472  12.321   5.624   4.396  0.0102 -0.2287 -0.3417
32664ION     NA48473   4.865   3.497   9.658 -0.3136 -0.2453 -0.2950
32665ION     NA48474  13.828  16.459   5.031  0.0485  0.1386 -0.0777
32666ION     NA48475   2.317  11.052   5.618 -0.0317  0.2783 -0.0101
32667ION     NA48476  17.974  16.192   9.916 -0.2179  0.2453 -0.2109
32668ION     NA48477   1.632   3.456   9.563  0.1536  0.0091 -0.2806
32669ION     NA48478  14.579  11.646  13.497 -0.0978  0.1115  0.2333
32670ION     NA48479   5.304   0.345  12.677 -0.1360  0.1151 -0.0855
32671ION     NA48480   7.713   8.345   3.637  0.1025 -0.1193  0.3383
32672ION     NA48481   2.379  15.476   5.151  0.2902 -0.1684 -0.2024
32673ION     NA48482   1.060  10.355   9.902 -0.0713 -0.0194 -0.1011
32674ION     NA48483   1.084   1.298   4.660 -0.1269 -0.0398 -0.1458
32675ION     NA48484   1.000  10.761  12.636 -0.0314  0.3201  0.2905
32676ION     NA48485  14.936  13.873   5.358  0.1988 -0.1984 -0.0252
32677ION     NA48486   9.897   7.214   1.513 -0.1755 -0.0442 -0.1215
32678ION     NA48487  18.066   3.493   5.495 -0.3274  0.1858 -0.0467
32679ION     NA48488   5.790  18.117   2.067  0.0580 -0.0102  0.2644
32680ION     NA48489   2.276   1.013   3.860 -0.0014 -0.0711 -0.2354
32681ION     NA48490   7.451   8.034   5.659 -0.2603  0.4279 -0.0902
32682ION     NA48491   7.323   1.709  15.048  0.4331 -0.0179 -0.2171
32683ION     NA48492   3.364   4.291   9.743 -0.2471 -0.0507  0.0974
32684ION     NA48493   6.471  11.206   9.623 -0.0694  0.0841 -0.4878
32685ION     NA48494  11.157  17.168  12.471  0.3346 -0.1407  0.2782
32686ION     NA48495  13.873  16.329   0.471 -0.1051  0.0960 -0.0388
32687ION     NA48496   5.599   7.853  15.104 -0.3170 -0.2238  0.2303
32688ION     NA48497  12.616   0.531   0.772 -0.4778  0.0393  0.3008
32689ION     NA48498   9.838   4.315  11.751  0.0490  0.2635 -0.0263
32690ION     NA48499  18.160  10.958   9.627 -0.0945 -0.1538 -0.1146
32691ION     NA48500   0.673  13.017   9.559  0.0681 -0.0428 -0.0535
32692ION     NA48501   8.622  17.025   5.298 -0.1801 -0.2254  0.1945
32693ION     NA48502  15.954   5.452   3.304 -0.3909  0.1833 -0.1528
32694ION     NA48503  13.115   2.060  10.340  0.1592 -0.0300 -0.1947
32695ION     NA48504  17.446   3.240   9.829  0.2663 -0.1848  0.2244
32696ION     NA48505  10.503   8.614  10.012 -0.1975  0.0791 -0.0006
32697ION     NA48506   5.809   2.231   4.046  0.1619  0.0412 -0.2170
32698ION     NA48507  13.671  11.589   2.145  0.1073 -0.1095 -0.0442
32699ION     NA48508   3.063   6.252   3.079  0.1368  0.0413 -0.1181
32700ION     NA48509   7.812  13.754   9.682  0.0250  0.1060  0.1436
32701ION     NA48510  18.776  12.514   4.983  0.0835 -0.1553  0.3720
32702ION     NA48511   5.949   9.332  12.303  0.1054  0.1830 -0.3091
32703ION     NA48512   6.210   0.965  12.479 -0.0431  0.0098  0.2776
32704ION     NA48513  10.139   6.062  10.968  0.0718  0.2181 -0.1248
32705ION     NA48514   7.312   5.566   5.719  0.1842  0.1547 -0.0009
32706ION     NA48515   0.154  15.209  15.423 -0.1150  0.1000  0.0140
32707ION     NA48516   7.873  17.478  13.988 -0.4272  0.1493  0.0170
32708ION     NA48517   4.223   4.251  15.211 -0.0554  0.3953 -0.3477
32709ION     NA48518  17.510   9.440  14.030 -0.0891  0.0426  0.0165
32710ION     NA48519   4.655  12.809   1.997 -0.1305  0.1172 -0.1013
32711ION     NA48520   9.026   0.759   5.330  0.0499 -0.1500  0.1523
32712ION     NA48521   1.632  12.103   9.636  0.2012 -0.3382  0.0512
32713ION     NA48522   2.307  10.303   5.517  0.2646 -0.1549  0.2784
32714ION     NA48523  18.441  10.409   0.112  0.2411  0.3172  0.1578
32715ION     NA48524   5.900  13.778   4.063  0.0173 -0.0903 -0.1439
32716ION     NA48525   3.214  10.368  15.545  0.1492 -0.0747 -0.1031
32717ION     NA48526   9.527   5.919  12.867  0.5040  0.0761 -0.1617
32718ION     NA48527  18.007   2.917   9.913  0.0529 -0.1396  0.2057
32719ION     NA48528   4.724  13.625   5.516 -0.0911  0.0650  0.1673
32720ION     NA48529   5.474  10.774  11.088  0.1197 -0.1080 -0.1990
32721ION     NA48530   2.414  14.836   2.583 -0.0677 -0.0412 -0.1547
32722ION     NA48531   9.066   4.989   2.002  0.0696 -0.0426  0.0279
32723ION     NA48532   1.736   2.374   1.520  0.3644 -0.3214 -0.1142
32724ION     NA48533   6.177  17.029   9.603  0.1357 -0.4211 -0.4613
32725ION     NA48534  15.224  11.676   9.863 -0.1871 -0.2816  0.0197
32726ION     NA48535  10.439   3.918   5.957 -0.3031 -0.0491 -0.0261
32727ION     NA48536  14.564  14.016  10.326  0.2018  0.1090 -0.0506
32728ION     NA48537  17.850   8.399   4.575 -0.0314 -0.0570 -0.1075
32729ION     NA48538   1.629   1.736   4.791 -0.1740 -0.1184  0.1527
32730ION     NA48539  16.490   9.365  10.667  0.2670  0.1840 -0.1939
32731ION     NA48540  12.719   3.493  10.216  0.1028 -0.0433 -0.1325
32732ION     NA48541   2.332   3.498   0.726  0.2692  0.0060 -0.1758
32733ION     NA48542  10.372  12.427  10.000 -0.4014  0.0400 -0.2286
32734ION     NA48543  15.147   0.894  10.713 -0.1444  0.0371  0.3206
32735ION     NA48544   1.720   4.944   9.811  0.0753  0.2555  0.3193
32736ION     NA48545   6.383   3.009   6.006 -0.1227 -0.1762 -0.0833
32737ION     NA48546  11.550   2.950   9.938 -0.1578  0.1364 -0.2292
32738ION     NA48547   5.316   0.296   5.160 -0.0137  0.4214 -0.0821
32739ION     NA48548   0.517  14.233   9.876  0.1826  0.1380  0.1865
32740ION     NA48549  15.531  11.015  14.700  0.2181 -0.1518  0.1525
32741ION     NA48550   0.555   4.769  14.467 -0.3072  0.0105  0.0019
32742ION     NA48551   2.667  17.141   9.873 -0.0381  0.2356  0.1034
32743ION     NA48552   5.893   2.635  14.888 -0.0439  0.1300 -0.1116
32744ION     NA48553   7.708  15.256  12.991  0.0429 -0.0012  0.2134
32745ION     NA48554   7.093  17.743   9.615 -0.3676 -0.2480 -0.3900
32746ION     NA48555   2.642   6.548  10.149  0.2531  0.2092  0.3976
32747ION     NA48556  14.910   1.781  10.181 -0.0652 -0.2310  0.0985
32748ION     NA48557  10.478   1.116   6.058  0.3450 -0.2471  0.3237
32749ION     NA48558   1.045   4.258   0.920 -0.0722  0.2925 -0.1564
32750ION     NA48559  16.552  14.999   4.340  0.3143  0.1467 -0.1271
32751ION     NA48560   4.667   6.415  10.058 -0.0248 -0.1330  0.1266
32752ION     NA48561  17.515   0.816   1.937 -0.2236  0.1832  0.0538
32753ION     NA48562   6.343  12.381   5.386 -0.0062  0.3267  0.0092
32754ION     NA48563  12.106   1.241   2.064  0.0068  0.0968  0.0860
32755ION     NA48564   7.196   5.231   4.582  0.0114 -0.0529  0.2023
32756ION     NA48565   0.421   1.980  10.032  0.0899 -0.1376 -0.0736
32757ION     NA48566   9.674  18.655  10.161 -0.0799 -0.2073  0.2216
32758ION     NA48567   7.783   5.703   5.300  0.1867 -0.1888  0.1603
32759ION     NA48568   5.325  18.246   9.716 -0.0156 -0.0061  0.1793
32760ION     NA48569   5.389   3.480  14.146  0.2865 -0.0829  0.0595
32761ION     NA48570   1.669   6.791  10.039 -0.1668 -0.0139 -0.2357
32762ION     NA48571   4.031   1.480   5.493 -0.0325  0.0589 -0.0150
32763ION     NA48572  18.756   8.260  14.445 -0.0693 -0.1514 -0.1838
32764ION     NA48573   4.744   0.439  13.697  0.0592  0.1374 -0.0823
32765ION     NA48574   3.817   0.323  11.299 -0.1296  0.0310 -0.2117
32766ION     NA48575   8.817   7.033   1.009 -0.0638  0.1563  0.1581
32767ION     NA48576   9.790   6.590  10.238 -0.0182 -0.0521  0.0812
32768ION     NA48577  10.639  16.517   5.776 -0.1113  0.2897  0.0633
32769ION     NA48578   1.602   7.697  14.219  0.1808  0.4154  0.1751
32770ION     NA48579  17.294  15.764   5.908 -0.2033  0.2279 -0.3642
32771ION     NA48580   5.286  13.124   0.537 -0.2012 -0.0961  0.2613
32772ION     NA48581   2.838  18.324  11.780 -0.2780  0.0028  0.0867
32773ION     NA48582   2.019  14.889  13.429 -0.1166  0.0044 -0.0875
32774ION     NA48583   7.690  12.681   9.649  0.0150  0.1260  0.0294
32775ION     NA48584   8.928  10.899   0.868 -0.1669  0.0234 -0.1854
32776ION     NA48585   5.068   8.160   5.378  0.1118  0.0588  0.0149
32777ION     NA48586  14.174   6.108   1.758  0.2969 -0.1329  0.3906
32778ION     NA48587  16.936   0.889  14.552 -0.4757 -0.1350 -0.2425
32779ION     NA48588  11.758  16.878   3.785  0.0071 -0.2582 -0.1070
32780ION     NA48589  16.280  13.342   5.429 -0.1317 -0.1515  0.0927
32781ION     NA48590  14.740  13.811   3.543  0.1105  0.2712 -0.0426
32782ION     NA48591   8.367   6.239  10.336 -0.0691  0.0106  0.1999
32783ION     NA48592  17.319   1.442  10.036  0.2150  0.1618 -0.0087
32784ION     NA48593   9.236  14.087   5.074 -0.0375 -0.3646 -0.1860
32785ION     NA48594  12.186   1.842   5.102  0.1145 -0.2037 -0.1537
32786ION     NA48595  13.682  12.791   5.784 -0.5786 -0.1258  0.1856
32787ION     NA48596  13.645   5.124  15.425 -0.0816  0.1751  0.1001
32788ION     NA48597  14.851  16.663  13.549  0.0057  0.0983  0.0224
32789ION     NA48598  17.397   9.850  13.089 -0.3126  0.3834 -0.2964
32790ION     NA48599   9.595   2.004  10.033  0.1098  0.2640 -0.3739
32791ION     NA48600  15.664   5.128   1.019  0.1341 -0.1024 -0.1148
32792ION     NA48601  12.459   7.628   9.987  0.3495  0.1408  0.1199
32793ION     NA48602   0.235  10.466  10.801  0.0738 -0.0976 -0.0577
32794ION     NA48603   7.846   2.477   2.075 -0.2592  0.3366  0.1758
32795ION     NA48604   3.378  17.097   9.803  0.0488  0.0581  0.0012
32796ION     NA48605   0.554  17.105   3.118  0.2123 -0.5470 -0.2142
32797ION     NA48606   5.752  16.490  13.101  0.1329  0.2137 -0.0896
32798ION     NA48607   3.516   5.933   5.226 -0.1128 -0.0826 -0.1637
32799ION     NA48608  17.891   6.106  14.201  0.0404 -0.4073 -0.0091
32800ION     NA48609   2.084   9.613  13.535  0.0641 -0.1384  0.0162
32801ION     NA48610   9.157   7.178   3.078 -0.3194 -0.1248 -0.0508
32802ION     NA48611  13.717  14.928  13.298  0.0893  0.0127  0.0097
32803ION     NA48612  16.572   0.195   1.531 -0.2268  0.1566 -0.0406
32804ION     NA48613  17.181  17.064  14.786  0.0959  0.1778  0.1944
32805ION     NA48614   1.574   2.213   4.536 -0.0719  0.0913  0.0404
32806ION     NA48615   7.302  13.833   0.550 -0.1163  0.0236  0.2333
32807ION     NA48616   4.887  13.341   9.950  0.2318  0.2007  0.1672
32808ION     NA48617  13.217  11.603  13.372 -0.0729  0.0739 -0.3530
32809ION     NA48618   5.995   8.906   1.354 -0.2532 -0.0098 -0.0452
32810ION     NA48619  12.591   2.993  13.695 -0.2227  0.2699  0.0709
32811ION     NA48620  13.448  17.935   5.464  0.0512 -0.3947 -0.1042
32812ION     NA48621   4.922   7.988  12.272 -0.2847  0.1729 -0.0223
32813ION     NA48622  12.977   0.738   2.878  0.0566 -0.1334  0.2312
32814ION     NA48623  15.692   2.854   9.861 -0.3296  0.0085 -0.2701
32815ION     NA48624  12.448   8.103   0.164  0.0900  0.0073  0.0053
32816ION     NA48625   7.161  17.441  10.139  0.1397  0.1293  0.1781
32817ION     NA48626   1.367  10.972   2.728 -0.3094  0.1521  0.0592
32818ION     NA48627   5.695   0.917   9.685 -0.2595 -0.0321 -0.0996
32819ION     NA48628  14.731  18.770  10.331 -0.0900 -0.4314 -0.3060
32820ION     NA48629   3.821   3.283   3.268 -0.1454 -0.1422  0.1347
32821ION     NA48630   4.510   9.236  12.193  0.0863  0.1163  0.3284
32822ION     NA48631   9.830  14.417   5.544 -0.2033 -0.0187 -0.3267
32823ION     NA48632  17.303  12.954   9.924  0.0117 -0.3100  0.2200
32824ION     NA48633   2.049  11.511  10.190 -0.2493  0.0304 -0.2032
32825ION     NA48634   3.915  14.904   9.564 -0.1689  0.0658  0.1381
32826ION     NA48635   9.362   1.610   5.672 -0.2758 -0.0544  0.0443
32827ION     NA48636   9.709  18.643   5.040  0.0545 -0.0653  0.0314
32828ION     NA48637  17.502   1.689  11.720  0.1686  0.2301 -0.2476
32829ION     NA48638  16.632  14.295   2.143 -0.0898 -0.0478  0.0811
32830ION     NA48639  13.806  17.356   1.843 -0.1252 -0.1714  0.2549
32831ION     NA48640  12.805  11.466   5.748  0.0011 -0.2531 -0.0535
32832ION     NA48641  12.177  13.598   5.593 -0.0965  0.0908 -0.0546
32833ION     NA48642  13.760  15.809  10.295  0.1853 -0.1258  0.0205
32834ION     NA48643   8.585   1.672   4.992  0.2390  0.3619 -0.2454
32835ION     NA48644  16.683   3.571  11.166 -0.3033 -0.1616 -0.2756
32836ION     NA48645   7.828  11.594   5.703  0.1443 -0.0201  0.0422
32837ION     NA48646   1.199   0.574   5.408 -0.0632 -0.1917  0.3023
32838ION     NA48647   6.955  13.854   9.391 -0.1688  0.1257 -0.1336
32839ION     NA48648   6.827  17.844   5.406 -0.0374  0.1150 -0.2200
32840ION     NA48649  13.684   4.458   5.523 -0.0026  0.3351 -0.0030
32841ION     NA48650  11.375   7.512   9.808  0.2058 -0.0686  0.3822
32842ION     NA48651  13.248   5.908   0.346 -0.1053  0.0358  0.1117
32843ION     NA48652   3.312   0.534  14.738  0.0301  0.2496  0.0856
32844ION     NA48653  17.490   4.435  15.227  0.0635  0.0013 -0.1201
32845ION     NA48654  12.538  13.784  15.269 -0.2006  0.0367  0.2059
32846ION     NA48655  10.328   5.199   3.592  0.2675 -0.1394 -0.1874
32847ION     NA48656   2.377   5.841   5.355  0.0767  0.1113  0.0835
32848ION     NA48657  15.329  15.597  10.663 -0.1597  0.0397 -0.1825
32849ION     NA48658  16.883   2.446   1.472 -0.0349 -0.2193  0.0579
32850ION     NA48659   4.508  14.166   5.596  0.0779 -0.0613  0.3317
32851ION     NA48660  13.434  16.878   2.539  0.0956  0.1246  0.1064
32852ION     NA48661  15.905  12.034   5.104 -0.2052  0.0643 -0.0496
32853ION     NA48662  14.826   9.945   5.368 -0.0688 -0.2952  0.2412
32854ION     NA48663   4.743   9.343   1.768  0.2988  0.2628 -0.1765
32855ION     NA48664   3.443  17.255   3.440 -0.2854 -0.1310 -0.1844
32856ION     NA48665  12.228   6.880  15.123  0.1518  0.0303  0.1883
32857ION     NA48666  12.749  13.943  14.188 -0.1914  0.0079 -0.2139
32858ION     NA48667   2.335   4.598   9.509  0.1764 -0.0740  0.1796
32859ION     NA48668   5.339  16.156   9.456 -0.2704  0.0343 -0.0154
32860ION     NA48669  15.590  14.187  10.063 -0.1492  0.1805  0.0290
32861ION     NA48670   7.211  16.192  15.008  0.2273 -0.0781 -0.1950
32862ION     NA48671   5.587  18.174   4.845  0.0561 -0.2720  0.1419
32863ION     NA48672  15.933  10.462  13.960 -0.0807 -0.0703  0.2637
32864ION     NA48673   6.381  17.611   5.293  0.1569 -0.0124  0.2951
32865ION     NA48674   0.094  16.364   9.746  0.0561 -0.1781  0.0996
32866ION     NA48675  16.549  12.847   4.080  0.0854 -0.3310 -0.1391
32867ION     NA48676   0.827   7.277   9.764  0.1608  0.0403 -0.0905
32868ION     NA48677   8.148   0.135   1.411 -0.2576  0.2371 -0.1624
32869ION     NA48678  18.433   8.126   5.666 -0.0901 -0.2139 -0.0180
32870ION     NA48679   2.464  15.606   2.844  0.1080 -0.0788 -0.1098
32871ION     NA48680  10.430   3.563  10.338  0.3634 -0.4148 -0.2257
32872ION     NA48681   9.305   2.856  15.396 -0.1451  0.0228  0.0558
32873ION     NA48682   1.492   0.366   2.338 -0.2383  0.1036  0.0948
32874ION     NA48683   1.579   8.900  12.915 -0.0409  0.3407  0.3395
32875ION     NA48684   9.991  13.552   5.297  0.3230 -0.0940 -0.0622
32876ION     NA48685   0.558   4.228  15.140  0.1529 -0.2671 -0.2094
32877ION     NA48686   9.728   8.421  11.472  0.3496 -0.4773 -0.1661
32878ION     NA48687   3.605  11.043   4.103  0.1908  0.0145 -0.1150
32879ION     NA48688   0.147   2.788  12.802 -0.0646 -0.1937  0.0287
32880ION     NA48689   6.303  13.870   5.094 -0.0990 -0.3443  0.2687
32881ION     NA48690  10.771  14.960   3.159  0.0421 -0.1621  0.2248
32882ION     NA48691  18.162   5.638  12.258 -0.1731 -0.1559 -0.0537
32883ION     NA48692   8.444   9.557   4.248 -0.1173 -0.0752  0.1136
32884ION     NA48693  10.565   7.521   9.923  0.2835 -0.1443 -0.0578
32885ION     NA48694  18.198   4.629  12.599 -0.2057 -0.0859  0.1076
32886ION     NA48695  17.849   8.995   9.906 -0.1632  0.1631  0.0583
32887ION     NA48696  15.008   9.237  10.134 -0.1620  0.0722  0.1883
32888ION     NA48697   9.657  16.587  10.112 -0.1206  0.0087 -0.0236
32889ION     NA48698   9.602  10.733  10.090 -0.0458  0.0631 -0.0170
32890ION     NA48699  15.796  11.023   5.224  0.2978  0.0222 -0.0778
32891ION     NA48700  15.812  11.108  10.030  0.0776 -0.3171 -0.1002
32892ION     NA48701  14.747  11.292  11.479  0.0436 -0.3586  0.1171
32893ION     NA48702  14.541   6.950   5.580  0.3069  0.0417  0.0986
32894ION     NA48703  18.558  11.554   0.241  0.0869  0.1660  0.0424
32895ION     NA48704  11.731   9.113   0.694 -0.2313  0.0312  0.0479
32896ION     NA48705  17.145   6.569   4.107 -0.0817 -0.2741 -0.0728
32897ION     NA48706  17.957   1.657   4.441  0.0686 -0.0509  0.1456
32898ION     NA48707   3.964   9.344   9.955  0.1404 -0.0591 -0.1709
32899ION     NA48708   8.547  12.592   1.192 -0.0137 -0.1743  0.0561
32900ION     NA48709   5.508  11.703   9.513  0.0496 -0.0901 -0.2204
32901ION     NA48710   9.586  11.503  14.026 -0.1296 -0.1440 -0.1205
32902ION     NA48711  15.264   9.368   5.070  0.1969 -0.0467  0.1189
32903ION     NA48712   8.326   1.176   9.939 -0.0321 -0.2600 -0.0803
32904ION     NA48713   2.927  12.540  10.223  0.2244 -0.2066  0.0436
32905ION     NA48714  17.121   5.122   5.645  0.1174  0.1471 -0.1756
32906ION     NA48715  14.727  10.931   5.469  0.1075  0.2439  0.2184
32907ION     NA48716   1.239   1.673   0.959 -0.0452  0.1730 -0.3849
32908ION     NA48717  18.448  14.041  10.034  0.0135  0.0322 -0.0051
32909ION     NA48718  11.768   8.527  14.952 -0.0784 -0.1072  0.0950
32910ION     NA48719   4.624  16.229   0.431 -0.1075 -0.0893  0.2245
32911ION     NA48720   9.105   5.573  10.102  0.1185 -0.0599 -0.2201
32912ION     NA48721  18.109  16.631  13.170  0.2680  0.3392  0.1910
32913ION     NA48722  10.766   1.924   5.209 -0.0407  0.0322 -0.0564
32914ION     NA48723   4.579   8.102   2.956  0.2039  0.2921 -0.0432
32915ION     NA48724   1.723   6.357   9.829 -0.1028  0.1699  0.0436
32916ION     NA48725  10.467   4.880  13.818 -0.0883  0.0656  0.3046
32917ION     NA48726   1.029  11.310  14.926 -0.0454  0.0391  0.1140
32918ION     NA48727  11.306  10.345  13.945 -0.2148  0.0648 -0.2217
32919ION     NA48728   3.100  12.789   2.563  0.1042  0.0399 -0.1543
32920ION     NA48729  14.122   0.281  14.827 -0.2687 -0.4776 -0.4482
32921ION     NA48730   7.420   2.110   5.342 -0.1371  0.0860 -0.1411
32922ION     NA48731   5.896   2.884  10.137  0.0631 -0.0107  0.1149
32923ION     NA48732   0.938   3.501  13.362  0.1762  0.2168  0.0637
32924ION     NA48733  15.422   0.825   3.055  0.0983  0.2771 -0.1685
32925ION     NA48734   2.960  14.305   9.703  0.0555 -0.1335  0.0339
32926ION     NA48735   6.936  10.240  12.689  0.0987  0.0452 -0.2581
32927ION     NA48736  18.690   6.219   9.981 -0.3452 -0.0104  0.1105
32928ION     NA48737  14.016   6.008   5.363  0.2077 -0.0663  0.0459
32929ION     NA48738  14.400  18.174   6.371  0.2213  0.0160 -0.0436
32930ION     NA48739   3.885   1.968  13.590 -0.2583  0.1137 -0.1343
32931ION     NA48740  13.295   3.002  10.530  0.1312  0.0281 -0.0456
32932ION     NA48741  18.699   7.231  11.748  0.2964  0.1343 -0.1909
32933ION     NA48742  13.996   6.893  13.026 -0.2533 -0.2122  0.3529
32934ION     NA48743   2.674  10.599   9.949 -0.1154 -0.0518 -0.1084
32935ION     NA48744   8.390  16.162   4.978  0.2513 -0.0664  0.4115
32936ION     NA48745   3.409   2.892   1.499  0.2436  0.2415 -0.0232
32937ION     NA48746   7.531  10.110   3.264  0.1936 -0.2532 -0.1695
32938ION     NA48747   3.734  16.255  10.118  0.2867  0.3131 -0.0386
32939ION     NA48748  15.197  11.274   1.684 -0.2984 -0.1835 -0.0225
32940ION     NA48749   2.767   7.052  13.129 -0.1362 -0.1310  0.0196
32941ION     NA48750  13.774  13.542   5.683 -0.0146  0.3013  0.0331
32942ION     NA48751   6.817   5.980   5.643  0.0104  0.0296 -0.1570
32943ION     NA48752  11.831  16.942  15.031 -0.1359  0.1316  0.1367
32944ION     NA48753  11.789   3.795  10.036 -0.2817 -0.1020  0.5390
32945ION     NA48754   8.367  16.915   2.506 -0.2538  0.1885 -0.0674
32946ION     NA48755  10.117   2.010   1.604 -0.2675 -0.1896 -0.2054
32947ION     NA48756   6.606  10.867  12.465 -0.0511  0.1614 -0.0524
32948ION     NA48757   4.161   5.744   9.949  0.4364  0.0750 -0.0443
32949ION     NA48758  16.395   3.339   6.024 -0.0176  0.1491 -0.3047
32950ION     NA48759   5.671   7.940  10.166  0.1552  0.0918  0.2089
32951ION     NA48760  11.483   9.537   9.845 -0.0190 -0.1323 -0.2636
32952ION     NA48761  13.280  15.188   5.005  0.0314 -0.1454  0.1675
32953ION     NA48762  17.704  14.229  13.651  0.0071 -0.2606 -0.2693
32954ION     NA48763  17.914  17.397   9.928  0.2845  0.3435 -0.0089
32955ION     NA48764  14.367   4.047   3.355 -0.1136 -0.0016  0.0375
32956ION     NA48765   4.080  15.680  15.015  0.3174  0.1889 -0.0810
32957ION     NA48766   9.115   3.888  10.167 -0.3880  0.4289 -0.1901
32958ION     NA48767   1.553   1.839   2.322 -0.0831  0.0116  0.1016
32959ION     NA48768  16.128  12.177   3.506  0.1549  0.0402  0.2347
32960ION     NA48769   6.974  12.471   2.307  0.0542  0.2628 -0.1249
32961ION     NA48770   7.688   1.208   5.737  0.0839  0.1300 -0.0616
32962ION     NA48771  10.495  15.400   0.251 -0.2168  0.4412  0.1232
32963ION     NA48772   3.215   9.830   5.546 -0.0804  0.0786 -0.0727
32964ION     NA48773   0.584  13.895   3.946 -0.1297  0.3003 -0.0823
32965ION     NA48774   9.378  13.982  10.059 -0.2431  0.2398 -0.1913
32966ION     NA48775  15.686   5.431  13.677  0.2142 -0.0467 -0.0115
32967ION     NA48776  17.397   1.080   0.474 -0.2479 -0.3758  0.1229
32968ION     NA48777  17.168   6.143   3.036  0.1697  0.0556 -0.0057
32969ION     NA48778  13.156  17.351   0.121 -0.1090  0.3782 -0.0104
32970ION     NA48779  11.598   1.671  14.442  0.0009 -0.0694  0.0187
32971ION     NA48780  15.771   1.962  13.388 -0.0037 -0.1976  0.1248
32972ION     NA48781  17.233   0.967  10.111  0.2925 -0.1882  0.2041
32973ION     NA48782  18.501   4.176   9.973  0.0300 -0.3233 -0.2799
32974ION     NA48783   4.602  16.527   5.377  0.2519  0.0625 -0.0483
32975ION     NA48784  11.876   3.021   3.865 -0.2065 -0.0649  0.3838
32976ION     NA48785  13.909   2.883   4.629  0.2448  0.1993  0.0664
32977ION     NA48786  13.066   8.600   5.812  0.0344 -0.0562  0.1316
32978ION     NA48787   0.341   9.583   1.947  0.1124 -0.0614 -0.2890
32979ION     NA48788   5.424   8.403  11.388  0.1303 -0.1687  0.2849
32980ION     NA48789  18.761  16.475   5.736 -0.1412  0.1555 -0.2682
32981ION     NA48790   0.373   4.111   5.450  0.1126 -0.1374 -0.0597
32982ION     NA48791  14.424   4.741  10.290  0.1523  0.0461 -0.0113
32983ION     NA48792  12.522   6.439  11.804  0.1026 -0.1045 -0.0332
32984ION     NA48793   7.007   6.965  10.082 -0.1232  0.2378 -0.2105
32985ION     NA48794   6.296   2.579   5.816  0.2228  0.0874 -0.0787
32986ION     NA48795  13.709   9.489  10.435 -0.0361 -0.0342  0.1109
32987ION     NA48796  16.872  12.084  13.799 -0.0302 -0.0321 -0.2148
32988ION     NA48797   0.820   2.802   9.722 -0.0115  0.3716  0.2486
32989ION     NA48798   2.148   5.260   4.425  0.0274  0.1282  0.1987
32990ION     NA48799   9.455  14.777  15.152 -0.1153  0.3020 -0.2947
32991ION     NA48800  15.334  14.480   6.074 -0.0176 -0.3017 -0.2651
32992ION     NA48801  15.339  17.796   6.267 -0.0743 -0.0434  0.0567
32993ION     NA48802   2.164  12.999  13.503  0.0819 -0.2590 -0.1673
32994ION     NA48803  14.129   9.609   5.868 -0.2850 -0.4015 -0.0988
32995ION     NA48804   5.854  13.461   0.746  0.0076  0.0686  0.1420
32996ION     NA48805  11.146  12.638   5.262  0.4081  0.1727  0.3951
32997ION     NA48806  11.545   5.151   2.788  0.2644  0.4707 -0.0300
32998ION     NA48807   0.664  11.745  12.731  0.0328  0.0137 -0.2586
32999ION     NA48808  12.950  18.050  10.684 -0.2224  0.2487 -0.0057
33000ION     NA48809   3.427  14.704   1.587  0.0549 -0.0285 -0.3405
33001ION     NA48810  16.296  12.868  11.669  0.0620 -0.0744 -0.0903
33002ION     NA48811  17.757   8.001  11.570 -0.2613  0.1007  0.0854
33003ION     NA48812   7.374   2.410  10.160  0.0368 -0.0138 -0.1072
33004ION     NA48813  18.521  15.862   2.396  0.2604 -0.2075  0.0887
33005ION     NA48814  11.562  10.680   2.965 -0.0658  0.6028  0.1786
33006ION     NA48815   3.465  11.627  15.237  0.0901 -0.0042  0.1877
33007ION     NA48816  14.303   7.517   5.677  0.3267  0.1711 -0.2121
33008ION     NA48817   1.421  17.463   9.908  0.2840 -0.0151 -0.0324
33009ION     NA48818   6.967   3.435   3.489 -0.4612  0.0606 -0.1749
33010ION     NA48819   2.945  18.664   5.156  0.0717 -0.0168 -0.0903
33011ION     NA48820  13.719   7.834   6.039 -0.1478  0.0968 -0.1929
33012ION     NA48821  15.833   4.345  10.425  0.1669 -0.3527  0.1466
33013ION     NA48822   3.411   1.024   4.578  0.1197 -0.2057 -0.1510
33014ION     NA48823   2.556  15.108   9.707 -0.3296  0.1462  0.2121
33015ION     NA48824  11.797   5.755   9.890 -0.1564 -0.1454  0.1953
33016ION     NA48825  17.308   0.713   4.266  0.4246  0.0548 -0.4390
33017ION     NA48826  11.252   1.143  12.108  0.0787  0.0356  0.0646
33018ION     NA48827   6.996   9.895   9.719 -0.0012 -0.1809 -0.0518
33019ION     NA48828  10.856  17.020  10.369  0.0407 -0.0711 -0.3116
33020ION     NA48829   3.100  14.244  15.459  0.2045 -0.1396  0.1575
33021ION     NA48830  18.723  17.074   0.415 -0.1096  0.1503  0.0243
33022ION     NA48831   3.536  12.482   5.377  0.0492  0.2615 -0.0331
33023ION     NA48832  13.390  10.047   1.294 -0.0061 -0.3291 -0.0498
33024ION     NA48833  17.513  11.941  12.180  0.0031 -0.0942 -0.3206
33025ION     NA48834   1.418  13.769   9.854 -0.1662  0.1862  0.1734
33026ION     NA48835   1.982   0.621  10.832  0.1863  0.0652 -0.0703
33027ION     NA48836  12.302   7.552  11.667  0.2710 -0.2255  0.0735
33028ION     NA48837   7.998   9.226   0.520  0.0748 -0.1701 -0.3657
33029ION     NA48838   7.808   8.926   1.044  0.2755  0.1018  0.0455
33030ION     NA48839  14.994  16.841  12.557  0.0141  0.2149  0.3134
33031ION     NA48840   7.291  11.690  10.500 -0.1242  0.0951  0.2509
33032ION     NA48841   0.811   8.816   5.027 -0.1438 -0.0467 -0.0860
33033ION     NA48842  10.642   8.555   1.768 -0.1431 -0.0495 -0.1818
33034ION     NA48843   5.179   7.766   1.000 -0.2750 -0.3325  0.1805
33035ION     NA48844  15.067   0.649   5.903 -0.0165 -0.0745  0.0264
33036ION     NA48845   2.058   2.904  13.051 -0.0610 -0.3682 -0.0058
33037ION     NA48846   2.322  18.697  13.106 -0.0386  0.0097  0.0816
33038ION     NA48847  14.494  15.564  10.387 -0.3395  0.0922  0.0653
33039ION     NA48848  17.698  10.464  10.101 -0.0873 -0.0819  0.2582
33040ION     NA48849  13.520  15.728   6.093 -0.1832 -0.3212 -0.1791
33041ION     NA48850   9.816   7.032  14.792  0.2494 -0.0540 -0.0446
33042ION     NA48851   2.931   4.485   5.547  0.0151 -0.1245  0.0726
33043ION     NA48852  15.055  10.457   4.155  0.0476 -0.1319 -0.2671
33044ION     NA48853   1.729  12.294   0.621 -0.1999  0.1410  0.0689
33045ION     NA48854   3.256   1.030  11.835  0.1587  0.1239  0.0248
33046ION     NA48855  11.416  15.431  10.308 -0.2404 -0.0670  0.1943
33047ION     NA48856   5.483  10.744   5.190 -0.3402 -0.3744 -0.2011
33048ION     NA48857  10.655  18.385   0.180  0.4327  0.0472 -0.0837
33049ION     NA48858   4.371   1.817   9.747 -0.0537  0.0201 -0.0805
33050ION     NA48859  16.468   4.436  11.844 -0.3319 -0.0872  0.2738
33051ION     NA48860   4.434  11.622  14.134 -0.4439 -0.3612 -0.1096
33052ION     NA48861   2.761   5.480   5.337  0.1496  0.1045 -0.1065
33053ION     NA48862   1.769  10.510   9.894 -0.3684  0.1041  0.0540
33054ION     NA48863  16.560   1.820  10.170  0.1679  0.1609  0.0556
33055ION     NA48864   4.988  14.959  10.399 -0.1607  0.1714 -0.1163
33056ION     NA48865  11.143   9.953   9.621 -0.0469  0.0655 -0.1939
33057ION     NA48866   7.389   5.951   2.794 -0.0616 -0.1924 -0.0686
33058ION     NA48867   8.234  17.879   5.751  0.0913 -0.1897  0.1247
33059ION     NA48868   9.730   6.018   2.765  0.1111 -0.1715  0.3469
33060ION     NA48869  11.278  14.585   5.697 -0.0515 -0.1479  0.1245
33061ION     NA48870  17.481   2.421   4.913  0.2689 -0.4428 -0.0451
33062ION     NA48871  17.219   3.538  13.626  0.3114  0.0645  0.2602
33063ION     NA48872  17.854  18.189   5.728  0.0539  0.2366  0.1703
33064ION     NA48873   9.051  17.244  14.350  0.0427 -0.2529  0.0853
33065ION     NA48874  11.690   8.216   1.664  0.1795 -0.1275 -0.1434
33066ION     NA48875   5.786   6.971   1.323 -0.0501  0.3404  0.1444
33067ION     NA48876   9.987   7.757   5.641  0.3530 -0.0631  0.3290
33068ION     NA48877  17.027  15.980   5.080  0.2213  0.1706 -0.1417
33069ION     NA48878   8.181  13.077   5.203 -0.0907 -0.0637  0.4495
33070ION     NA48879   9.545  16.666  12.372  0.1199 -0.3427 -0.2821
33071ION     NA48880   0.972  12.624   4.020  0.0425  0.3156  0.1541
33072ION     NA48881   5.542   9.956   4.177 -0.2016 -0.3022 -0.2806
33073ION     NA48882   5.527  16.766   0.045 -0.0043 -0.2082  0.1264
33074ION     NA48883   6.164  12.770   1.981 -0.3879  0.0677 -0.2791
33075ION     NA48884  17.792   9.728  10.603 -0.2997 -0.2358 -0.1745
33076ION     NA48885   7.555   5.118   2.468  0.2015 -0.0119  0.1866
33077ION     NA48886  16.978   8.969  11.442 -0.1962 -0.2194  0.1480
33078ION     NA48887  18.496  15.826   0.291  0.0183  0.0927 -0.0693
33079ION     NA48888  17.447   4.441  10.086 -0.2485  0.3636 -0.1057
33080ION     NA48889   5.493  13.828   5.419 -0.0752 -0.1941  0.0534
33081ION     NA48890  10.681   6.174   5.489  0.1571  0.3499 -0.2003
33082ION     NA48891  10.536  11.603  14.412  0.1932  0.1619 -0.1833
33083ION     NA48892   7.021  14.608   4.882 -0.0173  0.0489  0.2257
33084ION     NA48893  14.128  10.270  14.114  0.1437  0.0138  0.1916
33085ION     NA48894  10.982   1.900   3.886  0.0915 -0.0168  0.0890
33086ION     NA48895  10.189   8.240   5.775 -0.2282 -0.2376 -0.2862
33087ION     NA48896  13.155   3.961   2.790  0.2614 -0.0053 -0.2239
33088ION     NA48897  15.414   2.350   5.800  0.1583  0.1721 -0.2330
33089ION     NA48898   0.597  11.748   5.361  0.2155  0.0069 -0.3674
33090ION     NA48899   9.696  17.572   3.899  0.0503  0.0976 -0.1231
33091ION     NA48900  17.601  14.524  10.015 -0.0542  0.2741  0.0055
33092ION     NA48901  15.600  15.170  14.661  0.1483  0.1324  0.2259
33093ION     NA48902   9.475   3.490   5.796  0.0040 -0.3549 -0.3488
33094ION     NA48903  13.910  14.696   2.101  0.1826  0.1125  0.1681
33095ION     NA48904  17.373  15.582   2.173 -0.2363 -0.2675 -0.0895
33096ION     NA48905   8.392  17.140  10.210 -0.0726  0.0519 -0.3088
33097ION     NA48906  14.609   5.129   1.310 -0.0439 -0.0364 -0.0816
33098ION     NA48907  10.114  10.526   5.851 -0.0607 -0.0421  0.0191
33099ION     NA48908  12.880  13.813  11.902 -0.0077 -0.3357 -0.1463
33100ION     NA48909   6.759   8.558   5.785  0.1893  0.0190 -0.2125
33101ION     NA48910  15.652   1.262  10.430  0.0428 -0.1158 -0.3493
33102ION     NA48911  17.478  11.478   9.939 -0.2757 -0.3687  0.1537
33103ION     NA48912  10.099   1.290  10.353 -0.2025 -0.0062  0.1612
33104ION     NA48913   9.851   1.493   3.098  0.0764 -0.1034 -0.1469
33105ION     NA48914  17.594  17.054  10.308 -0.0854  0.0035 -0.0219
33106ION     NA48915  17.056  14.065   3.466 -0.2741 -0.0365  0.2134
33107ION     NA48916  17.609   2.392   2.667 -0.3414  0.2747 -0.5131
33108ION     NA48917  12.909   5.665   9.872 -0.1025 -0.0542 -0.0485
33109ION     NA48918  12.185  18.643  12.730 -0.0752  0.0415  0.1529
33110ION     NA48919   0.790  14.914   1.819 -0.2169  0.5143 -0.0551
33111ION     NA48920  10.735   2.388   5.973  0.0576 -0.0336 -0.1274
33112ION     NA48921  15.887   5.437   5.523 -0.2245 -0.1465 -0.2471
33113ION     NA48922   5.483   5.200  10.108 -0.1526  0.0075  0.1949
33114ION     NA48923   5.336  13.574   9.742 -0.1479 -0.0174 -0.0882
33115ION     NA48924  18.680   7.481   5.505  0.1485  0.0676 -0.0981
33116ION     NA48925   3.053  16.834   5.529  0.1197  0.0993 -0.0151
33117ION     NA48926  11.062  15.940   3.637 -0.0876 -0.1888  0.1231
33118ION     NA48927  16.478   4.895  10.031  0.3599 -0.0633 -0.0842
33119ION     NA48928   3.662  10.801   9.844  0.1822 -0.1284 -0.0398
33120ION     NA48929  10.854   0.279   0.277  0.0885  0.2398 -0.0461
33121ION     NA48930   6.699   8.378   3.163  0.1860  0.2908  0.0797
33122ION     NA48931   6.291   4.930   5.337  0.3935  0.0020 -0.1556
33123ION     NA48932   0.896  15.561   3.225 -0.3362  0.0363 -0.0740
33124ION     NA48933   2.760   4.359   0.548 -0.2601 -0.0483 -0.1364
33125ION     NA48934  16.096  17.745   4.014 -0.0702  0.0038  0.0458
33126ION     NA48935  18.397   6.376   5.525  0.0521  0.1309  0.0074
33127ION     NA48936   6.374  10.908   5.475 -0.2738  0.0039  0.0940
33128ION     NA48937   7.046   2.765   1.884  0.2350  0.1138 -0.0679
33129ION     NA48938   4.673  15.063   9.472 -0.1549 -0.1291 -0.0880
33130ION     NA48939  14.469   9.753  15.485  0.0133  0.2832 -0.0427
33131ION     NA48940   6.742  12.786   9.719 -0.0259 -0.2314 -0.4625
33132ION     NA48941  11.158  13.606  14.912 -0.1438 -0.1938  0.3724
33133ION     NA48942   2.336  10.301  12.983 -0.1704 -0.0291 -0.1883
33134ION     NA48943   0.598  13.355   4.822 -0.1845  0.1399  0.0169
33135ION     NA48944   5.372  14.928   1.128  0.1595  0.2708 -0.2958
33136ION     NA48945   4.694  13.729  13.424 -0.0754 -0.1740  0.1301
33137ION     NA48946  15.227   9.415  11.654 -0.3245  0.0698 -0.2774
33138ION     NA48947   2.909  13.443   9.701 -0.3696 -0.0115  0.0601
33139ION     NA48948   7.879   3.035   5.974  0.1576  0.1167 -0.1855
33140ION     NA48949  11.941   1.048  13.379  0.0338 -0.2761 -0.0491
33141ION     NA48950   7.800   9.627  10.137 -0.0193 -0.2261  0.0542
33142ION     NA48951   7.937  18.150  15.020 -0.1122 -0.0935  0.0481
33143ION     NA48952  12.399   9.024   2.455 -0.1065 -0.2608  0.1012
33144ION     NA48953  13.551  18.007   2.440 -0.0053 -0.2086  0.0638
33145ION     NA48954  16.216  12.672   9.918  0.2367 -0.0845  0.2423
33146ION     NA48955  18.508   5.173   0.881  0.0052 -0.0988 -0.1276
33147ION     NA48956   3.073   6.559  14.487 -0.0352  0.2561 -0.0419
33148ION     NA48957   5.965   7.002   3.737 -0.2755  0.1176 -0.0851
33149ION     NA48958   1.282   4.551   5.395  0.1030 -0.1184  0.0721
33150ION     NA48959  17.972   5.161  10.243 -0.0949 -0.0790 -0.2588
33151ION     NA48960   4.703  11.311   5.106  0.2528 -0.0203 -0.2287
33152ION     NA48961   9.216   9.390  10.208 -0.1196 -0.1734 -0.2315
33153ION     NA48962  16.281  14.934   0.794  0.2670 -0.0374 -0.0415
33154ION     NA48963  10.023   7.453   0.555 -0.0058  0.0098 -0.0181
33155ION     NA48964   9.822   9.175   5.761 -0.2040  0.1219  0.0141
33156ION     NA48965  16.846  14.142  11.834 -0.2306  0.1632  0.2718
33157ION     NA48966   0.486  12.473  13.714  0.2089 -0.0763 -0.1839
33158ION     NA48967   1.806  16.917   3.376 -0.3032 -0.0264 -0.3100
33159ION     NA48968  16.905  16.162  10.072  0.1264  0.0039  0.1294
33160ION     NA48969   5.623  12.735   9.586 -0.1142 -0.1181 -0.1328
33161ION     NA48970  15.631  13.027   3.733  0.2388 -0.3881  0.0484
33162ION     NA48971  17.424   0.205  10.144  0.0999 -0.2927  0.1083
33163ION     NA48972   5.612   2.189   9.791 -0.0609  0.0413 -0.3095
33164ION     NA48973   5.001   7.586  14.523 -0.1942  0.1360 -0.1934
33165ION     NA48974  13.092  13.363  10.007  0.0059  0.1344  0.2428
33166ION     NA48975   0.681  10.439   2.976 -0.0627 -0.0263  0.3957
33167ION     NA48976  15.893  15.162  10.214  0.4443  0.1151 -0.1914
33168ION     NA48977   4.209   5.532   5.612 -0.0989 -0.1762 -0.0610
33169ION     NA48978  15.096   2.125  13.944  0.1606 -0.2313 -0.1024
33170ION     NA48979  14.223   0.599   2.584 -0.3407 -0.0735  0.2999
33171ION     NA48980   9.452   5.075  11.754 -0.2833  0.0811 -0.1282
33172ION     NA48981   1.252  11.123   5.101 -0.0447  0.3191  0.1347
33173ION     NA48982   3.459  17.668   9.628 -0.2077 -0.3000  0.2740
33174ION     NA48983   7.264  12.002  15.058 -0.3096 -0.0557  0.3495
33175ION     NA48984   8.085   7.723   1.791  0.1513 -0.1471 -0.1048
33176ION     NA48985   7.627   3.253  14.364  0.1731  0.3846 -0.0740
33177ION     NA48986  14.371   6.670   2.617 -0.1654  0.0704  0.0777
33178ION     NA48987  16.600  14.407   0.475 -0.1780 -0.0929  0.0415
33179ION     NA48988  11.104   7.749   5.751  0.1070 -0.0344 -0.2685
33180ION     NA48989   1.590  15.373   9.660  0.0440 -0.0325  0.0322
33181ION     NA48990  10.781  14.067   0.564 -0.4041 -0.1823 -0.0187
33182ION     NA48991  15.853   9.865   9.694  0.2471 -0.0230 -0.1961
33183ION     NA48992   1.821   8.956   2.756  0.1943 -0.1478 -0.1418
33184ION     NA48993   8.539  14.543  13.330  0.1420  0.2676 -0.1906
33185ION     NA48994   5.362   4.161   5.594  0.2450  0.1226 -0.0615
33186ION     NA48995   4.092   0.292   9.578  0.0199  0.1572  0.2610
33187ION     NA48996  14.299  15.538   3.115  0.1144  0.0964 -0.0453
33188ION     NA48997  12.170   1.217  10.199  0.0180 -0.1399  0.1111
33189ION     NA48998  13.297  10.577   5.675 -0.2348 -0.2509  0.1535
33190ION     NA48999  17.638  12.640   4.304  0.0224  0.3466 -0.0921
33191ION     NA49000   8.266   3.786   6.146 -0.1641  0.1156  0.0578
33192ION     NA49001  11.196   5.466  14.720  0.2452 -0.2911 -0.1810
33193ION     NA49002   6.084   4.049   1.473 -0.2195  0.1935 -0.0239
33194ION     NA49003   4.526  12.555   5.700 -0.0569  0.2895  0.1294
33195ION     NA49004   4.124  10.701  14.625 -0.0449  0.3020 -0.1682
33196ION     NA49005  17.657   9.547   5.393 -0.0750  0.1343 -0.2788
33197ION     NA49006   2.306   1.829   9.529  0.0436 -0.0813 -0.0011
33198ION     NA49007  15.892   1.117   5.972  0.0695  0.1133 -0.0339
33199ION     NA49008   1.792  16.460   5.286 -0.1216  0.1148  0.0670
33200ION     NA49009   7.015   2.180   0.341 -0.2263 -0.0282 -0.2433
33201ION     NA49010   8.210  16.410   9.882 -0.2354 -0.0920  0.0058
33202ION     NA49011  13.299   5.855  14.214  0.1352 -0.0908 -0.2311
33203ION     NA49012  17.216   5.650   2.154  0.1885  0.2191  0.3407
33204ION     NA49013   7.652   7.121   4.689  0.0920 -0.3144  0.0853
33205ION     NA49014   2.496  13.912   4.609  0.4245 -0.0207 -0.2824
33206ION     NA49015  11.546   3.770   5.475 -0.0076 -0.2388  0.0730
33207ION     NA49016   4.962   5.787   6.146  0.2526  0.1368 -0.2082
33208ION     NA49017  15.562   4.665   5.485  0.1497 -0.0203  0.1784
33209ION     NA49018   5.871  18.218  15.122  0.0500 -0.2550 -0.0922
33210ION     NA49019  18.760   8.762  12.994 -0.0872 -0.0654  0.1856
33211ION     NA49020  18.139   2.735   2.339 -0.1655 -0.1342 -0.2874
33212ION     NA49021   2.455   3.774  10.006  0.4814 -0.0407  0.4196
33213ION     NA49022  17.185  13.042   0.858  0.1107 -0.4851 -0.0758
33214ION     NA49023   9.967   3.483  15.501 -0.2474 -0.0894  0.0754
33215ION     NA49024   6.631   4.452   2.729  0.0008 -0.0307 -0.3394
33216ION     NA49025   3.338   6.956   0.778  0.1826  0.0507 -0.1888
33217ION     NA49026   9.540  11.606   0.874 -0.0387 -0.2762 -0.0642
33218ION     NA49027  12.448   9.650   9.814  0.0385 -0.1079 -0.3026
33219ION     NA49028   7.884  17.971   9.989 -0.0504  0.2157 -0.0424
33220ION     NA49029   3.106  17.205   0.530  0.0290  0.2346  0.0919
33221ION     NA49030   5.662  15.135   9.573 -0.0339  0.1879 -0.0938
33222ION     NA49031   1.203   2.004   9.634 -0.1847  0.5104  0.4122
33223ION     NA49032   5.665   6.442  10.222 -0.0875 -0.2794  0.0021
33224ION     NA49033  13.298   7.545  15.520 -0.1361  0.1383  0.1501
33225ION     NA49034  17.778   2.249  14.675 -0.1369 -0.1815 -0.0401
33226ION     NA49035   1.778  16.588   9.982 -0.2614 -0.4890  0.1010
33227ION     NA49036  14.685   5.656   4.251 -0.1408  0.1697  0.0572
33228ION     NA49037   1.347   6.292   4.949 -0.1530  0.2054  0.1643
33229ION     NA49038   7.373  13.751   3.295 -0.1106 -0.2709 -0.0787
33230ION     NA49039   4.559  10.661  10.075  0.2633  0.1395 -0.2364
33231ION     NA49040   8.647  11.812   5.780 -0.2439  0.1883  0.1855
33232ION     NA49041   3.447  10.803   2.320  0.2650  0.1651  0.0439
33233ION     NA49042  13.543   9.047  14.458  0.1475  0.0319 -0.1108
33234ION     NA49043  15.933   6.485  12.271  0.0839  0.0125 -0.2345
33235ION     NA49044  16.489  17.614  15.387 -0.1121  0.1219  0.1217
33236ION     NA49045  12.650   5.833   5.709 -0.1617 -0.0706  0.1128
33237ION     NA49046   6.998   1.526   2.405 -0.0616 -0.2602  0.1230
33238ION     NA49047   1.124  14.699  15.452 -0.0964 -0.2898  0.1559
33239ION     NA49048  16.916   6.333  10.230  0.0181 -0.1044 -0.1886
33240ION     NA49049  18.113  15.870   5.932 -0.2100 -0.1774  0.3214
33241ION     NA49050  14.062  16.677  14.427 -0.0042 -0.0685  0.2703
33242ION     NA49051  16.897  17.117   5.724 -0.1470 -0.2272  0.1833
33243ION     NA49052  15.600  14.672   4.546  0.1743  0.1477  0.3522
33244ION     NA49053   7.387   1.506   1.522  0.2253 -0.1897  0.1084
33245ION     NA49054   1.908  18.503   9.764 -0.0757 -0.0919 -0.0110
33246ION     NA49055  18.537  17.207   1.338 -0.0177 -0.2772  0.1273
33247ION     NA49056   1.417   1.319  10.492  0.1447  0.1856  0.0889
33248ION     NA49057  18.765  17.900   9.804 -0.1454  0.0055 -0.0091
33249ION     NA49058   4.262  17.564   9.607  0.1165  0.2083 -0.2036
33250ION     NA49059   9.578  12.673   9.772  0.3165 -0.1523  0.0337
33251ION     NA49060   3.730  10.531   0.588  0.0903  0.1144  0.0619
33252ION     NA49061  11.043   2.314  13.957 -0.1932 -0.2910  0.0968
33253ION     NA49062   4.189   7.362  12.024  0.0461 -0.1662 -0.0995
33254ION     NA49063   1.588  10.475   2.602  0.0923  0.0548  0.0612
33255ION     NA49064  13.208  13.588   1.334  0.0261  0.0875 -0.5081
33256ION     NA49065  14.017  15.100  14.872  0.2004  0.0351 -0.0418
33257ION     NA49066  17.252  10.679   0.528  0.0444 -0.2007  0.1146
33258ION     NA49067  18.152   8.887   2.844  0.0099 -0.0467 -0.1914
33259ION     NA49068   0.388  14.161   5.236 -0.3736  0.2442  0.0246
33260ION     NA49069  18.548   8.350   9.603 -0.0767  0.0209  0.1033
33261ION     NA49070  16.769   9.056   9.864 -0.1620  0.1499  0.1615
33262ION     NA49071  15.555  18.448   4.056 -0.1507 -0.1370  0.2270
33263ION     NA49072   9.816   4.479  14.918  0.1736 -0.0136 -0.1806
33264ION     NA49073   6.316   1.483  14.428 -0.4230 -0.0301  0.0003
33265ION     NA49074  12.210  13.534   9.644 -0.1542 -0.0542  0.3217
33266ION     NA49075  15.547  11.757  12.991  0.0239 -0.1801  0.1966
33267ION     NA49076  14.445   9.750  12.672  0.1780 -0.0949 -0.3421
33268ION     NA49077   8.972  13.486   5.350  0.0513 -0.0209 -0.2099
33269ION     NA49078  16.706   9.287   4.062 -0.2615  0.1378 -0.0211
33270ION     NA49079   8.513   3.020  10.058  0.0716  0.0899 -0.0487
33271ION     NA49080  18.254   1.876   9.953 -0.0123  0.0994  0.0543
33272ION     NA49081   1.137  11.528   5.424 -0.0442  0.1021  0.2266
33273ION     NA49082  14.184  13.362  14.330  0.3607 -0.0471  0.0235
33274ION     NA49083   1.392  16.455  12.766  0.0005  0.1433  0.1599
33275ION     NA49084   2.989   7.721  10.180  0.2516 -0.2965 -0.1649
33276ION     NA49085  10.379   9.898   1.938  0.1355 -0.1629 -0.1113
33277ION     NA49086  18.022  10.536  14.593  0.1902  0.2224  0.1226
33278ION     NA49087  11.922  14.007   5.278 -0.1795  0.3867 -0.0145
33279ION     NA49088  12.686  15.707   1.171  0.1538  0.0077 -0.1873
33280ION     NA49089  17.461   2.271  10.108 -0.1162  0.0435  0.3092
33281ION     NA49090  11.765  12.475   4.352 -0.1646  0.2252 -0.2175
33282ION     NA49091   1.906   0.521  12.112 -0.0644 -0.1478 -0.0268
33283ION     NA49092   5.562   1.242  13.233  0.1359 -0.1223 -0.0757
33284ION     NA49093   4.614   1.043   9.604 -0.1128 -0.2357  0.0033
33285ION     NA49094   0.354  11.909   9.601  0.0136 -0.4261 -0.1453
33286ION     NA49095  10.863   4.447  10.190  0.2702 -0.1901  0.1424
33287ION     NA49096  14.943   6.511   9.988  0.0891 -0.0262  0.3326
33288ION     NA49097   6.423   0.636   5.402 -0.1257  0.1193 -0.0670
33289ION     NA49098   9.000  14.202  14.078  0.1768 -0.0701 -0.0206
33290ION     NA49099  10.839  13.804   9.858  0.0060  0.0890  0.1819
33291ION     NA49100   6.558  17.770  14.517 -0.2817  0.1277 -0.0765
33292ION     NA49101   0.564   9.411   9.938 -0.1012  0.1779 -0.0246
33293ION     NA49102  17.419  15.406   9.920  0.2720  0.1561 -0.3132
33294ION     NA49103   9.411   5.840   4.343 -0.0208  0.1177 -0.0663
33295ION     NA49104   7.677  14.267   5.019  0.0164  0.2947 -0.3555
33296ION     NA49105   1.669  17.417  14.519  0.2647 -0.0689  0.0980
33297ION     NA49106   0.962  18.210   9.828 -0.0484  0.2817  0.0972
33298ION     NA49107  16.383  15.840   5.906  0.0066  0.4613 -0.2175
33299ION     NA49108   7.225   7.045   3.251 -0.2018 -0.3562 -0.1931
33300ION     NA49109  13.362   4.035   3.879 -0.0075  0.2295  0.0229
33301ION     NA49110   6.877   3.099  10.176 -0.0468 -0.4635 -0.1938
33302ION     NA49111   7.264  10.545   9.811  0.2169 -0.0759 -0.1212
33303ION     NA49112  16.659   4.008   9.918  0.0751 -0.1905 -0.2147
33304ION     NA49113  14.607   6.161   1.010  0.0648  0.1628 -0.0974
33305ION     NA49114   1.891   6.468  12.200  0.0138 -0.1303  0.1913
33306ION     NA49115  16.523   0.257  10.394  0.1146 -0.0613  0.1474
33307ION     NA49116   8.840   7.752  10.235  0.2711  0.1619  0.0802
33308ION     NA49117   6.529   7.515  10.772  0.1830  0.0071 -0.0881
33309ION     NA49118  15.001   5.677   5.518  0.1109  0.0118  0.1732
33310ION     NA49119   2.292  12.911   3.310  0.2206  0.1230 -0.1913
33311ION     NA49120  17.498   9.513  15.421 -0.2040  0.0260  0.2611
33312ION     NA49121  18.046  11.253   0.853  0.2289 -0.1055 -0.0073
33313ION     NA49122   0.737   5.542   3.017  0.1295  0.2737  0.1412
33314ION     NA49123  14.081  14.895  10.172 -0.0400  0.2211  0.1953
33315ION     NA49124   0.168  18.001  13.726 -0.0603 -0.3349  0.0717
33316ION     NA49125   6.343  14.550   9.545  0.1072  0.2078  0.2817
33317ION     NA49126  14.152   1.491   6.356  0.3645  0.2711 -0.1662
33318ION     NA49127   3.469  18.074   0.463  0.0646 -0.0847  0.2355
33319ION     NA49128  15.526   3.571   5.827 -0.1871 -0.0299 -0.1919
33320ION     NA49129  10.130  18.633   5.795  0.2236 -0.0935 -0.0784
33321ION     NA49130  12.250  10.826  13.902  0.4674  0.1714  0.2126
33322ION     NA49131   2.765  18.168   9.608  0.0594  0.0655  0.2176
33323ION     NA49132   1.388   7.684   3.788  0.1954  0.1077  0.0939
33324ION     NA49133  11.350   0.499  10.108  0.2010 -0.1194  0.3014
33325ION     NA49134   8.097  16.574   0.790 -0.0685 -0.0539 -0.1021
33326ION     NA49135  17.492  13.443   0.591 -0.1857 -0.2363 -0.0406
33327ION     NA49136  16.542   3.899  15.512 -0.0645  0.2758 -0.0590
33328ION     NA49137   2.258  16.705   5.132  0.1682 -0.1140  0.1073
33329ION     NA49138  11.571  11.477  11.070  0.2399 -0.1795 -0.0188
33330ION     NA49139   5.130  11.858  15.560 -0.1193  0.2655 -0.0559
33331ION     NA49140   1.448   7.806  10.309 -0.3710  0.2240 -0.1042
33332ION     NA49141  12.444  18.416   3.276  0.0188 -0.1094  0.1366
33333ION     NA49142  10.999   6.881   5.238  0.2687 -0.0353 -0.0245
33334ION     NA49143  12.842  13.808   9.994  0.2284  0.0211  0.1264
33335ION     NA49144   6.340  15.706   5.119 -0.4630 -0.1330 -0.1341
33336ION     NA49145  14.281   7.662  13.436  0.0834  0.1721 -0.0575
33337ION     NA49146   0.455   3.508   1.951  0.0782 -0.1957  0.0743
33338ION     NA49147  16.665  15.066  10.256 -0.1344  0.5098 -0.3515
33339ION     NA49148  16.374  15.539  13.839  0.0027  0.3510  0.0655
33340ION     NA49149  18.337  11.059   5.585  0.1689  0.0380 -0.0898
33341ION     NA49150  16.241   6.784   4.933  0.2498  0.1466 -0.3340
33342ION     NA49151   4.043   8.365   4.564  0.0519 -0.1271 -0.0098
33343ION     NA49152  12.805  11.549   0.047 -0.0873 -0.1930 -0.1894
33344ION     NA49153  12.156   7.690   5.680  0.0935  0.0301  0.1026
33345ION     NA49154   8.223  11.341   9.766  0.4238  0.0990 -0.1509
33346ION     NA49155   3.915   8.265  10.058  0.0270 -0.1804  0.1057
33347ION     NA49156   5.487   2.711   5.612  0.3206  0.1164  0.0419
33348ION     NA49157  12.891  17.152  10.578 -0.0937  0.1124 -0.0750
33349ION     NA49158   9.123   4.572  10.178 -0.0417 -0.0914 -0.0441
33350ION     NA49159   6.567   0.402   9.762  0.0974  0.1597  0.0197
33351ION     NA49160   1.232   1.024   9.678 -0.1240  0.0528 -0.2242
33352ION     NA49161  11.942   1.614   3.737 -0.2682  0.0904 -0.0954
33353ION     NA49162  11.571  14.357   0.663 -0.1047 -0.1599 -0.5085
33354ION     NA49163  16.551  18.735  13.673 -0.0834 -0.1321  0.4496
33355ION     NA49164   4.101   4.748   9.726  0.0881 -0.0668  0.0142
33356ION     NA49165   9.944   8.752  13.344 -0.2072  0.2547 -0.0252
33357ION     NA49166   8.121   2.864   0.648 -0.0069  0.0063 -0.0070
33358ION     NA49167  14.380  12.194   9.861 -0.0918 -0.0989 -0.1316
33359ION     NA49168   7.048   9.985  14.440 -0.0229 -0.0068  0.2365
33360ION     NA49169   8.929  17.426   5.061  0.1840 -0.1034 -0.1034
33361ION     NA49170  17.860   8.544   5.555 -0.4593 -0.0075  0.0491
33362ION     NA49171  16.022   8.371  10.036 -0.1961 -0.0830  0.1760
33363ION     NA49172  10.392  15.373  15.342 -0.1206 -0.1422  0.0035
33364ION     NA49173  18.769  10.402  11.840 -0.0966  0.1152  0.1444
33365ION     NA49174  15.348  15.931   3.282  0.1960  0.1222 -0.1280
33366ION     NA49175   0.154  10.207  13.631 -0.1196  0.1159 -0.2544
33367ION     NA49176  13.361   8.304   5.372 -0.1005 -0.3680  0.1902
33368ION     NA49177   6.620   9.316   5.756  0.2915 -0.1245 -0.1661
33369ION     NA49178  14.331  15.992   4.287  0.2136  0.1550 -0.2311
33370ION     NA49179  13.628  17.518  14.898  0.2407  0.1087  0.0590
33371ION     NA49180   0.438   7.973   5.123  0.0949  0.0594  0.2938
33372ION     NA49181  17.810   1.218   5.552 -0.1824 -0.0641 -0.1755
33373ION     NA49182   0.078   4.935   2.318  0.2912  0.2075  0.1096
33374ION     NA49183  16.270   3.884   1.036  0.0610  0.0946 -0.2867
33375ION     NA49184   8.397   0.668  15.313  0.2719 -0.1851 -0.1417
33376ION     NA49185  10.057   4.549  10.183  0.2116 -0.1399 -0.0634
33377ION     NA49186   5.106   8.819  10.090 -0.2100 -0.1432  0.3705
33378ION     NA49187   7.876   8.960  14.405 -0.1080  0.3080  0.3617
33379ION     NA49188  14.771  12.959   9.852 -0.1180  0.1648 -0.0487
33380ION     NA49189   3.177   0.288   9.666 -0.1753 -0.0651  0.1051
33381ION     NA49190  16.522   6.974  14.076 -0.0247 -0.0238 -0.1490
33382ION     NA49191   7.947   6.540  10.609 -0.1522  0.1408  0.1725
33383ION     NA49192  12.197  10.410   0.506  0.1099  0.2641  0.1853
33384ION     NA49193   2.049   7.980   1.008 -0.1574 -0.1279 -0.0643
33385ION     NA49194  15.010  14.791  10.314  0.0358 -0.0877 -0.0339
33386ION     NA49195   5.527  11.856   5.381  0.1020  0.0802  0.1089
33387ION     NA49196   6.346  14.352  12.043 -0.1217  0.0772 -0.1593
33388ION     NA49197   9.171   1.277  10.210  0.3017 -0.1158  0.4163
33389ION     NA49198   4.962   9.449   5.799 -0.2978  0.4333 -0.1166
33390ION     NA49199   6.152  14.523  13.091  0.3340  0.0864 -0.4232
33391ION     NA49200  17.140   0.545   5.646 -0.1469  0.0378 -0.4184
33392ION     NA49201   6.858   6.151   0.981  0.0088 -0.2792  0.0546
33393ION     NA49202  11.701  16.615   1.563 -0.1875  0.2744  0.0162
33394ION     NA49203   7.477   9.084   5.568  0.2472  0.1563  0.1340
33395ION     NA49204  10.390   2.892   1.150  0.1422  0.0728  0.2701
33396ION     NA49205  18.167  14.286   5.425  0.0456 -0.2232 -0.1013
33397ION     NA49206  16.899   9.772   5.393  0.1803  0.3198 -0.1235
33398ION     NA49207  10.680   4.119   2.009  0.0624 -0.0704  0.0842
  18.78106  18.78106  15.56409
