INSANE! Membrane UpperLeaflet>loPI:POPI:DPPI:PYPI:ERGO=140.0:15.0:9.0:6.0:30.0 LowerLeaflet>PSPI:POPI:POPS:YOPS:POPE:YOPE:POPC:YOPC:ERGO=6.0:14.0:21.0:9.0:9.0:21.0:12.0:48.0:60.0
49207
    1loPI    C1    1   6.353   6.672  10.442 -0.1718 -0.1041  0.2710
    1loPI    C2    2   6.557   6.335  10.507  0.0409 -0.0487 -0.0820
    1loPI    C3    3   6.161   6.321  10.453  0.0283 -0.2231  0.0441
    1loPI   PO4    4   6.541   6.839  10.241  0.0845 -0.1425 -0.0556
    1loPI   GL1    5   6.708   6.856   9.884 -0.1825  0.2981  0.1083
    1loPI   GL2    6   6.874   6.718   9.771 -0.0781 -0.2477  0.1575
    1loPI   C1A    7   6.686   7.024   9.361  0.3855  0.0638  0.0518
    1loPI   C2A    8   6.637   7.011   8.907 -0.0411  0.0568 -0.0508
    1loPI   C3A    9   6.547   6.993   8.470 -0.1064  0.0305 -0.1212
    1loPI   C4A   10   6.506   7.186   8.055 -0.0231 -0.0853 -0.0693
    1loPI   C5A   11   6.273   7.462   7.774 -0.0728  0.1679  0.0579
    1loPI   C6A   12   6.144   7.403   7.313  0.1202  0.1199 -0.2079
    1loPI   C1B   13   6.744   6.525   9.372  0.0334  0.1898  0.0355
    1loPI   C2B   14   6.984   6.305   8.962 -0.0719  0.2270  0.2042
    1loPI   C3B   15   6.951   6.106   8.514 -0.1433 -0.3287 -0.1125
    1loPI   C4B   16   6.734   6.082   8.128 -0.0449 -0.1027 -0.4010
    2loPI    C1   17  18.438  10.864   9.771 -0.0472 -0.0357  0.0866
    2loPI    C2   18  18.064  10.770   9.875 -0.1245  0.1362 -0.0318
    2loPI    C3   19  18.288  10.996  10.117 -0.1523  0.1661 -0.0341
    2loPI   PO4   20  18.424  10.924   9.507 -0.0043  0.1381 -0.3278
    2loPI   GL1   21  18.509  10.883   9.083 -0.0301 -0.1007 -0.1033
    2loPI   GL2   22  18.486  10.574   8.987 -0.0796  0.4251  0.0328
    2loPI   C1A   23  18.796  10.758   8.696  0.1351 -0.4756  0.3230
    2loPI   C2A   24  18.953  10.558   8.338  0.3399  0.1131 -0.1380
    2loPI   C3A   25  18.759  10.367   7.863  0.0571 -0.1305  0.2599
    2loPI   C4A   26  18.999  10.059   7.677  0.1296 -0.1059  0.2602
    2loPI   C5A   27  19.136   9.804   7.363 -0.2675 -0.2461  0.1778
    2loPI   C6A   28  19.401   9.936   7.087  0.0612  0.0405 -0.0039
    2loPI   C1B   29  18.382  10.501   8.515  0.1687 -0.2028  0.0709
    2loPI   C2B   30  18.498  10.712   8.226  0.0067  0.1139 -0.0153
    2loPI   C3B   31  18.730  10.969   7.915 -0.0843 -0.2643 -0.0245
    2loPI   C4B   32  18.828  11.105   7.541 -0.0548  0.0207  0.0506
    3loPI    C1   33   3.799   4.881   9.888  0.0825 -0.1322 -0.2474
    3loPI    C2   34   4.034   4.612  10.066  0.0657  0.0106 -0.0039
    3loPI    C3   35   3.780   4.830  10.284 -0.0938  0.0541 -0.2298
    3loPI   PO4   36   4.021   5.093   9.753  0.0282 -0.1965 -0.1009
    3loPI   GL1   37   4.120   5.292   9.340  0.1446  0.1578 -0.0225
    3loPI   GL2   38   4.426   5.107   9.327  0.0597 -0.2734  0.1647
    3loPI   C1A   39   4.147   5.361   8.908  0.2027 -0.0520 -0.0096
    3loPI   C2A   40   4.237   5.300   8.453  0.0346  0.3021 -0.0950
    3loPI   C3A   41   4.284   5.066   8.111  0.0179 -0.2698  0.1926
    3loPI   C4A   42   4.543   4.846   7.716  0.1674  0.3664  0.2538
    3loPI   C5A   43   4.735   4.500   7.386  0.0535 -0.4255  0.3743
    3loPI   C6A   44   5.081   4.437   7.184  0.1476 -0.0970 -0.3041
    3loPI   C1B   45   4.522   4.904   8.936  0.2938  0.0064 -0.4838
    3loPI   C2B   46   4.514   4.794   8.564  0.0117  0.0296  0.1566
    3loPI   C3B   47   4.360   4.605   8.164  0.0177 -0.0382 -0.1492
    3loPI   C4B   48   3.995   4.283   8.004 -0.1458  0.0956  0.1933
    4loPI    C1   49  17.084   3.896  10.319  0.1695  0.2523 -0.0314
    4loPI    C2   50  17.273   4.239  10.401  0.2546  0.1940  0.0182
    4loPI    C3   51  17.451   3.889  10.480  0.0169  0.1375  0.3215
    4loPI   PO4   52  17.057   3.903  10.071  0.1484 -0.1935 -0.3423
    4loPI   GL1   53  16.969   3.856   9.665 -0.0661  0.1030 -0.0384
    4loPI   GL2   54  16.611   3.690   9.688 -0.3332  0.1919  0.1818
    4loPI   C1A   55  17.153   3.896   9.196 -0.3187 -0.2860 -0.0834
    4loPI   C2A   56  17.221   3.809   8.788  0.0302 -0.0247 -0.0690
    4loPI   C3A   57  17.110   3.678   8.417 -0.4903  0.0639  0.4460
    4loPI   C4A   58  17.084   3.591   8.072 -0.2327 -0.2267 -0.1349
    4loPI   C5A   59  16.861   3.397   7.876 -0.1438 -0.1784  0.0183
    4loPI   C6A   60  16.630   3.040   7.963  0.1409  0.2252 -0.0233
    4loPI   C1B   61  16.700   3.756   9.254 -0.1115 -0.2125 -0.0553
    4loPI   C2B   62  16.669   3.862   8.772  0.0866 -0.2075  0.0753
    4loPI   C3B   63  16.639   3.789   8.391  0.3307 -0.0497  0.1787
    4loPI   C4B   64  16.578   3.792   7.974  0.3074  0.0051 -0.0028
    5loPI    C1   65   5.848  11.797  10.443  0.0081 -0.0504  0.0410
    5loPI    C2   66   6.216  11.772  10.288 -0.1692 -0.2492 -0.3644
    5loPI    C3   67   6.078  11.480  10.523  0.0590 -0.0007  0.0915
    5loPI   PO4   68   5.697  11.862  10.178  0.1165  0.1191  0.0552
    5loPI   GL1   69   5.744  11.923   9.736 -0.0839 -0.2164 -0.4394
    5loPI   GL2   70   5.578  11.591   9.623  0.1263 -0.1072 -0.1846
    5loPI   C1A   71   5.735  11.841   9.254  0.0867 -0.1378 -0.1227
    5loPI   C2A   72   5.878  12.055   8.893  0.2685  0.1592  0.2634
    5loPI   C3A   73   6.060  12.040   8.514 -0.0360 -0.0352 -0.3435
    5loPI   C4A   74   6.372  11.789   8.347 -0.1022  0.1353  0.0913
    5loPI   C5A   75   6.825  11.730   8.184 -0.0503 -0.0888  0.1455
    5loPI   C6A   76   7.110  11.507   7.858 -0.2590  0.0664  0.0445
    5loPI   C1B   77   5.462  11.380   9.284  0.0046 -0.0537  0.2824
    5loPI   C2B   78   5.407  11.415   8.824  0.1252  0.0875 -0.1468
    5loPI   C3B   79   5.445  11.269   8.392  0.0928  0.1035 -0.0672
    5loPI   C4B   80   5.323  11.208   7.899  0.2188  0.4637 -0.1193
    6loPI    C1   81   2.098  10.392   9.905  0.0658  0.1661  0.0427
    6loPI    C2   82   2.221  10.424  10.284 -0.2269 -0.0615  0.1608
    6loPI    C3   83   1.847  10.528  10.186 -0.1366  0.0459 -0.0770
    6loPI   PO4   84   2.028  10.104   9.706  0.0304 -0.1607 -0.0174
    6loPI   GL1   85   1.789  10.167   9.375 -0.0593  0.0998 -0.2361
    6loPI   GL2   86   1.534  10.049   9.405 -0.1109  0.0845  0.1244
    6loPI   C1A   87   1.945   9.955   9.091  0.0090 -0.1658  0.4712
    6loPI   C2A   88   1.866  10.109   8.712 -0.1304  0.5091  0.3197
    6loPI   C3A   89   1.846  10.409   8.382  0.4213  0.0118  0.1228
    6loPI   C4A   90   2.131  10.454   8.025  0.0522 -0.0102  0.0746
    6loPI   C5A   91   2.444  10.255   7.765 -0.6158  0.4487 -0.1049
    6loPI   C6A   92   2.694   9.803   7.648 -0.2647 -0.0372  0.0813
    6loPI   C1B   93   1.479   9.887   8.984  0.1469 -0.1459  0.0761
    6loPI   C2B   94   1.435   9.860   8.656  0.0406  0.2241 -0.0191
    6loPI   C3B   95   1.651   9.927   8.291 -0.3339  0.0009 -0.0842
    6loPI   C4B   96   1.853   9.999   7.852  0.2598 -0.0952 -0.3348
    7loPI    C1   97  14.570  15.932  10.389  0.1382  0.2199 -0.0204
    7loPI    C2   98  14.845  15.654  10.473  0.0258  0.1509  0.1266
    7loPI    C3   99  14.862  16.012  10.650  0.2025  0.2595 -0.1040
    7loPI   PO4  100  14.508  15.714  10.096  0.0601 -0.2413  0.0513
    7loPI   GL1  101  14.503  15.456   9.681  0.1658  0.0275  0.1411
    7loPI   GL2  102  14.185  15.531   9.747 -0.1019  0.0623 -0.1253
    7loPI   C1A  103  14.319  15.336   9.291 -0.0103 -0.1431 -0.1149
    7loPI   C2A  104  13.952  15.421   8.911  0.2393  0.0572 -0.3746
    7loPI   C3A  105  13.832  15.606   8.448 -0.1160  0.1104 -0.0324
    7loPI   C4A  106  13.914  15.363   8.041 -0.0776 -0.1635 -0.1038
    7loPI   C5A  107  13.736  15.210   7.780 -0.0853 -0.0809 -0.0878
    7loPI   C6A  108  13.513  14.852   7.926  0.0241  0.1939  0.0269
    7loPI   C1B  109  13.946  15.647   9.436 -0.1601 -0.0339  0.5110
    7loPI   C2B  110  13.953  16.067   9.222 -0.4284  0.0012  0.2220
    7loPI   C3B  111  14.277  16.430   9.125  0.0146 -0.2383  0.1140
    7loPI   C4B  112  14.282  16.671   8.715  0.1755  0.1532 -0.3001
    8loPI    C1  113  10.463   0.169  10.872 -0.0039 -0.1653 -0.0167
    8loPI    C2  114  10.830   0.140  10.715  0.0349  0.3016 -0.0259
    8loPI    C3  115  10.754   0.413  10.997 -0.3073  0.2086 -0.0239
    8loPI   PO4  116  10.290   0.111  10.606 -0.2844 -0.2157 -0.1786
    8loPI   GL1  117  10.013  -0.186  10.316  0.4174 -0.0122  0.0180
    8loPI   GL2  118  10.225  -0.213  10.059  0.0996  0.0511  0.3232
    8loPI   C1A  119   9.726  -0.024   9.991 -0.0755 -0.0393  0.2090
    8loPI   C2A  120   9.820   0.184   9.643  0.0298  0.2470  0.1709
    8loPI   C3A  121   9.761   0.232   9.126  0.2781  0.0749 -0.0651
    8loPI   C4A  122   9.556   0.422   8.721  0.0637 -0.0994  0.3183
    8loPI   C5A  123   9.525   0.742   8.482  0.0701  0.1030 -0.0295
    8loPI   C6A  124   9.762   0.877   8.175 -0.3783  0.1064 -0.0422
    8loPI   C1B  125  10.307   0.022   9.750 -0.2682 -0.0264  0.2268
    8loPI   C2B  126  10.313   0.159   9.315  0.0923 -0.0057  0.1103
    8loPI   C3B  127  10.273   0.347   8.932  0.1940 -0.1657 -0.0624
    8loPI   C4B  128  10.136   0.181   8.565 -0.1587  0.1748 -0.3584
    9loPI    C1  129  12.704   8.959  10.330  0.0888  0.0700 -0.0231
    9loPI    C2  130  12.367   9.107  10.487 -0.0096 -0.0371 -0.1306
    9loPI    C3  131  12.355   8.773  10.267  0.1853 -0.1106 -0.0323
    9loPI   PO4  132  12.877   9.083  10.181  0.0228 -0.2128  0.0206
    9loPI   GL1  133  12.975   9.352   9.826  0.4572  0.2189  0.3296
    9loPI   GL2  134  12.718   9.603   9.750 -0.1212 -0.0215  0.3052
    9loPI   C1A  135  13.275   9.339   9.422 -0.3753  0.1210 -0.2137
    9loPI   C2A  136  13.253   9.293   8.924  0.4938 -0.2013  0.2992
    9loPI   C3A  137  13.239   9.299   8.475  0.0131 -0.1594  0.0740
    9loPI   C4A  138  13.237   9.396   8.065 -0.1524  0.0783 -0.1126
    9loPI   C5A  139  13.430   9.238   7.805  0.0595  0.1162 -0.1313
    9loPI   C6A  140  13.745   9.003   7.802  0.0186 -0.0859  0.1085
    9loPI   C1B  141  12.789   9.346   9.349  0.3060  0.2387  0.0348
    9loPI   C2B  142  12.680   9.400   8.875 -0.1919  0.0242  0.1649
    9loPI   C3B  143  12.643   9.598   8.494  0.2475  0.0357  0.2870
    9loPI   C4B  144  12.699   9.663   8.047  0.4714 -0.0715 -0.1377
   10loPI    C1  145   9.194   9.471  10.343  0.0827 -0.2193 -0.1397
   10loPI    C2  146   9.023   9.724  10.085  0.0610 -0.1762 -0.0832
   10loPI    C3  147   9.248   9.865  10.384 -0.0794 -0.2145  0.0422
   10loPI   PO4  148   9.257   9.292  10.097 -0.0547 -0.1931  0.1872
   10loPI   GL1  149   9.123   9.128   9.683 -0.1293 -0.1056  0.2780
   10loPI   GL2  150   8.858   9.059   9.563 -0.1918  0.3527 -0.0775
   10loPI   C1A  151   9.034   9.311   9.178 -0.0804 -0.0203 -0.1960
   10loPI   C2A  152   8.968   9.344   8.779 -0.2349  0.5230  0.1613
   10loPI   C3A  153   8.759   9.573   8.454 -0.0121 -0.1574 -0.0512
   10loPI   C4A  154   8.747   9.898   8.164 -0.0113 -0.0442 -0.2030
   10loPI   C5A  155   8.457  10.350   8.038 -0.0166 -0.1315  0.1632
   10loPI   C6A  156   8.548  10.717   8.017 -0.0983 -0.0798 -0.3801
   10loPI   C1B  157   8.603   9.143   9.160  0.4067  0.0033 -0.3035
   10loPI   C2B  158   8.486   9.215   8.666 -0.1631  0.0016  0.3377
   10loPI   C3B  159   8.506   9.218   8.223 -0.4834 -0.2798 -0.1161
   10loPI   C4B  160   8.596   9.520   7.888  0.3157 -0.0987  0.0187
   11loPI    C1  161   6.851  10.844  10.468 -0.1879  0.1709  0.0149
   11loPI    C2  162   7.000  11.121  10.715  0.0150  0.1042 -0.0303
   11loPI    C3  163   6.797  10.809  10.863  0.0158  0.1371  0.0407
   11loPI   PO4  164   6.926  10.866  10.186  0.0050  0.0470  0.3250
   11loPI   GL1  165   6.845  11.072   9.789  0.3896 -0.1891 -0.1816
   11loPI   GL2  166   6.530  10.952   9.821 -0.0658  0.0125  0.1893
   11loPI   C1A  167   7.013  11.209   9.375 -0.0791 -0.0251  0.1522
   11loPI   C2A  168   6.923  11.181   9.019  0.0076  0.2817 -0.0987
   11loPI   C3A  169   6.640  10.995   8.670  0.5224  0.0609 -0.0228
   11loPI   C4A  170   6.570  10.865   8.287  0.4166  0.1120 -0.1678
   11loPI   C5A  171   6.750  10.701   7.912 -0.1107 -0.1363 -0.3406
   11loPI   C6A  172   6.544  10.711   7.450 -0.0658  0.0485 -0.0878
   11loPI   C1B  173   6.378  10.735   9.444 -0.2672 -0.0478  0.2408
   11loPI   C2B  174   6.446  10.559   9.076 -0.1637 -0.3996 -0.0250
   11loPI   C3B  175   6.477  10.518   8.721 -0.1609  0.1112 -0.4154
   11loPI   C4B  176   6.564  10.295   8.451  0.2837  0.0768  0.1469
   12loPI    C1  177  17.340  13.594   9.816 -0.2091  0.0510 -0.2590
   12loPI    C2  178  17.277  13.707  10.195  0.1622 -0.0105 -0.1741
   12loPI    C3  179  17.118  13.366  10.059  0.1626 -0.0711 -0.0246
   12loPI   PO4  180  17.635  13.620   9.721  0.0335  0.0774  0.1673
   12loPI   GL1  181  17.855  13.901   9.442  0.0537 -0.1908 -0.2642
   12loPI   GL2  182  17.622  14.053   9.520  0.2688 -0.0331  0.0734
   12loPI   C1A  183  17.876  13.750   9.022 -0.0972 -0.0381  0.0699
   12loPI   C2A  184  17.682  13.920   8.673 -0.1325  0.0525 -0.0450
   12loPI   C3A  185  17.634  14.219   8.310  0.2532 -0.0292  0.0589
   12loPI   C4A  186  17.792  14.642   8.126 -0.2016  0.2130 -0.0686
   12loPI   C5A  187  17.843  14.907   7.902  0.2192 -0.0794  0.3575
   12loPI   C6A  188  17.718  15.333   7.612 -0.1428 -0.0486  0.1285
   12loPI   C1B  189  17.509  14.215   9.067 -0.0695  0.0156 -0.0025
   12loPI   C2B  190  17.341  14.364   8.670  0.4172  0.1421 -0.0301
   12loPI   C3B  191  17.289  14.602   8.247 -0.0711 -0.3421  0.2042
   12loPI   C4B  192  17.428  14.690   7.786  0.0973  0.1701  0.5167
   13loPI    C1  193   3.329  16.176  10.015 -0.1338  0.1024 -0.0920
   13loPI    C2  194   3.270  15.783  10.067  0.1359  0.0814  0.0745
   13loPI    C3  195   3.099  16.046  10.315  0.0791  0.0622  0.0559
   13loPI   PO4  196   3.454  16.175   9.837  0.0511 -0.0277  0.0962
   13loPI   GL1  197   3.343  15.899   9.536  0.0711  0.1808 -0.2981
   13loPI   GL2  198   3.550  16.153   9.288  0.0361 -0.0579  0.2745
   13loPI   C1A  199   3.325  15.501   9.403  0.2099  0.0448 -0.0293
   13loPI   C2A  200   3.525  15.270   9.091 -0.2592 -0.0084 -0.0085
   13loPI   C3A  201   3.815  15.181   8.697  0.0605 -0.0496 -0.0170
   13loPI   C4A  202   3.698  15.336   8.288  0.1406  0.1288  0.0707
   13loPI   C5A  203   3.665  15.145   7.936 -0.1043  0.2933 -0.0791
   13loPI   C6A  204   3.341  14.969   7.681  0.0340  0.1568  0.1324
   13loPI   C1B  205   3.462  15.766   9.038  0.0184 -0.5644  0.1504
   13loPI   C2B  206   3.374  15.580   8.588  0.0205 -0.0844 -0.1775
   13loPI   C3B  207   3.214  15.535   8.137  0.1058 -0.1370 -0.0468
   13loPI   C4B  208   3.121  15.876   7.828 -0.1535  0.1474 -0.1340
   14loPI    C1  209  14.023   1.198  10.486 -0.0979 -0.0727 -0.1667
   14loPI    C2  210  13.982   1.411  10.822 -0.3798 -0.2733 -0.0698
   14loPI    C3  211  14.295   1.166  10.778 -0.0076  0.2117 -0.2166
   14loPI   PO4  212  14.004   1.283  10.341 -0.3633 -0.1726 -0.2715
   14loPI   GL1  213  14.230   1.366   9.851  0.0970 -0.0693 -0.0647
   14loPI   GL2  214  13.929   1.260   9.715  0.2551 -0.1718 -0.0373
   14loPI   C1A  215  14.302   1.759   9.678 -0.0679  0.0842  0.3022
   14loPI   C2A  216  14.667   1.937   9.424 -0.1708 -0.0656 -0.1945
   14loPI   C3A  217  14.697   1.988   8.986 -0.1265  0.1410  0.0443
   14loPI   C4A  218  14.587   2.191   8.537  0.1428 -0.0074  0.0259
   14loPI   C5A  219  14.551   2.254   8.141 -0.1350  0.0752 -0.4179
   14loPI   C6A  220  14.829   2.295   7.747  0.1468 -0.0190 -0.0310
   14loPI   C1B  221  13.937   0.964   9.375 -0.0058  0.0034  0.1757
   14loPI   C2B  222  13.732   0.676   9.084  0.0589  0.0653 -0.2159
   14loPI   C3B  223  13.743   0.637   8.678 -0.0580 -0.2567 -0.1548
   14loPI   C4B  224  13.961   0.816   8.393  0.2115 -0.1675  0.1345
   15loPI    C1  225   2.124   6.894  10.214 -0.2221 -0.0576 -0.0544
   15loPI    C2  226   1.905   7.147  10.433 -0.1959 -0.2463  0.1942
   15loPI    C3  227   2.212   6.952  10.600  0.0900 -0.0763 -0.1201
   15loPI   PO4  228   2.133   7.029  10.012 -0.3188  0.1778  0.3625
   15loPI   GL1  229   2.176   7.041   9.511  0.1064  0.0545  0.0576
   15loPI   GL2  230   2.196   7.404   9.559  0.0736 -0.0161 -0.1033
   15loPI   C1A  231   2.332   7.098   9.122  0.2820  0.0435 -0.0133
   15loPI   C2A  232   2.461   7.056   8.713  0.1887  0.3025 -0.1183
   15loPI   C3A  233   2.631   6.656   8.467  0.1367  0.0865 -0.1107
   15loPI   C4A  234   2.744   6.601   8.073  0.2073 -0.0706  0.0691
   15loPI   C5A  235   2.793   6.670   7.702  0.0564  0.0187 -0.0005
   15loPI   C6A  236   2.552   6.586   7.385  0.0093 -0.0606  0.0678
   15loPI   C1B  237   2.049   7.500   9.261 -0.0030  0.2522  0.2169
   15loPI   C2B  238   1.903   7.259   8.946  0.0116 -0.1051  0.1306
   15loPI   C3B  239   1.958   7.285   8.440  0.0256 -0.2130 -0.1075
   15loPI   C4B  240   2.060   7.244   8.016  0.1357  0.0399 -0.4092
   16loPI    C1  241   4.754  16.889  10.267  0.1301 -0.0974 -0.0210
   16loPI    C2  242   4.983  17.203  10.363 -0.0308  0.0126  0.0068
   16loPI    C3  243   5.030  16.855  10.555  0.1322  0.0254 -0.0082
   16loPI   PO4  244   4.791  16.788   9.977 -0.1421  0.0992  0.0987
   16loPI   GL1  245   4.984  16.512   9.719  0.0300  0.1249 -0.1135
   16loPI   GL2  246   4.750  16.218   9.634  0.1501  0.0993  0.1406
   16loPI   C1A  247   5.091  16.495   9.344  0.2102 -0.1572 -0.2568
   16loPI   C2A  248   5.069  16.549   8.916 -0.0930  0.1042 -0.0239
   16loPI   C3A  249   5.057  16.492   8.516 -0.0458 -0.0765  0.1300
   16loPI   C4A  250   5.160  16.432   8.109  0.1541  0.1201  0.0101
   16loPI   C5A  251   4.968  16.428   7.645  0.1099 -0.0704  0.0261
   16loPI   C6A  252   5.058  16.693   7.360 -0.0735 -0.0455 -0.1148
   16loPI   C1B  253   4.549  16.380   9.316 -0.2948 -0.1780  0.1303
   16loPI   C2B  254   4.555  16.468   8.878 -0.1724 -0.0139 -0.0443
   16loPI   C3B  255   4.547  16.379   8.464  0.0062 -0.1860 -0.0533
   16loPI   C4B  256   4.595  16.583   8.108 -0.1943  0.1749  0.0354
   17loPI    C1  257   7.695  14.613  10.111 -0.0167  0.1112  0.0642
   17loPI    C2  258   8.030  14.535   9.907 -0.0386  0.1251  0.0228
   17loPI    C3  259   7.963  14.355  10.259 -0.1415 -0.1316 -0.1252
   17loPI   PO4  260   7.647  14.876  10.108 -0.1166  0.2166 -0.0200
   17loPI   GL1  261   7.592  15.037   9.659  0.0957 -0.0098 -0.1959
   17loPI   GL2  262   7.820  14.845   9.564 -0.2307 -0.0022  0.0774
   17loPI   C1A  263   7.366  15.065   9.314 -0.0269 -0.0804  0.2029
   17loPI   C2A  264   7.316  15.246   8.885 -0.3835 -0.1556  0.1214
   17loPI   C3A  265   7.388  15.503   8.532 -0.1049 -0.1349  0.4321
   17loPI   C4A  266   7.345  15.844   8.336  0.0048  0.0344  0.0885
   17loPI   C5A  267   7.042  16.117   8.195  0.3536 -0.1859  0.1569
   17loPI   C6A  268   6.739  16.285   8.079  0.0499 -0.1412 -0.3176
   17loPI   C1B  269   7.853  14.960   9.092 -0.0003  0.0142  0.1391
   17loPI   C2B  270   7.792  14.917   8.642 -0.1117  0.0935  0.0124
   17loPI   C3B  271   7.535  14.838   8.258 -0.1491 -0.1268 -0.0676
   17loPI   C4B  272   7.524  14.597   7.883 -0.0711  0.3203  0.3721
   18loPI    C1  273   9.039   0.711  10.265  0.1835  0.1817 -0.1622
   18loPI    C2  274   8.742   0.824  10.508  0.1047 -0.1700 -0.0894
   18loPI    C3  275   8.659   0.639  10.163  0.2404 -0.3965 -0.0027
   18loPI   PO4  276   9.188   0.857  10.205 -0.1002 -0.1490 -0.2763
   18loPI   GL1  277   9.281   0.947   9.790  0.0726  0.1615 -0.1161
   18loPI   GL2  278   9.143   0.653   9.763  0.3798 -0.1037  0.1803
   18loPI   C1A  279   9.422   1.104   9.306  0.2500 -0.1980 -0.1634
   18loPI   C2A  280   9.128   1.333   9.098  0.1722 -0.3129 -0.0571
   18loPI   C3A  281   9.060   1.460   8.642  0.1761  0.0684 -0.0751
   18loPI   C4A  282   8.997   1.689   8.277  0.3681 -0.3883  0.1664
   18loPI   C5A  283   8.879   2.082   8.208 -0.2261 -0.0246 -0.0630
   18loPI   C6A  284   8.600   2.370   8.114 -0.0314  0.0222 -0.1219
   18loPI   C1B  285   9.148   0.414   9.397 -0.0208  0.2203  0.1575
   18loPI   C2B  286   8.968   0.220   8.991  0.0855 -0.1118  0.2312
   18loPI   C3B  287   8.870   0.398   8.588 -0.2697  0.1759  0.0454
   18loPI   C4B  288   8.850   0.733   8.349 -0.0308  0.1827  0.0690
   19loPI    C1  289   8.794   9.010  10.076  0.1930  0.0489 -0.0935
   19loPI    C2  290   8.958   9.042  10.439 -0.1094 -0.3476  0.0861
   19loPI    C3  291   8.658   9.285  10.333  0.1294 -0.0794  0.0112
   19loPI   PO4  292   8.781   8.709  10.006 -0.2540 -0.2814  0.1324
   19loPI   GL1  293   9.127   8.490   9.753 -0.1301 -0.2226 -0.0230
   19loPI   GL2  294   9.109   8.175   9.822 -0.0019 -0.1047 -0.0854
   19loPI   C1A  295   9.301   8.746   9.337 -0.1774  0.0415 -0.0316
   19loPI   C2A  296   9.317   9.007   8.889 -0.2131  0.0573  0.0372
   19loPI   C3A  297   9.440   9.166   8.531  0.0862  0.0612  0.0199
   19loPI   C4A  298   9.769   9.399   8.125 -0.0120 -0.1161  0.1423
   19loPI   C5A  299  10.118   9.171   7.871 -0.2653  0.1096 -0.3141
   19loPI   C6A  300  10.547   9.268   7.720  0.3517  0.1685  0.2396
   19loPI   C1B  301   9.103   8.035   9.447  0.1278  0.0581  0.0330
   19loPI   C2B  302   8.838   7.991   9.017  0.2570 -0.1442 -0.1949
   19loPI   C3B  303   8.860   8.366   8.690 -0.4751  0.2369 -0.1271
   19loPI   C4B  304   9.111   8.247   8.258 -0.1214  0.0430  0.2714
   20loPI    C1  305   5.903   4.405  10.183 -0.2076  0.0310 -0.2504
   20loPI    C2  306   5.813   4.795  10.177 -0.2513  0.0282  0.0535
   20loPI    C3  307   5.838   4.601  10.526  0.2356 -0.1352 -0.0639
   20loPI   PO4  308   5.823   4.305   9.997  0.0920  0.0284  0.0705
   20loPI   GL1  309   5.693   4.290   9.645 -0.0576  0.2424  0.0249
   20loPI   GL2  310   6.017   4.208   9.560  0.0520  0.1264  0.0480
   20loPI   C1A  311   5.513   4.347   9.241 -0.0356 -0.1446  0.1135
   20loPI   C2A  312   5.510   4.300   8.864  0.1147 -0.0636  0.1805
   20loPI   C3A  313   5.480   4.164   8.498  0.0996 -0.1377 -0.3529
   20loPI   C4A  314   5.752   4.239   8.149 -0.0116  0.0627  0.0591
   20loPI   C5A  315   5.932   4.227   7.833  0.2799  0.2447  0.0201
   20loPI   C6A  316   5.775   4.341   7.390 -0.1226  0.2705 -0.3010
   20loPI   C1B  317   6.375   4.377   9.346  0.1534  0.0618 -0.3528
   20loPI   C2B  318   6.684   4.617   9.052 -0.2251  0.0311  0.0042
   20loPI   C3B  319   6.816   4.625   8.638  0.1292  0.0248  0.3394
   20loPI   C4B  320   6.851   4.604   8.280  0.0140 -0.2412 -0.2791
   21loPI    C1  321   4.805  12.236   9.835  0.0212  0.1194 -0.0910
   21loPI    C2  322   4.693  12.495  10.118 -0.2073 -0.1490  0.0685
   21loPI    C3  323   4.972  12.220  10.198  0.0179  0.0293 -0.0932
   21loPI   PO4  324   4.942  12.301   9.668  0.2973  0.0365  0.0576
   21loPI   GL1  325   4.950  12.301   9.218 -0.1042  0.1161  0.0278
   21loPI   GL2  326   5.113  12.560   9.311 -0.1030 -0.0133  0.0154
   21loPI   C1A  327   4.779  12.521   8.838 -0.3675  0.0129  0.0435
   21loPI   C2A  328   4.636  12.498   8.453 -0.1241 -0.2920  0.1443
   21loPI   C3A  329   4.683  12.594   8.028 -0.1445  0.3149 -0.1730
   21loPI   C4A  330   4.484  12.726   7.652  0.1304 -0.1411  0.1565
   21loPI   C5A  331   4.025  12.843   7.568  0.2649 -0.2739 -0.1040
   21loPI   C6A  332   3.811  13.077   7.621  0.0743 -0.2582 -0.0394
   21loPI   C1B  333   5.376  12.423   9.027  0.0414 -0.0430  0.1959
   21loPI   C2B  334   5.549  12.357   8.645 -0.2724 -0.1102  0.1216
   21loPI   C3B  335   5.637  12.408   8.237 -0.2446 -0.1022 -0.3946
   21loPI   C4B  336   5.901  12.468   7.809  0.2615  0.1384 -0.0147
   22loPI    C1  337  16.565   0.656  10.429 -0.0546 -0.2266  0.1829
   22loPI    C2  338  16.303   0.633  10.730 -0.0451 -0.2123  0.1923
   22loPI    C3  339  16.194   0.523  10.362 -0.2421  0.3257  0.0814
   22loPI   PO4  340  16.683   0.898  10.379 -0.3105 -0.0939  0.0044
   22loPI   GL1  341  16.667   1.106   9.939 -0.0507 -0.0437  0.1171
   22loPI   GL2  342  16.838   0.883   9.915 -0.0952 -0.2432  0.0243
   22loPI   C1A  343  16.562   1.123   9.508 -0.2675  0.0779 -0.0218
   22loPI   C2A  344  16.431   1.141   9.150 -0.1484 -0.0656  0.1826
   22loPI   C3A  345  16.398   1.117   8.756 -0.0566  0.0621 -0.0128
   22loPI   C4A  346  16.202   1.160   8.377 -0.2833 -0.1882 -0.0317
   22loPI   C5A  347  16.233   0.933   7.946  0.0320  0.0895  0.0572
   22loPI   C6A  348  16.165   0.556   7.946 -0.2280  0.1446  0.1196
   22loPI   C1B  349  16.962   0.853   9.401  0.0857 -0.0388 -0.1658
   22loPI   C2B  350  16.882   0.925   9.011  0.0505  0.0485  0.0295
   22loPI   C3B  351  16.860   0.993   8.579 -0.0826  0.3677  0.1453
   22loPI   C4B  352  16.718   0.988   8.220 -0.3129  0.1554 -0.1184
   23loPI    C1  353   5.910  16.794  10.250 -0.0056 -0.0060  0.1074
   23loPI    C2  354   6.225  17.006  10.126  0.1102 -0.0331  0.3501
   23loPI    C3  355   6.276  16.703  10.382 -0.0794 -0.2227  0.1675
   23loPI   PO4  356   5.739  16.888  10.022  0.2687 -0.5711  0.2276
   23loPI   GL1  357   5.764  17.277   9.682 -0.0488  0.1773  0.0213
   23loPI   GL2  358   6.086  17.387   9.766  0.2857  0.0458  0.0646
   23loPI   C1A  359   5.623  17.399   9.321 -0.2183 -0.2730 -0.0703
   23loPI   C2A  360   5.552  17.565   8.953  0.1625  0.2191  0.0775
   23loPI   C3A  361   5.608  17.771   8.572  0.1101 -0.1786  0.1322
   23loPI   C4A  362   5.476  18.139   8.492 -0.1189  0.0033  0.0142
   23loPI   C5A  363   5.199  18.301   8.708  0.0407  0.1228  0.1791
   23loPI   C6A  364   4.825  18.535   8.839  0.1834 -0.1303 -0.1918
   23loPI   C1B  365   6.150  17.443   9.198  0.4937 -0.1111  0.1570
   23loPI   C2B  366   6.025  17.643   8.816  0.0522 -0.1326  0.1808
   23loPI   C3B  367   6.132  17.774   8.473 -0.2708  0.0482  0.0429
   23loPI   C4B  368   5.885  18.025   8.220  0.1843  0.2564  0.1176
   24loPI    C1  369  18.134  11.300   9.652 -0.0803 -0.0842  0.2697
   24loPI    C2  370  18.234  11.686   9.686  0.0532 -0.0807 -0.1216
   24loPI    C3  371  18.468  11.403   9.845  0.1003 -0.0144 -0.0728
   24loPI   PO4  372  17.907  11.308   9.440  0.2485  0.3148 -0.2263
   24loPI   GL1  373  17.931  11.445   9.048 -0.3746  0.1508  0.1138
   24loPI   GL2  374  18.197  11.215   9.037 -0.0888  0.2070  0.0283
   24loPI   C1A  375  17.850  11.403   8.609 -0.2158 -0.1622 -0.1439
   24loPI   C2A  376  17.878  11.391   8.177 -0.0974 -0.0354 -0.0569
   24loPI   C3A  377  17.728  11.173   7.916 -0.0013 -0.1986  0.1072
   24loPI   C4A  378  17.797  10.889   7.592 -0.4524 -0.1225  0.2066
   24loPI   C5A  379  18.004  10.652   7.200 -0.2223  0.2930 -0.0962
   24loPI   C6A  380  18.352  10.498   7.071  0.3034 -0.1895  0.2045
   24loPI   C1B  381  18.095  10.956   8.714 -0.0773  0.0011 -0.0961
   24loPI   C2B  382  18.072  10.918   8.390 -0.2424 -0.3010  0.1886
   24loPI   C3B  383  18.045  10.781   7.973 -0.1715 -0.4384 -0.0426
   24loPI   C4B  384  18.325  10.637   7.567 -0.3427  0.1487 -0.0434
   25loPI    C1  385   6.728   8.003  10.368 -0.1926 -0.1747 -0.0267
   25loPI    C2  386   7.123   7.938  10.390 -0.1456  0.1179  0.0440
   25loPI    C3  387   6.886   7.833  10.695 -0.1047  0.0641  0.0573
   25loPI   PO4  388   6.662   7.893  10.191  0.0080  0.0946 -0.1885
   25loPI   GL1  389   6.748   7.915   9.831  0.0389  0.2384 -0.0211
   25loPI   GL2  390   6.878   8.171   9.855 -0.3339 -0.3507  0.1557
   25loPI   C1A  391   6.909   7.793   9.404 -0.0918  0.0037 -0.3189
   25loPI   C2A  392   6.774   7.437   9.103  0.1170 -0.0023 -0.0482
   25loPI   C3A  393   6.625   7.437   8.613  0.4292  0.1396  0.0098
   25loPI   C4A  394   6.626   7.633   8.320  0.1202 -0.2978  0.0759
   25loPI   C5A  395   6.712   7.697   7.898 -0.1056 -0.0759 -0.0903
   25loPI   C6A  396   6.617   7.924   7.533  0.1063 -0.2027 -0.2866
   25loPI   C1B  397   7.177   8.166   9.494 -0.2178 -0.3212 -0.1537
   25loPI   C2B  398   7.276   8.376   9.139  0.0061  0.0009  0.2793
   25loPI   C3B  399   7.299   8.454   8.747 -0.1287  0.2314  0.0667
   25loPI   C4B  400   7.035   8.422   8.451  0.0094 -0.2018  0.1886
   26loPI    C1  401   2.143   0.142  10.215 -0.0168  0.0681 -0.0860
   26loPI    C2  402   2.380  -0.086   9.988  0.2706  0.1784  0.0972
   26loPI    C3  403   2.421  -0.089  10.386 -0.2310 -0.0162  0.1552
   26loPI   PO4  404   2.098   0.374  10.079 -0.0265 -0.1790  0.1819
   26loPI   GL1  405   2.125   0.536   9.612  0.0921 -0.3221  0.2907
   26loPI   GL2  406   2.463   0.494   9.686  0.1418 -0.2462 -0.3544
   26loPI   C1A  407   2.026   0.639   9.182  0.1462  0.0327  0.0731
   26loPI   C2A  408   2.041   0.711   8.738  0.0474 -0.3412  0.2402
   26loPI   C3A  409   2.087   0.837   8.306 -0.0777  0.3214  0.0205
   26loPI   C4A  410   2.299   0.798   7.943 -0.0438  0.2818  0.1823
   26loPI   C5A  411   2.525   0.527   7.804 -0.0455  0.2493 -0.0096
   26loPI   C6A  412   2.729   0.265   7.490  0.0292  0.0974 -0.1672
   26loPI   C1B  413   2.479   0.452   9.239 -0.5129  0.0487  0.2073
   26loPI   C2B  414   2.455   0.479   8.852  0.1435 -0.0770 -0.1784
   26loPI   C3B  415   2.533   0.295   8.589 -0.0820 -0.5528  0.2264
   26loPI   C4B  416   2.763   0.254   8.147 -0.1335  0.0021 -0.0459
   27loPI    C1  417  15.539   4.166  10.357 -0.1648  0.0709  0.0772
   27loPI    C2  418  15.509   4.337  10.717  0.3576  0.0805  0.1240
   27loPI    C3  419  15.819   4.098  10.635  0.1333 -0.0896 -0.2540
   27loPI   PO4  420  15.343   4.084  10.299 -0.1665 -0.0242  0.0532
   27loPI   GL1  421  15.379   3.846   9.912 -0.1728 -0.1395 -0.0241
   27loPI   GL2  422  15.569   3.645   9.834 -0.1520 -0.1608 -0.3310
   27loPI   C1A  423  15.217   3.907   9.532 -0.1489  0.0993  0.0534
   27loPI   C2A  424  15.307   3.966   9.116 -0.0342 -0.0449  0.0352
   27loPI   C3A  425  15.667   4.020   8.816  0.0212  0.0415  0.0252
   27loPI   C4A  426  15.631   4.188   8.337  0.0435 -0.1648  0.1760
   27loPI   C5A  427  15.498   4.403   8.012 -0.1546 -0.2068  0.2629
   27loPI   C6A  428  15.414   4.462   7.495  0.1799 -0.3169 -0.3744
   27loPI   C1B  429  15.735   3.260   9.612  0.3094 -0.2334 -0.1117
   27loPI   C2B  430  15.609   3.062   9.356 -0.3241  0.0900 -0.0384
   27loPI   C3B  431  15.617   3.021   8.943 -0.2340  0.0457  0.0961
   27loPI   C4B  432  15.774   3.049   8.473  0.1512  0.1910  0.2102
   28loPI    C1  433   0.617   0.954  10.323  0.3694  0.1527  0.1856
   28loPI    C2  434   0.575   0.633  10.557 -0.2220 -0.0110 -0.1257
   28loPI    C3  435   0.797   0.942  10.680  0.2983 -0.4988  0.2116
   28loPI   PO4  436   0.694   0.824  10.096  0.3069  0.1785 -0.1163
   28loPI   GL1  437   0.622   0.744   9.701 -0.2750  0.2212 -0.0394
   28loPI   GL2  438   0.949   0.542   9.688  0.1369 -0.0785  0.0479
   28loPI   C1A  439   0.693   0.634   9.237  0.1305 -0.1435 -0.0553
   28loPI   C2A  440   0.713   0.510   8.804 -0.0862 -0.0151 -0.2589
   28loPI   C3A  441   0.637   0.499   8.343 -0.2112  0.1064  0.2730
   28loPI   C4A  442   0.629   0.306   7.978  0.2049  0.1637  0.0895
   28loPI   C5A  443   0.850   0.018   7.748 -0.0780  0.0027  0.1208
   28loPI   C6A  444   1.137  -0.307   7.464  0.2640  0.3745  0.1151
   28loPI   C1B  445   1.105   0.257   9.359 -0.2333 -0.1161 -0.0979
   28loPI   C2B  446   1.147   0.291   8.955 -0.1754 -0.2509  0.0077
   28loPI   C3B  447   1.102   0.269   8.500 -0.1240 -0.0888  0.3262
   28loPI   C4B  448   1.099   0.183   8.108  0.0351  0.0627 -0.1765
   29loPI    C1  449   5.533   6.689  10.098 -0.0591 -0.0566  0.0140
   29loPI    C2  450   5.706   6.331  10.139  0.3554  0.1222 -0.1171
   29loPI    C3  451   5.723   6.596  10.438 -0.0013  0.0169  0.0021
   29loPI   PO4  452   5.676   6.801   9.871 -0.0203 -0.0748  0.3010
   29loPI   GL1  453   5.849   6.817   9.530 -0.0500 -0.1390  0.1492
   29loPI   GL2  454   5.745   7.064   9.348  0.1004 -0.0563  0.1055
   29loPI   C1A  455   6.281   6.719   9.474 -0.0696 -0.2792 -0.1304
   29loPI   C2A  456   6.353   6.598   9.066 -0.0158  0.0550  0.0219
   29loPI   C3A  457   6.616   6.559   8.788  0.1651 -0.0180 -0.2182
   29loPI   C4A  458   6.582   6.519   8.345  0.0692  0.0409  0.0515
   29loPI   C5A  459   6.491   6.678   7.884 -0.1727 -0.1064 -0.1392
   29loPI   C6A  460   6.630   6.454   7.561  0.1814 -0.2378  0.0000
   29loPI   C1B  461   5.876   6.835   8.973  0.1845  0.0257 -0.0632
   29loPI   C2B  462   5.778   6.968   8.555 -0.2967  0.1984  0.1392
   29loPI   C3B  463   5.664   7.073   8.057  0.1117  0.0553  0.0146
   29loPI   C4B  464   5.773   7.488   7.827 -0.1437  0.2175 -0.1442
   30loPI    C1  465   2.579  11.879   9.881 -0.1555 -0.1328  0.1190
   30loPI    C2  466   2.669  12.268   9.859  0.0738 -0.1920 -0.0289
   30loPI    C3  467   2.572  12.105  10.211  0.2338 -0.0558  0.0793
   30loPI   PO4  468   2.731  11.809   9.622  0.2184 -0.1579 -0.0376
   30loPI   GL1  469   3.167  11.646   9.505 -0.0576 -0.1055 -0.2407
   30loPI   GL2  470   3.104  11.400   9.402  0.0152  0.0410  0.1259
   30loPI   C1A  471   3.098  11.960   9.134 -0.3674  0.1673 -0.0614
   30loPI   C2A  472   3.202  11.906   8.660  0.0326 -0.0100 -0.2693
   30loPI   C3A  473   3.132  11.883   8.254 -0.0372  0.1796 -0.1767
   30loPI   C4A  474   3.180  11.930   7.876  0.4124 -0.4552  0.2864
   30loPI   C5A  475   3.383  12.016   7.492 -0.0486 -0.0712 -0.0802
   30loPI   C6A  476   3.638  12.204   7.196 -0.0566  0.0142 -0.1504
   30loPI   C1B  477   3.277  11.491   9.012 -0.0164  0.2815 -0.1228
   30loPI   C2B  478   3.522  11.398   8.704  0.1775  0.6101 -0.1967
   30loPI   C3B  479   3.638  11.545   8.371 -0.3737 -0.0700 -0.1321
   30loPI   C4B  480   3.646  11.540   7.884 -0.0030 -0.2574 -0.0153
   31loPI    C1  481  17.634   1.159  10.268  0.1866  0.0233 -0.0091
   31loPI    C2  482  17.823   1.446  10.472 -0.0464  0.0425  0.1848
   31loPI    C3  483  17.902   1.061  10.549  0.3545  0.0489 -0.1591
   31loPI   PO4  484  17.600   1.257   9.991 -0.2361  0.0237 -0.0503
   31loPI   GL1  485  17.382   1.151   9.747  0.0313 -0.0537 -0.0212
   31loPI   GL2  486  17.118   1.253   9.715 -0.1259  0.1073 -0.0725
   31loPI   C1A  487  17.314   1.240   9.278  0.0758  0.0833 -0.1426
   31loPI   C2A  488  17.309   1.333   8.773  0.1593  0.3595 -0.0486
   31loPI   C3A  489  17.229   1.357   8.391 -0.0273 -0.2512 -0.0463
   31loPI   C4A  490  17.161   1.285   7.958  0.0573  0.1286  0.3549
   31loPI   C5A  491  17.434   1.001   7.733 -0.0480 -0.0605  0.0376
   31loPI   C6A  492  17.565   0.519   7.582  0.0440 -0.1648 -0.0199
   31loPI   C1B  493  16.845   1.450   9.285 -0.0725 -0.0381 -0.1658
   31loPI   C2B  494  16.724   1.482   8.866  0.0318  0.4787  0.1253
   31loPI   C3B  495  16.661   1.446   8.438  0.1528 -0.2050  0.0278
   31loPI   C4B  496  16.666   1.407   7.969 -0.0788  0.2354  0.1425
   32loPI    C1  497   0.718   7.982   9.650 -0.1740 -0.0257  0.2936
   32loPI    C2  498   0.616   7.744   9.345  0.0477 -0.0037  0.2001
   32loPI    C3  499   0.712   7.585   9.699  0.0441 -0.0445  0.1829
   32loPI   PO4  500   0.859   8.128   9.512  0.2949  0.2284 -0.2937
   32loPI   GL1  501   1.049   8.141   9.185 -0.0820 -0.0213 -0.1436
   32loPI   GL2  502   1.300   8.331   9.314  0.1337 -0.2277 -0.0433
   32loPI   C1A  503   1.286   8.015   8.703 -0.2342  0.1469 -0.0202
   32loPI   C2A  504   1.229   7.934   8.290  0.1394  0.0675  0.0412
   32loPI   C3A  505   1.226   7.667   7.960  0.0041  0.4056  0.3082
   32loPI   C4A  506   1.072   7.468   7.559 -0.1923 -0.1473 -0.0719
   32loPI   C5A  507   0.969   7.168   7.416 -0.1533 -0.2302  0.1420
   32loPI   C6A  508   1.090   6.851   7.090 -0.6071  0.2120 -0.1996
   32loPI   C1B  509   1.328   8.633   9.218  0.0002  0.3609  0.3445
   32loPI   C2B  510   1.355   8.828   8.790 -0.4085 -0.2045 -0.0409
   32loPI   C3B  511   1.356   8.879   8.399 -0.0203  0.1700  0.0027
   32loPI   C4B  512   1.103   8.881   8.059  0.3806 -0.2915 -0.0185
   33loPI    C1  513   8.296   0.997  10.092  0.0886 -0.0405 -0.2087
   33loPI    C2  514   8.067   1.012  10.420  0.1175  0.2104 -0.1977
   33loPI    C3  515   7.898   0.966  10.060  0.0710  0.1313 -0.1661
   33loPI   PO4  516   8.430   1.281  10.178 -0.3769  0.1105 -0.1628
   33loPI   GL1  517   8.551   1.660   9.948  0.1242 -0.0767  0.0198
   33loPI   GL2  518   8.886   1.860   9.814  0.0185  0.0834 -0.3945
   33loPI   C1A  519   8.455   1.494   9.510  0.1285 -0.1264 -0.1507
   33loPI   C2A  520   8.592   1.634   9.195  0.2320  0.1103 -0.0885
   33loPI   C3A  521   8.471   1.453   8.668 -0.1162 -0.1366  0.0870
   33loPI   C4A  522   8.749   1.294   8.306 -0.0314  0.0014 -0.0075
   33loPI   C5A  523   8.463   0.938   8.165 -0.0125  0.0469 -0.0303
   33loPI   C6A  524   8.398   0.897   7.777 -0.0203 -0.1990 -0.1286
   33loPI   C1B  525   9.360   1.713   9.683  0.3245 -0.0571 -0.1369
   33loPI   C2B  526   9.529   1.662   9.303  0.0639 -0.4882  0.0532
   33loPI   C3B  527   9.587   1.505   8.931 -0.2507 -0.2669  0.0492
   33loPI   C4B  528   9.419   1.128   8.804 -0.0660 -0.0738 -0.1658
   34loPI    C1  529   8.344   6.783   9.743 -0.1505 -0.3371  0.2831
   34loPI    C2  530   8.468   6.636  10.093 -0.0499 -0.2281  0.2937
   34loPI    C3  531   8.714   6.636   9.778 -0.0486 -0.0827  0.2940
   34loPI   PO4  532   8.134   6.773   9.708  0.0300  0.1892  0.1809
   34loPI   GL1  533   7.929   6.498   9.525 -0.0925  0.0155  0.1577
   34loPI   GL2  534   7.654   6.531   9.417 -0.1319  0.0475 -0.2234
   34loPI   C1A  535   8.194   6.456   9.080  0.0412 -0.2643 -0.2080
   34loPI   C2A  536   8.306   6.161   8.824 -0.1904  0.2888  0.2735
   34loPI   C3A  537   8.540   6.148   8.496 -0.0878 -0.3076  0.0573
   34loPI   C4A  538   8.760   6.186   8.149  0.1501 -0.0054  0.2829
   34loPI   C5A  539   8.964   6.392   7.794  0.1771 -0.0227 -0.0227
   34loPI   C6A  540   9.078   6.624   7.520 -0.2988 -0.1990 -0.3700
   34loPI   C1B  541   7.466   6.464   9.034  0.2535 -0.0884  0.2326
   34loPI   C2B  542   7.519   6.526   8.584 -0.1006  0.1713 -0.0868
   34loPI   C3B  543   7.727   6.542   8.184 -0.0312  0.0351  0.0326
   34loPI   C4B  544   7.834   6.983   7.986  0.2679  0.1903 -0.1190
   35loPI    C1  545  16.430   7.648  10.052 -0.0955  0.1831 -0.1034
   35loPI    C2  546  16.074   7.780  10.179 -0.2131 -0.1520 -0.0746
   35loPI    C3  547  16.402   7.848  10.397 -0.2836  0.0158 -0.0195
   35loPI   PO4  548  16.451   7.736   9.762 -0.1059  0.0159  0.0623
   35loPI   GL1  549  16.417   7.647   9.326 -0.0208 -0.5170  0.1308
   35loPI   GL2  550  16.088   7.574   9.189  0.3595 -0.1153 -0.2493
   35loPI   C1A  551  16.552   7.842   8.981  0.2927 -0.1649 -0.2057
   35loPI   C2A  552  16.569   8.004   8.582 -0.0295  0.2362  0.2039
   35loPI   C3A  553  16.327   8.042   8.050  0.3822 -0.0220  0.0539
   35loPI   C4A  554  16.265   8.035   7.702  0.4093 -0.0856  0.2855
   35loPI   C5A  555  16.104   7.795   7.487 -0.0772  0.2537 -0.0961
   35loPI   C6A  556  16.271   7.644   7.106 -0.1019 -0.1049  0.0845
   35loPI   C1B  557  16.118   7.676   8.824 -0.2090  0.1110  0.0550
   35loPI   C2B  558  15.821   7.667   8.407  0.0161  0.0065 -0.2298
   35loPI   C3B  559  15.522   7.507   8.156 -0.0137  0.1378  0.0912
   35loPI   C4B  560  15.492   7.025   8.038 -0.1325  0.1495 -0.1351
   36loPI    C1  561  11.548   4.874  10.520  0.2303 -0.2007  0.1451
   36loPI    C2  562  11.191   4.989  10.660  0.1959  0.1075 -0.1793
   36loPI    C3  563  11.526   5.120  10.834  0.1556 -0.1209  0.0781
   36loPI   PO4  564  11.535   4.800  10.220  0.0219 -0.2392 -0.4168
   36loPI   GL1  565  11.449   5.119   9.755 -0.0051  0.0708 -0.1399
   36loPI   GL2  566  11.536   4.781   9.715  0.1599  0.0809  0.1271
   36loPI   C1A  567  11.470   5.093   9.329  0.3175 -0.0828  0.1177
   36loPI   C2A  568  11.571   4.900   8.954 -0.1904 -0.0374 -0.2494
   36loPI   C3A  569  11.618   4.939   8.571  0.1098 -0.1039 -0.1082
   36loPI   C4A  570  11.418   4.936   8.319 -0.0421 -0.2228  0.3658
   36loPI   C5A  571  11.020   5.185   8.230 -0.1610 -0.1207  0.0174
   36loPI   C6A  572  10.675   5.410   8.157 -0.2446  0.0655  0.0673
   36loPI   C1B  573  11.226   4.579   9.419  0.0218  0.1805  0.4733
   36loPI   C2B  574  11.273   4.421   9.020 -0.0896 -0.0926  0.2188
   36loPI   C3B  575  11.383   4.527   8.628  0.1129 -0.0088  0.1649
   36loPI   C4B  576  11.517   4.382   8.270 -0.0435 -0.0346  0.1042
   37loPI    C1  577   7.720  16.493  10.296 -0.0182 -0.0675 -0.1126
   37loPI    C2  578   8.102  16.483  10.414 -0.1169  0.0907  0.2331
   37loPI    C3  579   7.810  16.521  10.685 -0.3654  0.2154 -0.0474
   37loPI   PO4  580   7.733  16.711  10.175 -0.3655  0.0617 -0.1738
   37loPI   GL1  581   7.858  16.997   9.754 -0.0467  0.1085 -0.1563
   37loPI   GL2  582   8.055  16.666   9.795 -0.0721 -0.0725 -0.2547
   37loPI   C1A  583   7.866  17.037   9.288  0.1608  0.0132  0.1657
   37loPI   C2A  584   7.827  17.002   8.826 -0.1453  0.0871  0.2303
   37loPI   C3A  585   8.058  17.053   8.384 -0.0216  0.2742 -0.0732
   37loPI   C4A  586   7.973  16.960   7.938 -0.2258  0.0277  0.4032
   37loPI   C5A  587   8.271  17.117   7.676 -0.1201 -0.0085  0.0140
   37loPI   C6A  588   8.336  17.283   7.399  0.3938  0.1063 -0.1365
   37loPI   C1B  589   8.234  16.643   9.549 -0.0149 -0.1592  0.1724
   37loPI   C2B  590   8.201  16.730   9.067  0.1478  0.3982  0.0493
   37loPI   C3B  591   8.380  16.802   8.732 -0.0486  0.2105  0.0501
   37loPI   C4B  592   8.744  17.092   8.462 -0.1144  0.0052 -0.0948
   38loPI    C1  593   9.902  17.127  10.612  0.2020  0.5071  0.3637
   38loPI    C2  594   9.532  17.278  10.624  0.0810  0.2491  0.0331
   38loPI    C3  595   9.633  16.978  10.868  0.1043  0.3842  0.1914
   38loPI   PO4  596   9.907  17.063  10.343 -0.1839 -0.3042 -0.4491
   38loPI   GL1  597  10.176  17.013  10.116 -0.4310  0.0665  0.1098
   38loPI   GL2  598  10.227  17.358  10.105  0.0482 -0.1221  0.4050
   38loPI   C1A  599  10.396  17.010   9.775  0.1500 -0.0292  0.0342
   38loPI   C2A  600  10.431  17.204   9.321 -0.0679 -0.0677 -0.2351
   38loPI   C3A  601  10.492  17.248   8.912  0.0185  0.1167  0.1783
   38loPI   C4A  602  10.635  17.161   8.507  0.2045  0.0587 -0.1575
   38loPI   C5A  603  10.688  16.936   8.097  0.0393  0.4240  0.1467
   38loPI   C6A  604  11.018  16.943   7.761  0.0170  0.0209  0.0935
   38loPI   C1B  605  10.266  17.524   9.693  0.0767  0.0694 -0.0727
   38loPI   C2B  606  10.450  17.752   9.338  0.1601 -0.1499 -0.0001
   38loPI   C3B  607  10.434  17.778   8.889 -0.3194  0.2688 -0.2574
   38loPI   C4B  608  10.680  17.668   8.538  0.0847  0.1840 -0.1191
   39loPI    C1  609  11.267   4.067  10.175 -0.1413 -0.1122 -0.1365
   39loPI    C2  610  11.377   4.144  10.552 -0.3808 -0.1994 -0.0470
   39loPI    C3  611  11.547   4.343  10.250 -0.1844 -0.1314  0.1059
   39loPI   PO4  612  11.104   3.857  10.232 -0.1231 -0.0712  0.0230
   39loPI   GL1  613  10.828   3.508  10.052 -0.2923 -0.5779  0.0512
   39loPI   GL2  614  10.632   3.232   9.974 -0.1296 -0.1777  0.0222
   39loPI   C1A  615  11.025   3.435   9.582  0.1903  0.2665 -0.1341
   39loPI   C2A  616  11.243   3.556   9.260 -0.2820 -0.2726 -0.2542
   39loPI   C3A  617  11.385   3.596   8.905  0.1810  0.0368 -0.1796
   39loPI   C4A  618  11.282   3.447   8.471 -0.2323  0.1172 -0.0090
   39loPI   C5A  619  11.352   3.316   8.176  0.2449 -0.0704  0.0967
   39loPI   C6A  620  11.354   3.627   7.821 -0.0520  0.0629 -0.1783
   39loPI   C1B  621  10.510   3.151   9.559  0.2365  0.3896  0.0513
   39loPI   C2B  622  10.380   3.360   9.196 -0.0632  0.0226  0.2051
   39loPI   C3B  623  10.432   3.587   8.868  0.1102 -0.0027  0.2299
   39loPI   C4B  624  10.522   3.568   8.455 -0.0954  0.1626  0.3259
   40loPI    C1  625  16.501   2.132  10.235 -0.0387  0.0689  0.0948
   40loPI    C2  626  16.346   2.430  10.453  0.0161 -0.0239  0.2629
   40loPI    C3  627  16.244   2.051  10.531  0.2085 -0.0743  0.2743
   40loPI   PO4  628  16.478   2.059   9.970 -0.1061 -0.1642 -0.2043
   40loPI   GL1  629  16.243   2.005   9.634  0.2051  0.1911 -0.0213
   40loPI   GL2  630  15.987   2.133   9.845  0.1529 -0.1378  0.0996
   40loPI   C1A  631  16.240   2.045   9.194  0.1763 -0.2131 -0.1025
   40loPI   C2A  632  16.066   2.132   8.752  0.0040  0.3268 -0.1380
   40loPI   C3A  633  15.971   2.157   8.427  0.0032  0.1186  0.0177
   40loPI   C4A  634  15.785   1.898   8.138  0.0684 -0.0027 -0.0935
   40loPI   C5A  635  15.536   1.551   7.886  0.1783  0.0885 -0.0008
   40loPI   C6A  636  15.061   1.351   8.060 -0.3366  0.3571  0.2938
   40loPI   C1B  637  15.991   2.440   9.527 -0.0004  0.1166 -0.1362
   40loPI   C2B  638  15.934   2.526   9.055  0.1220  0.2050  0.1071
   40loPI   C3B  639  15.947   2.623   8.615  0.2151 -0.1500  0.1591
   40loPI   C4B  640  15.948   2.569   8.139  0.1070 -0.0380  0.2524
   41loPI    C1  641  13.774   3.698  10.443  0.2078  0.0138 -0.0322
   41loPI    C2  642  14.016   3.394  10.537  0.0198 -0.1078  0.0671
   41loPI    C3  643  13.992   3.713  10.778 -0.0041 -0.1463  0.1159
   41loPI   PO4  644  13.526   3.641  10.418 -0.1469 -0.0185  0.2888
   41loPI   GL1  645  13.443   3.464   9.984  0.2370  0.1990  0.1022
   41loPI   GL2  646  13.344   3.776   9.992  0.0540 -0.0449  0.1047
   41loPI   C1A  647  13.357   3.216   9.443 -0.5142  0.2302 -0.1562
   41loPI   C2A  648  13.394   3.145   9.007 -0.2367 -0.0747 -0.1579
   41loPI   C3A  649  13.247   3.129   8.586  0.0266  0.1491  0.2761
   41loPI   C4A  650  13.395   2.977   8.114 -0.1504 -0.0176 -0.0079
   41loPI   C5A  651  13.710   2.591   8.019  0.1206 -0.1132 -0.0135
   41loPI   C6A  652  14.123   2.520   7.924  0.0763 -0.0431 -0.1322
   41loPI   C1B  653  13.250   3.746   9.596 -0.0068  0.0829 -0.4048
   41loPI   C2B  654  12.890   3.824   9.440 -0.3324  0.1251  0.3998
   41loPI   C3B  655  12.834   3.832   8.947 -0.1428  0.0439  0.1643
   41loPI   C4B  656  12.744   3.398   8.727 -0.0511 -0.1231  0.0108
   42loPI    C1  657   5.416   8.206  10.448 -0.0584 -0.0015 -0.2837
   42loPI    C2  658   5.746   8.098  10.647 -0.2382 -0.2545 -0.1177
   42loPI    C3  659   5.413   8.194  10.848 -0.2189  0.1687 -0.2782
   42loPI   PO4  660   5.291   8.096  10.264  0.1126 -0.2229 -0.1279
   42loPI   GL1  661   5.630   8.160   9.871  0.1362  0.1734  0.0189
   42loPI   GL2  662   5.971   8.183   9.643  0.1624 -0.1876  0.2129
   42loPI   C1A  663   5.391   7.909   9.569  0.1113  0.0558  0.3584
   42loPI   C2A  664   5.113   8.141   9.288 -0.0681  0.0715  0.2922
   42loPI   C3A  665   4.918   8.233   9.008 -0.1445  0.0396 -0.0861
   42loPI   C4A  666   4.845   8.472   8.711 -0.0989  0.2157 -0.0362
   42loPI   C5A  667   4.980   8.820   8.617 -0.1284  0.0908 -0.1255
   42loPI   C6A  668   5.094   9.075   8.945 -0.0083 -0.0560  0.1271
   42loPI   C1B  669   6.154   8.300   9.235 -0.2163 -0.0131 -0.2542
   42loPI   C2B  670   6.332   8.349   8.883 -0.2848  0.0257  0.2389
   42loPI   C3B  671   6.357   8.596   8.534 -0.1201  0.3346  0.0004
   42loPI   C4B  672   6.642   8.657   8.278 -0.0232 -0.0263 -0.2489
   43loPI    C1  673   3.961   8.956   9.887  0.0451 -0.0199  0.0546
   43loPI    C2  674   4.315   9.123   9.805  0.1499 -0.1178  0.2958
   43loPI    C3  675   4.219   9.033  10.182 -0.0989 -0.1704  0.2224
   43loPI   PO4  676   3.786   9.114   9.759  0.0067 -0.0494  0.1900
   43loPI   GL1  677   3.560   9.218   9.471  0.2687  0.1077  0.0461
   43loPI   GL2  678   3.215   9.027   9.471 -0.1863 -0.0637  0.0001
   43loPI   C1A  679   3.779   9.238   9.020 -0.1964  0.1567 -0.1764
   43loPI   C2A  680   3.823   9.331   8.509  0.1676 -0.3063  0.1819
   43loPI   C3A  681   3.745   9.303   8.148  0.1389 -0.0736 -0.0231
   43loPI   C4A  682   3.754   9.338   7.656  0.0144 -0.0030 -0.1568
   43loPI   C5A  683   3.525   9.419   7.305 -0.0599 -0.0056  0.0215
   43loPI   C6A  684   3.667   9.431   6.841  0.2798  0.4660  0.2849
   43loPI   C1B  685   3.137   8.910   9.093  0.0356  0.0767 -0.1241
   43loPI   C2B  686   3.250   8.877   8.611  0.1265 -0.0336  0.0206
   43loPI   C3B  687   3.462   8.923   8.323 -0.1733  0.1176  0.1414
   43loPI   C4B  688   3.682   8.898   7.885  0.1063 -0.1065 -0.0348
   44loPI    C1  689  16.892  17.889   9.974  0.1168  0.0367  0.0730
   44loPI    C2  690  16.798  17.553   9.778 -0.0146 -0.0263  0.2411
   44loPI    C3  691  17.167  17.703   9.751  0.0104 -0.1168  0.0678
   44loPI   PO4  692  16.673  18.004   9.973  0.0715 -0.0280 -0.0507
   44loPI   GL1  693  16.431  17.945   9.634 -0.1121  0.1122 -0.2472
   44loPI   GL2  694  16.476  18.229   9.580 -0.0924 -0.0754  0.2910
   44loPI   C1A  695  16.382  17.850   9.257 -0.0886 -0.0715  0.0314
   44loPI   C2A  696  16.266  18.033   8.788 -0.1616  0.1150  0.1227
   44loPI   C3A  697  16.227  18.384   8.504  0.0248  0.2877  0.2571
   44loPI   C4A  698  15.777  18.585   8.417  0.0454 -0.0897 -0.3611
   44loPI   C5A  699  15.414  18.746   8.523 -0.1198 -0.0125  0.4300
   44loPI   C6A  700  15.519  19.108   8.558  0.1779  0.1457  0.2360
   44loPI   C1B  701  16.327  18.371   9.178  0.0288  0.2592  0.1073
   44loPI   C2B  702  16.050  18.592   8.926  0.2200  0.1052 -0.4525
   44loPI   C3B  703  15.630  18.520   8.948  0.0087  0.0784 -0.0302
   44loPI   C4B  704  15.318  18.309   8.875  0.1950  0.0335  0.3247
   45loPI    C1  705  10.962  12.824  10.515 -0.3089  0.1747 -0.0660
   45loPI    C2  706  10.782  12.816  10.873 -0.0878  0.0987  0.0456
   45loPI    C3  707  10.763  12.497  10.631  0.0984 -0.0008  0.1598
   45loPI   PO4  708  11.191  12.904  10.518 -0.1751 -0.0668  0.1758
   45loPI   GL1  709  11.356  13.024  10.168 -0.2403 -0.1630 -0.1437
   45loPI   GL2  710  11.423  13.335  10.088 -0.5853  0.1090 -0.1295
   45loPI   C1A  711  11.604  12.857   9.869 -0.0807  0.0864  0.0449
   45loPI   C2A  712  11.759  12.573   9.618 -0.4249  0.1602  0.3293
   45loPI   C3A  713  11.741  12.564   9.154  0.3602  0.0688 -0.3493
   45loPI   C4A  714  11.458  12.623   8.730 -0.0562  0.3243 -0.1977
   45loPI   C5A  715  11.221  12.782   8.371  0.0887  0.1251  0.2487
   45loPI   C6A  716  10.824  12.676   8.264 -0.0026  0.4986 -0.2875
   45loPI   C1B  717  11.226  13.178   9.683 -0.1925  0.0184  0.3597
   45loPI   C2B  718  10.984  13.185   9.316  0.2092 -0.0677  0.4491
   45loPI   C3B  719  10.603  13.090   9.013  0.2017 -0.0762  0.2248
   45loPI   C4B  720  10.437  12.967   8.628 -0.0656  0.2839  0.1092
   46loPI    C1  721   6.350  14.638  10.201  0.0731  0.0317 -0.0206
   46loPI    C2  722   6.656  14.830  10.029  0.1996 -0.2102 -0.0691
   46loPI    C3  723   6.701  14.666  10.391  0.0243  0.0403  0.0693
   46loPI   PO4  724   6.171  14.746  10.124  0.0251  0.2192 -0.1145
   46loPI   GL1  725   6.038  14.749   9.700 -0.1619 -0.1408 -0.1199
   46loPI   GL2  726   6.393  15.000   9.602 -0.1495  0.0449  0.1069
   46loPI   C1A  727   6.045  14.644   9.371 -0.1640 -0.1311  0.0065
   46loPI   C2A  728   5.993  14.584   8.994 -0.3229 -0.0160  0.0492
   46loPI   C3A  729   5.954  14.410   8.481 -0.0166 -0.1697 -0.0201
   46loPI   C4A  730   5.949  14.276   7.976  0.1880  0.1086 -0.1918
   46loPI   C5A  731   6.244  14.454   7.625  0.1647 -0.0981  0.2110
   46loPI   C6A  732   6.376  14.545   7.259 -0.2345  0.2123 -0.1812
   46loPI   C1B  733   6.532  15.050   9.171  0.3588 -0.2267  0.2254
   46loPI   C2B  734   6.773  15.104   8.851 -0.0284  0.2609 -0.1604
   46loPI   C3B  735   6.923  15.336   8.592  0.0046  0.1213 -0.2148
   46loPI   C4B  736   7.057  15.458   8.140  0.0622  0.0047 -0.0503
   47loPI    C1  737  16.071   9.501   9.655  0.1018  0.0922  0.1291
   47loPI    C2  738  16.088   9.268   9.980  0.0294 -0.1274 -0.0221
   47loPI    C3  739  15.982   9.112   9.628 -0.2433  0.1822 -0.0817
   47loPI   PO4  740  16.182   9.684   9.714 -0.1194  0.0313 -0.0284
   47loPI   GL1  741  16.204   9.910   9.395  0.2039  0.0314  0.3021
   47loPI   GL2  742  16.070  10.064   9.159  0.1210 -0.1947 -0.1179
   47loPI   C1A  743  16.550   9.953   9.078  0.0190  0.1024 -0.0627
   47loPI   C2A  744  16.924   9.669   8.889 -0.1203 -0.1049  0.0725
   47loPI   C3A  745  17.087   9.898   8.539 -0.0447 -0.1382 -0.1277
   47loPI   C4A  746  17.156   9.991   8.058 -0.1218  0.3870  0.0807
   47loPI   C5A  747  17.358  10.117   7.660  0.1037  0.1613 -0.1442
   47loPI   C6A  748  17.426   9.925   7.328  0.0645 -0.2944 -0.7257
   47loPI   C1B  749  16.241  10.174   8.723  0.0541  0.2086  0.0288
   47loPI   C2B  750  16.229  10.133   8.331 -0.2081  0.0335 -0.0259
   47loPI   C3B  751  16.168  10.352   7.996  0.1704 -0.1383 -0.1624
   47loPI   C4B  752  16.527  10.467   7.841  0.0567  0.3468 -0.1227
   48loPI    C1  753   0.673  10.542   9.605 -0.0248 -0.2825  0.0657
   48loPI    C2  754   0.791  10.385   9.953 -0.1299  0.3997  0.4272
   48loPI    C3  755   0.984  10.700   9.800  0.0878 -0.0548 -0.2883
   48loPI   PO4  756   0.602  10.309   9.404 -0.1824  0.1178 -0.3682
   48loPI   GL1  757   0.720   9.982   9.241 -0.0419  0.1539 -0.0850
   48loPI   GL2  758   1.048  10.005   9.163  0.0791 -0.0076 -0.3574
   48loPI   C1A  759   0.539   9.868   8.856  0.2099  0.0704 -0.0809
   48loPI   C2A  760   0.475   9.845   8.338  0.0104 -0.0678 -0.1048
   48loPI   C3A  761   0.508  10.196   8.101 -0.3977 -0.1976  0.0149
   48loPI   C4A  762   0.697  10.394   7.781 -0.2739  0.0024 -0.2322
   48loPI   C5A  763   0.675  10.341   7.437 -0.1811  0.0335  0.0004
   48loPI   C6A  764   0.393  10.357   7.031 -0.3287  0.1040  0.0728
   48loPI   C1B  765   0.971  10.065   8.715  0.0391 -0.1189  0.0190
   48loPI   C2B  766   0.974   9.823   8.412  0.0164 -0.1006  0.0424
   48loPI   C3B  767   0.854   9.874   7.941 -0.1990  0.2070  0.2200
   48loPI   C4B  768   0.963   9.714   7.491  0.2182 -0.4230  0.1764
   49loPI    C1  769   6.268   3.977  10.237 -0.2126 -0.1268  0.0824
   49loPI    C2  770   6.646   4.107  10.225 -0.2794  0.0597 -0.0434
   49loPI    C3  771   6.353   4.353  10.342 -0.3668 -0.0742  0.0216
   49loPI   PO4  772   6.147   3.946  10.062  0.1664 -0.1651 -0.0292
   49loPI   GL1  773   6.326   3.843   9.547  0.0266 -0.0895  0.3412
   49loPI   GL2  774   6.393   3.609   9.483  0.0307  0.0787  0.1176
   49loPI   C1A  775   6.275   3.850   9.045 -0.0411 -0.0063  0.4720
   49loPI   C2A  776   6.400   3.772   8.758  0.2021 -0.1665 -0.0186
   49loPI   C3A  777   6.493   3.944   8.470  0.2140  0.2158  0.3352
   49loPI   C4A  778   6.681   3.990   8.169 -0.0352 -0.2185 -0.0529
   49loPI   C5A  779   6.809   4.114   7.786 -0.0679 -0.0869 -0.0033
   49loPI   C6A  780   7.044   4.481   7.761 -0.0532  0.0026 -0.3179
   49loPI   C1B  781   6.587   3.460   9.086 -0.4051  0.1739 -0.2981
   49loPI   C2B  782   6.712   3.361   8.682  0.1016 -0.0218 -0.0875
   49loPI   C3B  783   6.884   3.424   8.354  0.4780  0.3909 -0.1093
   49loPI   C4B  784   6.699   3.352   8.019 -0.1005 -0.2378 -0.1975
   50loPI    C1  785   5.222   2.007  10.233 -0.1661 -0.0835 -0.0003
   50loPI    C2  786   5.316   1.667  10.421  0.1185 -0.1180 -0.1992
   50loPI    C3  787   5.384   2.018  10.599 -0.1094 -0.1610 -0.0228
   50loPI   PO4  788   4.920   2.055  10.177  0.0116  0.0702 -0.0870
   50loPI   GL1  789   4.483   1.903   9.905  0.0525 -0.3794 -0.1830
   50loPI   GL2  790   4.652   2.159   9.730 -0.0039  0.2860  0.1890
   50loPI   C1A  791   4.563   1.633   9.678  0.0956 -0.1156  0.1181
   50loPI   C2A  792   4.875   1.598   9.310  0.6508 -0.0201  0.1791
   50loPI   C3A  793   5.038   1.426   8.960 -0.1100 -0.2241  0.1004
   50loPI   C4A  794   4.929   1.266   8.585 -0.0618 -0.0288 -0.0769
   50loPI   C5A  795   4.812   1.324   8.162 -0.1798  0.0573  0.3752
   50loPI   C6A  796   4.693   1.405   7.699  0.2246 -0.1281  0.0216
   50loPI   C1B  797   4.675   2.037   9.299 -0.0836 -0.0049  0.1550
   50loPI   C2B  798   4.760   1.855   8.885 -0.2088  0.3806 -0.0738
   50loPI   C3B  799   4.718   1.735   8.392 -0.1449  0.1065 -0.2249
   50loPI   C4B  800   4.802   1.808   8.008 -0.0873 -0.0873 -0.1863
   51loPI    C1  801   5.412   5.937  10.161  0.3177 -0.1286  0.2498
   51loPI    C2  802   5.268   5.590  10.299  0.2441 -0.1507  0.1199
   51loPI    C3  803   5.033   5.913  10.285  0.2074 -0.1856 -0.0882
   51loPI   PO4  804   5.493   5.875   9.903  0.1683 -0.2398  0.0078
   51loPI   GL1  805   5.292   5.829   9.559  0.1074  0.4000  0.0098
   51loPI   GL2  806   5.070   5.851   9.451  0.0204  0.3614 -0.2006
   51loPI   C1A  807   5.504   5.699   9.223  0.0177 -0.0663  0.1535
   51loPI   C2A  808   5.367   5.630   8.825 -0.0557 -0.0072 -0.1889
   51loPI   C3A  809   5.257   5.745   8.434  0.0429  0.1956 -0.0405
   51loPI   C4A  810   4.852   5.640   8.197 -0.0116 -0.2438 -0.1791
   51loPI   C5A  811   4.793   5.429   7.842  0.3816 -0.0652 -0.2824
   51loPI   C6A  812   4.874   5.241   7.519 -0.0859  0.2497  0.0505
   51loPI   C1B  813   5.166   6.050   9.089  0.0183 -0.3435  0.1279
   51loPI   C2B  814   5.499   6.104   8.910  0.2483  0.0170 -0.3497
   51loPI   C3B  815   5.661   6.066   8.588 -0.0730 -0.4150  0.1015
   51loPI   C4B  816   5.648   6.018   8.210  0.4146  0.0606 -0.0561
   52loPI    C1  817   0.845   9.128   9.768  0.0087  0.1859 -0.1045
   52loPI    C2  818   1.193   9.081   9.577 -0.0789 -0.0438 -0.2112
   52loPI    C3  819   1.141   9.391   9.824  0.1585  0.0588 -0.2870
   52loPI   PO4  820   0.649   9.018   9.557  0.2555  0.1033 -0.0864
   52loPI   GL1  821   0.588   8.872   9.120 -0.0503 -0.2657  0.1396
   52loPI   GL2  822   0.759   8.644   9.181  0.1632 -0.2213 -0.0829
   52loPI   C1A  823   0.517   9.092   8.790  0.0657 -0.0215 -0.2284
   52loPI   C2A  824   0.255   9.303   8.503 -0.0359 -0.1239  0.0756
   52loPI   C3A  825   0.088   9.317   8.132  0.0989 -0.0556 -0.0320
   52loPI   C4A  826   0.070   9.176   7.772 -0.1937 -0.0751  0.2673
   52loPI   C5A  827   0.428   9.098   7.470 -0.1237  0.0882 -0.3916
   52loPI   C6A  828   0.719   9.349   7.163  0.1775  0.2323 -0.0114
   52loPI   C1B  829   0.868   8.517   8.860 -0.4198 -0.1008 -0.0347
   52loPI   C2B  830   0.985   8.490   8.460 -0.0922  0.1272  0.0395
   52loPI   C3B  831   1.160   8.390   8.129 -0.1072  0.0153 -0.2309
   52loPI   C4B  832   1.398   8.622   7.790  0.1897 -0.3127  0.1131
   53loPI    C1  833   2.486   6.266   9.859  0.0415  0.0673  0.0021
   53loPI    C2  834   2.523   6.380   9.478  0.0428  0.1123  0.0158
   53loPI    C3  835   2.300   6.596   9.730 -0.1374 -0.0381 -0.0132
   53loPI   PO4  836   2.395   5.939   9.742  0.4351  0.0246  0.2029
   53loPI   GL1  837   2.248   5.550   9.468  0.0063  0.0753 -0.0948
   53loPI   GL2  838   2.100   5.269   9.465 -0.2775 -0.2190  0.5557
   53loPI   C1A  839   2.324   5.654   9.043 -0.0802  0.0976  0.2299
   53loPI   C2A  840   2.213   5.717   8.684 -0.0607 -0.0997  0.1695
   53loPI   C3A  841   2.283   5.748   8.202  0.0245 -0.0560 -0.0846
   53loPI   C4A  842   2.354   5.770   7.829 -0.5338  0.5736  0.0683
   53loPI   C5A  843   2.411   5.569   7.458  0.1151 -0.1419  0.1548
   53loPI   C6A  844   2.325   5.182   7.255  0.3071  0.1918 -0.2818
   53loPI   C1B  845   2.378   5.131   9.130 -0.0464 -0.1064  0.4902
   53loPI   C2B  846   2.577   5.310   8.767  0.1472  0.0570 -0.0765
   53loPI   C3B  847   2.446   5.307   8.380 -0.3099 -0.0551  0.0145
   53loPI   C4B  848   2.570   5.326   7.922  0.3338 -0.0541  0.1925
   54loPI    C1  849  14.633   8.412  10.273  0.3617  0.0902 -0.1456
   54loPI    C2  850  14.575   8.018  10.230 -0.2292  0.1604 -0.0784
   54loPI    C3  851  14.856   8.153  10.482 -0.2800 -0.2165  0.1876
   54loPI   PO4  852  14.632   8.521  10.006  0.2286  0.2489 -0.1773
   54loPI   GL1  853  14.510   8.346   9.639  0.3295  0.0786 -0.2257
   54loPI   GL2  854  14.432   8.137   9.479 -0.0679 -0.3625 -0.2528
   54loPI   C1A  855  14.533   8.663   9.344 -0.0178 -0.1788 -0.0948
   54loPI   C2A  856  14.409   8.553   8.874 -0.1547  0.2435  0.0894
   54loPI   C3A  857  14.384   8.380   8.501 -0.2682 -0.0468 -0.0996
   54loPI   C4A  858  14.292   8.204   8.044 -0.3770  0.0278 -0.2419
   54loPI   C5A  859  13.951   8.274   7.803  0.0189  0.2289 -0.0031
   54loPI   C6A  860  13.540   8.266   7.862  0.0663  0.0654 -0.1812
   54loPI   C1B  861  14.555   8.112   9.064  0.3458 -0.0584 -0.1929
   54loPI   C2B  862  14.697   8.049   8.699 -0.2412 -0.1226 -0.2854
   54loPI   C3B  863  14.499   7.822   8.329  0.0287  0.1489  0.2656
   54loPI   C4B  864  14.085   7.601   8.044 -0.0454 -0.0236 -0.0316
   55loPI    C1  865  12.679   9.518  10.320 -0.0416  0.1077  0.0801
   55loPI    C2  866  12.536   9.631  10.676 -0.0971 -0.0087  0.0951
   55loPI    C3  867  12.809   9.339  10.653 -0.1528 -0.0561  0.0361
   55loPI   PO4  868  12.415   9.583  10.134 -0.0759  0.3597  0.0604
   55loPI   GL1  869  12.103   9.466   9.755  0.0122  0.0277 -0.0025
   55loPI   GL2  870  11.942   9.681   9.725 -0.3815 -0.3467 -0.0806
   55loPI   C1A  871  12.081   9.368   9.350  0.1569 -0.1762 -0.1750
   55loPI   C2A  872  12.220   9.480   9.002  0.3311 -0.1546 -0.0643
   55loPI   C3A  873  12.112   9.384   8.558  0.1975 -0.2555  0.2593
   55loPI   C4A  874  12.244   9.307   8.186 -0.0158 -0.0746 -0.0147
   55loPI   C5A  875  12.244   9.487   7.762  0.1679  0.1618  0.2849
   55loPI   C6A  876  12.367   9.889   7.595  0.1689  0.1488 -0.0961
   55loPI   C1B  877  11.916   9.837   9.340  0.2142 -0.2339  0.0073
   55loPI   C2B  878  11.877   9.788   8.958  0.1747 -0.0078  0.4055
   55loPI   C3B  879  12.073   9.907   8.516  0.1093  0.2914  0.2341
   55loPI   C4B  880  12.211   9.831   8.109 -0.1856 -0.1745 -0.2903
   56loPI    C1  881  17.717  16.448  10.094  0.0536  0.0263 -0.0321
   56loPI    C2  882  17.731  16.239  10.435 -0.2870  0.0516  0.0010
   56loPI    C3  883  17.936  16.581  10.401  0.1464 -0.2015  0.0022
   56loPI   PO4  884  17.596  16.343   9.918  0.0912 -0.0691  0.1966
   56loPI   GL1  885  17.605  16.073   9.602 -0.2192 -0.0816  0.1022
   56loPI   GL2  886  17.188  15.848   9.565  0.1431  0.1776  0.2376
   56loPI   C1A  887  17.706  16.274   9.232  0.0574  0.0685 -0.1397
   56loPI   C2A  888  17.871  16.373   8.835  0.0067 -0.0020  0.0158
   56loPI   C3A  889  18.010  16.176   8.481 -0.0051  0.0363  0.2211
   56loPI   C4A  890  18.238  16.347   8.122 -0.1036  0.1946 -0.0563
   56loPI   C5A  891  18.408  16.742   7.937 -0.0630  0.0118 -0.0841
   56loPI   C6A  892  18.214  17.047   7.847 -0.2944 -0.1459  0.1123
   56loPI   C1B  893  17.235  16.120   9.204  0.0889  0.0711  0.0477
   56loPI   C2B  894  17.327  16.416   8.847  0.1930 -0.1642 -0.1489
   56loPI   C3B  895  17.551  16.336   8.409  0.0639 -0.1356  0.0574
   56loPI   C4B  896  17.722  16.260   8.038  0.0006  0.0123  0.0424
   57loPI    C1  897  14.639   3.702  10.660 -0.0050 -0.2290  0.0226
   57loPI    C2  898  14.628   3.890  11.013 -0.0361 -0.2350  0.0247
   57loPI    C3  899  14.895   3.600  10.950  0.0118 -0.1903  0.0214
   57loPI   PO4  900  14.430   3.745  10.529 -0.0388 -0.1213 -0.0402
   57loPI   GL1  901  14.382   3.656  10.161 -0.0820  0.0567  0.0630
   57loPI   GL2  902  14.180   3.909  10.032  0.0004  0.1154 -0.1029
   57loPI   C1A  903  14.324   3.377   9.767 -0.3007  0.1981 -0.0301
   57loPI   C2A  904  14.105   3.343   9.444 -0.1332 -0.1020 -0.0178
   57loPI   C3A  905  14.214   3.221   8.970  0.1158  0.0705  0.0581
   57loPI   C4A  906  14.250   3.173   8.517 -0.4852 -0.0913  0.0664
   57loPI   C5A  907  14.174   3.140   8.099 -0.2118 -0.2984  0.0190
   57loPI   C6A  908  14.093   3.037   7.683  0.1392 -0.0394  0.3383
   57loPI   C1B  909  13.858   3.779   9.788 -0.1161 -0.1641  0.2700
   57loPI   C2B  910  13.689   3.649   9.434 -0.1093 -0.2027 -0.1081
   57loPI   C3B  911  13.810   3.476   9.016 -0.1297  0.0182 -0.1102
   57loPI   C4B  912  13.725   3.441   8.614 -0.0871 -0.3287  0.1688
   58loPI    C1  913  13.975   5.902  10.204  0.1015  0.0416 -0.0641
   58loPI    C2  914  13.934   6.186  10.483  0.0310  0.1096 -0.1430
   58loPI    C3  915  14.172   5.871  10.550 -0.2345 -0.0385  0.1246
   58loPI   PO4  916  13.951   6.068  10.017 -0.2187  0.1051 -0.2662
   58loPI   GL1  917  14.106   6.153   9.582  0.0705 -0.4844 -0.0010
   58loPI   GL2  918  14.322   5.934   9.648  0.0356 -0.0794  0.0327
   58loPI   C1A  919  13.936   5.868   9.261 -0.4330  0.2528 -0.0492
   58loPI   C2A  920  13.793   5.995   8.833  0.0636  0.0231  0.1998
   58loPI   C3A  921  13.765   6.111   8.311  0.1457 -0.1150 -0.4404
   58loPI   C4A  922  13.620   6.133   7.847  0.2570 -0.2090 -0.2281
   58loPI   C5A  923  13.235   6.249   7.690 -0.0240  0.3453 -0.2645
   58loPI   C6A  924  13.157   6.650   7.887 -0.2097  0.5051 -0.3183
   58loPI   C1B  925  14.406   5.655   9.358  0.0851 -0.0073 -0.3235
   58loPI   C2B  926  14.427   5.300   9.097 -0.0085  0.0468 -0.1830
   58loPI   C3B  927  14.421   5.196   8.763  0.1713 -0.0543  0.2968
   58loPI   C4B  928  14.408   5.367   8.381 -0.0872  0.0666 -0.2531
   59loPI    C1  929   0.153   5.648   9.426  0.1831 -0.1278  0.0585
   59loPI    C2  930  -0.084   5.546   9.121 -0.0132 -0.1415  0.2132
   59loPI    C3  931  -0.183   5.441   9.494  0.0488  0.1670  0.3190
   59loPI   PO4  932   0.369   5.794   9.268 -0.2853 -0.2606 -0.1226
   59loPI   GL1  933   0.432   5.894   8.818  0.2140  0.0121 -0.1369
   59loPI   GL2  934   0.614   5.611   8.897 -0.0411 -0.2189  0.2705
   59loPI   C1A  935   0.014   5.633   8.637  0.0471  0.1324 -0.0756
   59loPI   C2A  936   0.065   5.715   8.264  0.1422 -0.1295  0.0523
   59loPI   C3A  937   0.048   5.836   7.864  0.3012 -0.2684 -0.1225
   59loPI   C4A  938   0.193   5.860   7.370  0.1146  0.0803 -0.3887
   59loPI   C5A  939   0.261   5.522   7.093 -0.1215 -0.2693  0.0734
   59loPI   C6A  940   0.405   5.272   6.797  0.0354  0.0565 -0.2872
   59loPI   C1B  941   0.634   5.615   8.415  0.2117  0.2491 -0.0731
   59loPI   C2B  942   0.457   5.476   8.094  0.2294  0.2412  0.0823
   59loPI   C3B  943   0.342   5.362   7.608  0.1789  0.0560 -0.1160
   59loPI   C4B  944   0.604   5.043   7.247  0.0612  0.2640  0.0679
   60loPI    C1  945   5.375  11.239  10.109  0.0095  0.1374  0.0005
   60loPI    C2  946   5.440  11.360  10.485  0.2585 -0.0414  0.0179
   60loPI    C3  947   5.258  11.011  10.415  0.0869  0.0563 -0.0298
   60loPI   PO4  948   5.316  11.440  10.024  0.0291 -0.2650 -0.0173
   60loPI   GL1  949   5.010  11.700   9.583 -0.1179  0.1490  0.0284
   60loPI   GL2  950   4.940  11.439   9.491 -0.1688 -0.1914  0.0069
   60loPI   C1A  951   5.150  11.806   9.183  0.3254  0.0962  0.0581
   60loPI   C2A  952   5.373  11.928   8.857  0.2276 -0.0204 -0.0581
   60loPI   C3A  953   5.577  11.939   8.439  0.2745  0.1165  0.0634
   60loPI   C4A  954   5.852  11.943   8.072  0.0558 -0.1480 -0.0451
   60loPI   C5A  955   6.210  11.676   7.889  0.0665  0.1286  0.2863
   60loPI   C6A  956   6.604  11.650   7.717 -0.2076  0.0838 -0.1691
   60loPI   C1B  957   4.848  11.328   9.113 -0.0575  0.0216 -0.1349
   60loPI   C2B  958   4.867  11.508   8.755  0.0249 -0.4873 -0.2117
   60loPI   C3B  959   5.067  11.729   8.423  0.2272 -0.1080  0.1565
   60loPI   C4B  960   5.328  11.788   7.995  0.0398 -0.2173  0.1658
   61loPI    C1  961  14.990   0.549  10.304  0.0452  0.1390  0.0980
   61loPI    C2  962  14.942   0.897  10.113 -0.2076 -0.0225 -0.1415
   61loPI    C3  963  14.852   0.867  10.502  0.0564  0.2407 -0.0562
   61loPI   PO4  964  15.129   0.421  10.033 -0.0199 -0.0894  0.0488
   61loPI   GL1  965  15.073   0.046   9.777  0.0490  0.0240 -0.0448
   61loPI   GL2  966  14.770  -0.018   9.538  0.0918  0.2298 -0.1522
   61loPI   C1A  967  15.158  -0.040   9.289 -0.0561 -0.0860  0.1250
   61loPI   C2A  968  15.020   0.172   8.848 -0.1769  0.1141  0.1676
   61loPI   C3A  969  15.066   0.468   8.472  0.2057 -0.0017  0.1783
   61loPI   C4A  970  15.225   0.708   8.166 -0.1191  0.0613 -0.0647
   61loPI   C5A  971  15.483   1.060   8.022  0.1050 -0.0026  0.2582
   61loPI   C6A  972  15.792   1.361   8.294  0.2532  0.1030  0.1245
   61loPI   C1B  973  14.658   0.212   9.172  0.1673  0.2334 -0.0711
   61loPI   C2B  974  14.591   0.410   8.821  0.1482 -0.1311 -0.0231
   61loPI   C3B  975  14.407   0.507   8.431 -0.1433 -0.1004 -0.0261
   61loPI   C4B  976  14.265   0.704   8.015  0.4051  0.1012  0.7806
   62loPI    C1  977  17.782  14.636   9.919  0.3566  0.0188  0.0956
   62loPI    C2  978  17.634  14.572  10.285  0.1283  0.0792  0.0154
   62loPI    C3  979  18.027  14.536  10.219  0.1792  0.1304  0.2798
   62loPI   PO4  980  17.672  14.487   9.779  0.0118 -0.1706  0.0312
   62loPI   GL1  981  17.718  14.527   9.356  0.1487  0.1945  0.2260
   62loPI   GL2  982  18.018  14.634   9.433 -0.1883  0.0905 -0.0158
   62loPI   C1A  983  17.411  14.702   9.114  0.1375 -0.1298  0.0367
   62loPI   C2A  984  17.171  14.831   8.689 -0.2727  0.1871  0.0039
   62loPI   C3A  985  17.105  15.099   8.432 -0.1871  0.0543 -0.1566
   62loPI   C4A  986  17.130  15.196   8.007  0.0627 -0.1503 -0.3932
   62loPI   C5A  987  17.176  15.377   7.577  0.1854 -0.1268  0.0095
   62loPI   C6A  988  17.404  15.468   7.257 -0.0553  0.4034  0.0623
   62loPI   C1B  989  17.923  14.840   9.029 -0.0431  0.1025  0.0907
   62loPI   C2B  990  17.732  14.749   8.652  0.0674  0.3422 -0.0625
   62loPI   C3B  991  17.573  15.108   8.310  0.0830  0.0534 -0.0084
   62loPI   C4B  992  17.465  15.510   7.990 -0.3656 -0.2127 -0.4984
   63loPI    C1  993  12.059   8.342  10.230  0.0148  0.0015 -0.0065
   63loPI    C2  994  11.861   8.110  10.489  0.0616 -0.0861 -0.0486
   63loPI    C3  995  12.078   8.419  10.622 -0.0036 -0.0641  0.0074
   63loPI   PO4  996  11.918   8.355  10.034  0.2377 -0.0820 -0.2731
   63loPI   GL1  997  11.934   8.570   9.643  0.3137  0.3483 -0.0536
   63loPI   GL2  998  12.195   8.738   9.669 -0.0327  0.1006  0.2914
   63loPI   C1A  999  12.167   8.427   9.303 -0.1835 -0.3800  0.1305
   63loPI   C2A 1000  12.263   8.513   8.867 -0.0208 -0.1889 -0.1489
   63loPI   C3A 1001  12.065   8.514   8.478 -0.0347  0.1191 -0.0670
   63loPI   C4A 1002  11.984   8.571   7.987  0.2796 -0.2312 -0.1524
   63loPI   C5A 1003  11.630   8.647   7.658  0.1865  0.1376  0.2907
   63loPI   C6A 1004  11.299   8.627   7.489  0.1041 -0.2749 -0.1101
   63loPI   C1B 1005  12.494   8.976   9.441  0.1459  0.2509 -0.0526
   63loPI   C2B 1006  12.394   8.989   9.062  0.0649  0.1883 -0.0629
   63loPI   C3B 1007  12.349   8.970   8.590  0.0985 -0.2504  0.1319
   63loPI   C4B 1008  12.361   8.829   8.138 -0.0779  0.0033  0.0982
   64loPI    C1 1009   4.618   5.902  10.020 -0.0286  0.0245 -0.2338
   64loPI    C2 1010   4.271   6.006   9.849 -0.0558 -0.0313 -0.2125
   64loPI    C3 1011   4.341   6.100  10.231  0.0329  0.1538 -0.2733
   64loPI   PO4 1012   4.823   5.991   9.858 -0.0313  0.3528 -0.1752
   64loPI   GL1 1013   4.911   6.353   9.582  0.1883 -0.2896 -0.1721
   64loPI   GL2 1014   4.503   6.366   9.523  0.0038 -0.1187 -0.0420
   64loPI   C1A 1015   4.827   6.496   9.126  0.1381  0.0643 -0.0120
   64loPI   C2A 1016   5.030   6.444   8.681  0.4890 -0.3851 -0.1388
   64loPI   C3A 1017   5.249   6.274   8.358  0.1007 -0.0048 -0.0525
   64loPI   C4A 1018   5.275   5.951   7.929 -0.3382 -0.2613  0.4431
   64loPI   C5A 1019   5.288   5.680   7.722  0.0637 -0.0146 -0.0798
   64loPI   C6A 1020   5.378   5.347   7.459  0.0268  0.1633  0.3080
   64loPI   C1B 1021   4.360   6.336   9.083  0.4241  0.3147  0.0120
   64loPI   C2B 1022   4.514   6.400   8.733 -0.0438  0.0644 -0.0056
   64loPI   C3B 1023   4.340   6.333   8.268  0.1214 -0.1489 -0.1431
   64loPI   C4B 1024   4.373   6.487   7.827  0.0502 -0.0661 -0.0233
   65loPI    C1 1025  14.868   1.984  10.380  0.0230 -0.1837  0.0469
   65loPI    C2 1026  14.873   1.990  10.780 -0.0170  0.0081  0.0454
   65loPI    C3 1027  14.554   2.128  10.582  0.0379 -0.0068 -0.0540
   65loPI   PO4 1028  15.069   2.171  10.310 -0.0398  0.0047 -0.0556
   65loPI   GL1 1029  15.447   2.333  10.028  0.1588  0.1272 -0.0987
   65loPI   GL2 1030  15.035   2.365   9.898 -0.1709  0.0264 -0.0546
   65loPI   C1A 1031  15.430   2.530   9.611  0.0273 -0.4514 -0.0236
   65loPI   C2A 1032  15.398   2.604   9.163  0.1199  0.0201  0.0555
   65loPI   C3A 1033  15.395   2.537   8.754 -0.0103  0.1313  0.3915
   65loPI   C4A 1034  15.522   2.603   8.356  0.2615 -0.1250 -0.0790
   65loPI   C5A 1035  15.563   2.316   7.961  0.0189 -0.1644  0.0640
   65loPI   C6A 1036  15.490   2.017   7.640  0.0092 -0.0122  0.1932
   65loPI   C1B 1037  14.803   2.385   9.629  0.1043  0.2546  0.0902
   65loPI   C2B 1038  14.631   2.527   9.316 -0.2323  0.0981  0.0460
   65loPI   C3B 1039  14.571   2.952   9.121  0.0136 -0.1320  0.0664
   65loPI   C4B 1040  14.652   3.124   9.449 -0.1296 -0.1312  0.2328
   66loPI    C1 1041  15.891  17.957  10.253  0.1010  0.1100 -0.0637
   66loPI    C2 1042  15.670  17.983  10.586  0.1556 -0.0927 -0.0103
   66loPI    C3 1043  15.622  18.251  10.293  0.0093  0.0053  0.1020
   66loPI   PO4 1044  15.918  17.739  10.205 -0.0263  0.2101 -0.2163
   66loPI   GL1 1045  15.839  17.709   9.745 -0.0085 -0.0990  0.0978
   66loPI   GL2 1046  16.010  17.590   9.617  0.2752 -0.1196 -0.0732
   66loPI   C1A 1047  15.973  18.046   9.479  0.1511 -0.0702 -0.2285
   66loPI   C2A 1048  15.841  18.114   9.095 -0.0560 -0.0035  0.0899
   66loPI   C3A 1049  15.749  18.105   8.585 -0.3650 -0.0029 -0.0208
   66loPI   C4A 1050  15.884  18.205   8.111  0.0216  0.0413 -0.0197
   66loPI   C5A 1051  16.263  18.320   7.895 -0.5411 -0.0489  0.0167
   66loPI   C6A 1052  16.340  18.473   7.442 -0.0959  0.4640  0.1572
   66loPI   C1B 1053  16.001  17.540   9.198 -0.2795 -0.0479  0.0267
   66loPI   C2B 1054  15.860  17.204   8.841 -0.2251 -0.0827 -0.2041
   66loPI   C3B 1055  15.416  16.943   8.673  0.0766 -0.1404  0.1153
   66loPI   C4B 1056  15.072  16.873   8.997 -0.1754  0.1716 -0.0213
   67loPI    C1 1057  16.524   9.111   9.813  0.0275  0.0737 -0.0017
   67loPI    C2 1058  16.675   9.459   9.938  0.0071  0.0113  0.1995
   67loPI    C3 1059  16.665   9.145  10.185  0.1467 -0.1710 -0.0224
   67loPI   PO4 1060  16.617   9.041   9.508  0.3466  0.1139  0.4277
   67loPI   GL1 1061  16.830   8.672   9.353  0.0888 -0.1200  0.0872
   67loPI   GL2 1062  16.797   8.815   9.088  0.1079 -0.1259 -0.0296
   67loPI   C1A 1063  17.106   8.404   9.082 -0.3268 -0.0343 -0.1275
   67loPI   C2A 1064  17.150   8.107   8.699 -0.0034  0.1813 -0.0560
   67loPI   C3A 1065  17.167   8.081   8.301 -0.2752 -0.1284 -0.2706
   67loPI   C4A 1066  17.233   8.085   7.914 -0.0853  0.2438  0.1524
   67loPI   C5A 1067  17.126   8.265   7.427 -0.3482  0.4440 -0.0082
   67loPI   C6A 1068  17.049   8.656   7.358  0.1450 -0.0978  0.1063
   67loPI   C1B 1069  16.726   8.901   8.723  0.2519  0.2559  0.0847
   67loPI   C2B 1070  16.976   8.867   8.280  0.1919  0.2129  0.2836
   67loPI   C3B 1071  16.724   8.816   7.800 -0.3336 -0.0702 -0.0678
   67loPI   C4B 1072  16.507   8.502   7.371 -0.0974 -0.3425 -0.0400
   68loPI    C1 1073  17.156   2.826  10.349  0.1578  0.0156 -0.0769
   68loPI    C2 1074  17.205   2.587  10.666 -0.0374  0.2008  0.0960
   68loPI    C3 1075  16.837   2.684  10.543  0.0356  0.0666 -0.2387
   68loPI   PO4 1076  17.347   2.618  10.097  0.1529 -0.1182  0.0992
   68loPI   GL1 1077  17.166   2.509   9.665  0.1027  0.0650  0.2963
   68loPI   GL2 1078  17.181   2.275   9.540 -0.2306  0.0546 -0.2026
   68loPI   C1A 1079  16.943   2.734   9.331 -0.2266 -0.0158  0.3128
   68loPI   C2A 1080  17.132   2.891   8.967  0.2431 -0.2033 -0.1035
   68loPI   C3A 1081  17.215   3.094   8.547 -0.0529 -0.0674 -0.0348
   68loPI   C4A 1082  17.199   3.142   8.162 -0.0795  0.0552  0.0865
   68loPI   C5A 1083  17.357   3.069   7.676  0.1133  0.0020 -0.0683
   68loPI   C6A 1084  17.158   3.022   7.305  0.1229 -0.3818  0.2548
   68loPI   C1B 1085  17.054   2.276   9.104  0.2334 -0.1666  0.0962
   68loPI   C2B 1086  16.978   2.415   8.706 -0.5105 -0.0601  0.0523
   68loPI   C3B 1087  16.833   2.299   8.208  0.0274 -0.2403  0.1871
   68loPI   C4B 1088  16.713   2.196   7.743  0.4701  0.0883 -0.1223
   69loPI    C1 1089   1.779   6.639   9.869 -0.0084  0.2303  0.0610
   69loPI    C2 1090   1.404   6.541   9.971 -0.0028 -0.0226 -0.1511
   69loPI    C3 1091   1.597   6.829  10.170 -0.1831 -0.1332  0.1910
   69loPI   PO4 1092   1.747   6.673   9.615 -0.3497  0.0403  0.1141
   69loPI   GL1 1093   1.582   6.591   9.221 -0.0311  0.2492 -0.0921
   69loPI   GL2 1094   1.638   6.900   9.178  0.0955 -0.0844  0.1993
   69loPI   C1A 1095   1.526   6.622   8.739 -0.1836  0.3525  0.0420
   69loPI   C2A 1096   1.584   6.504   8.332  0.0067 -0.0032 -0.0846
   69loPI   C3A 1097   1.216   6.634   8.014  0.1061 -0.1143  0.3189
   69loPI   C4A 1098   1.002   6.730   7.630  0.2030  0.0950  0.0611
   69loPI   C5A 1099   0.823   6.482   7.324  0.1149  0.0335 -0.4796
   69loPI   C6A 1100   0.574   6.125   7.270 -0.0521 -0.0022  0.6154
   69loPI   C1B 1101   1.440   7.080   8.916 -0.3562  0.1969 -0.1694
   69loPI   C2B 1102   1.431   7.038   8.511 -0.1782  0.0798 -0.2234
   69loPI   C3B 1103   1.649   6.949   8.128  0.4801  0.2225  0.0449
   69loPI   C4B 1104   1.873   6.976   7.638 -0.0177 -0.0109  0.1880
   70loPI    C1 1105  10.834   8.483  10.296  0.1990 -0.0484  0.1094
   70loPI    C2 1106  10.706   8.694  10.611  0.0948  0.0774 -0.0162
   70loPI    C3 1107  10.612   8.810  10.240  0.3074 -0.0089 -0.0990
   70loPI   PO4 1108  10.872   8.196  10.289  0.2383 -0.0333 -0.1132
   70loPI   GL1 1109  11.079   8.065   9.963 -0.1405  0.2588 -0.1333
   70loPI   GL2 1110  11.260   8.058   9.677 -0.0324 -0.0806  0.0014
   70loPI   C1A 1111  10.731   7.939   9.613 -0.0486  0.1501  0.0447
   70loPI   C2A 1112  10.808   7.915   9.194 -0.0290  0.0419 -0.1547
   70loPI   C3A 1113  10.970   7.996   8.733  0.2087  0.1294  0.1794
   70loPI   C4A 1114  11.297   7.905   8.466 -0.3302 -0.2504  0.2739
   70loPI   C5A 1115  11.383   7.840   8.010 -0.1246  0.0184 -0.1111
   70loPI   C6A 1116  11.306   8.140   7.783 -0.1547  0.1022 -0.1790
   70loPI   C1B 1117  11.301   8.051   9.186 -0.0527 -0.1112  0.1089
   70loPI   C2B 1118  11.319   8.325   8.825  0.0515  0.1035  0.1383
   70loPI   C3B 1119  11.210   8.388   8.466  0.2959 -0.1057  0.0427
   70loPI   C4B 1120  10.967   8.067   8.160  0.1098  0.2111 -0.1584
   71loPI    C1 1121   5.342   0.743  10.497 -0.0262 -0.1258 -0.0131
   71loPI    C2 1122   5.205   0.977  10.792  0.1527 -0.0057 -0.0237
   71loPI    C3 1123   5.413   0.646  10.879  0.2924  0.0833 -0.0149
   71loPI   PO4 1124   5.117   0.704  10.303 -0.1099  0.0282  0.0419
   71loPI   GL1 1125   5.265   0.869   9.834  0.2407 -0.1639  0.3665
   71loPI   GL2 1126   4.955   0.639   9.796  0.2824  0.2347 -0.2347
   71loPI   C1A 1127   5.367   1.160   9.440 -0.1020 -0.0325  0.3287
   71loPI   C2A 1128   5.604   1.155   9.054 -0.1017  0.2244  0.1086
   71loPI   C3A 1129   5.914   0.829   8.801  0.2584  0.2787 -0.1792
   71loPI   C4A 1130   6.176   0.708   8.467  0.1115  0.2262  0.0629
   71loPI   C5A 1131   6.528   0.501   8.610 -0.2255 -0.0513 -0.0774
   71loPI   C6A 1132   6.983   0.528   8.534 -0.0511  0.0100  0.0280
   71loPI   C1B 1133   5.000   0.555   9.400 -0.1630  0.0354 -0.1297
   71loPI   C2B 1134   4.966   0.463   9.007  0.1335 -0.2399  0.1182
   71loPI   C3B 1135   4.958   0.600   8.610  0.0073 -0.1388 -0.0291
   71loPI   C4B 1136   5.081   0.402   8.319  0.2506  0.1635  0.0330
   72loPI    C1 1137   2.009   5.016   9.963 -0.0325  0.0650  0.1920
   72loPI    C2 1138   2.378   4.966  10.110 -0.0876 -0.0109  0.3060
   72loPI    C3 1139   2.075   5.052  10.356 -0.0615  0.5401  0.1593
   72loPI   PO4 1140   1.996   4.830   9.763 -0.0924 -0.0180  0.0744
   72loPI   GL1 1141   1.943   4.575   9.371 -0.0139  0.0942 -0.2681
   72loPI   GL2 1142   1.781   4.874   9.277  0.1702 -0.0758  0.0439
   72loPI   C1A 1143   2.022   4.325   9.045  0.2640  0.0139 -0.1922
   72loPI   C2A 1144   1.956   4.301   8.613  0.2538  0.1627  0.0140
   72loPI   C3A 1145   2.084   4.003   8.189  0.4299  0.0249  0.0116
   72loPI   C4A 1146   2.236   3.671   7.886 -0.0155  0.0367 -0.0876
   72loPI   C5A 1147   2.182   3.363   7.593  0.0679  0.3712  0.1651
   72loPI   C6A 1148   2.327   2.922   7.303  0.1061 -0.2229 -0.0898
   72loPI   C1B 1149   1.992   4.865   8.889 -0.0509  0.2752  0.2638
   72loPI   C2B 1150   2.032   4.812   8.443 -0.0983 -0.4667 -0.1393
   72loPI   C3B 1151   2.250   4.937   8.095 -0.1402 -0.0853  0.0765
   72loPI   C4B 1152   2.386   4.891   7.661  0.2994 -0.0834  0.1052
   73loPI    C1 1153   0.370   9.597   9.648 -0.0583 -0.0112 -0.0461
   73loPI    C2 1154   0.219   9.946   9.524 -0.2622  0.0498  0.3581
   73loPI    C3 1155  -0.025   9.639   9.601 -0.1016 -0.1178  0.2073
   73loPI   PO4 1156   0.578   9.549   9.460 -0.2329  0.2056 -0.0441
   73loPI   GL1 1157   0.880   9.395   9.338  0.4770  0.1927  0.0143
   73loPI   GL2 1158   1.181   9.585   9.361 -0.0985 -0.0404 -0.0366
   73loPI   C1A 1159   0.978   9.113   9.027 -0.1053 -0.0739 -0.2712
   73loPI   C2A 1160   0.923   8.960   8.655  0.1863 -0.0346  0.0376
   73loPI   C3A 1161   0.603   8.845   8.361 -0.2009 -0.1100  0.0319
   73loPI   C4A 1162   0.618   8.995   7.957  0.0585  0.0478 -0.2317
   73loPI   C5A 1163   0.895   9.266   7.687 -0.2675  0.0920 -0.1272
   73loPI   C6A 1164   1.233   9.208   7.528 -0.2652  0.0135 -0.0436
   73loPI   C1B 1165   1.046   9.601   8.866 -0.0405 -0.0504  0.0082
   73loPI   C2B 1166   0.735   9.488   8.648  0.1334  0.0506 -0.3663
   73loPI   C3B 1167   0.621   9.400   8.213 -0.0348 -0.0181  0.0078
   73loPI   C4B 1168   0.490   9.548   7.830  0.1928 -0.0831  0.0046
   74loPI    C1 1169   9.829  15.086  10.242 -0.0530 -0.1478  0.1851
   74loPI    C2 1170   9.910  14.974  10.617 -0.1520 -0.1045  0.2198
   74loPI    C3 1171   9.712  15.315  10.548  0.0457 -0.0085  0.1195
   74loPI   PO4 1172   9.981  15.105  10.158  0.2006  0.2867  0.1463
   74loPI   GL1 1173  10.226  14.963   9.857 -0.1106 -0.1260 -0.0480
   74loPI   GL2 1174   9.999  15.058   9.640 -0.1080 -0.0938  0.3706
   74loPI   C1A 1175  10.368  14.955   9.369  0.1632  0.0300 -0.0611
   74loPI   C2A 1176  10.334  14.941   9.001 -0.3746  0.5083 -0.4054
   74loPI   C3A 1177  10.237  14.903   8.618 -0.0910  0.0343  0.2746
   74loPI   C4A 1178  10.368  14.851   8.202  0.0574 -0.2006 -0.0461
   74loPI   C5A 1179  10.648  14.960   7.879  0.0151  0.1814 -0.1000
   74loPI   C6A 1180  10.840  14.982   7.513  0.1520  0.2195  0.0938
   74loPI   C1B 1181   9.903  15.195   9.255 -0.1947  0.1602 -0.1567
   74loPI   C2B 1182  10.001  15.277   8.829 -0.0415 -0.1056 -0.1783
   74loPI   C3B 1183  10.166  15.387   8.490  0.1835 -0.0336  0.0736
   74loPI   C4B 1184  10.082  15.752   8.261 -0.0836 -0.0351 -0.3618
   75loPI    C1 1185   4.122  10.673  10.139 -0.1826  0.1397  0.0080
   75loPI    C2 1186   4.311  10.593  10.482  0.0036  0.1818 -0.0834
   75loPI    C3 1187   3.915  10.647  10.480 -0.0352 -0.0773  0.0835
   75loPI   PO4 1188   4.130  10.544   9.877 -0.0747  0.1197 -0.2081
   75loPI   GL1 1189   4.274  10.559   9.519 -0.0634  0.1865 -0.4114
   75loPI   GL2 1190   4.125  10.300   9.300 -0.0445  0.1054  0.0213
   75loPI   C1A 1191   4.013  10.768   9.177  0.3275 -0.0272 -0.1801
   75loPI   C2A 1192   3.777  10.783   8.793  0.0338 -0.2933  0.1881
   75loPI   C3A 1193   3.788  10.669   8.298  0.1847 -0.0293  0.0306
   75loPI   C4A 1194   3.938  10.831   7.871 -0.2819  0.2196 -0.1186
   75loPI   C5A 1195   3.820  11.167   7.624 -0.1280 -0.2374  0.1008
   75loPI   C6A 1196   3.997  11.580   7.461  0.0046  0.1013  0.0473
   75loPI   C1B 1197   4.217  10.377   8.817 -0.3064  0.1326  0.0946
   75loPI   C2B 1198   4.261  10.677   8.569 -0.2011 -0.1670 -0.0026
   75loPI   C3B 1199   4.347  10.852   8.197 -0.1092 -0.1719  0.0050
   75loPI   C4B 1200   4.420  10.770   7.798 -0.3903 -0.3000  0.5041
   76loPI    C1 1201   5.463  15.018  10.129  0.1660  0.2696  0.0425
   76loPI    C2 1202   5.244  15.103   9.806 -0.0278 -0.2627  0.0241
   76loPI    C3 1203   5.132  15.240  10.165 -0.1707 -0.2045 -0.0417
   76loPI   PO4 1204   5.531  14.808  10.065 -0.0098  0.0944 -0.0830
   76loPI   GL1 1205   5.493  14.599   9.618  0.1665  0.3701 -0.0501
   76loPI   GL2 1206   5.583  14.898   9.509 -0.1131 -0.0615  0.1277
   76loPI   C1A 1207   5.588  14.309   9.213 -0.0170 -0.2946  0.4414
   76loPI   C2A 1208   5.542  14.236   8.782  0.0832 -0.1353  0.1513
   76loPI   C3A 1209   5.463  14.189   8.407  0.0199 -0.0224 -0.2748
   76loPI   C4A 1210   5.440  14.225   7.995 -0.0913 -0.3055 -0.4621
   76loPI   C5A 1211   5.243  14.331   7.620  0.2114 -0.0170  0.0311
   76loPI   C6A 1212   4.899  14.471   7.529 -0.2599  0.3530 -0.0927
   76loPI   C1B 1213   5.565  14.903   9.071  0.1203  0.1710 -0.0697
   76loPI   C2B 1214   5.551  14.819   8.558 -0.1577 -0.0806 -0.1043
   76loPI   C3B 1215   5.583  14.671   8.207 -0.0605 -0.0237  0.1205
   76loPI   C4B 1216   5.630  14.649   7.808 -0.1460 -0.0556  0.2463
   77loPI    C1 1217   1.446  10.533   9.716  0.1758  0.0365 -0.0885
   77loPI    C2 1218   1.544  10.216   9.940 -0.2008 -0.1513 -0.1807
   77loPI    C3 1219   1.353  10.527  10.105 -0.0049 -0.0544 -0.1323
   77loPI   PO4 1220   1.307  10.443   9.510 -0.0290 -0.0418 -0.0864
   77loPI   GL1 1221   1.135  10.630   9.181  0.2273 -0.0696 -0.2369
   77loPI   GL2 1222   1.408  10.432   9.033  0.2543 -0.2190 -0.0237
   77loPI   C1A 1223   0.924  10.746   8.833  0.1228  0.0995  0.1338
   77loPI   C2A 1224   0.684  10.841   8.459  0.0090  0.0148  0.1527
   77loPI   C3A 1225   0.534  10.787   8.009 -0.0027  0.2744  0.0009
   77loPI   C4A 1226   0.401  10.711   7.572  0.0038 -0.1473 -0.1445
   77loPI   C5A 1227   0.538  10.845   7.202  0.2350 -0.4815 -0.2964
   77loPI   C6A 1228   0.477  11.158   6.893 -0.0846  0.0149 -0.1070
   77loPI   C1B 1229   1.398  10.327   8.584  0.1378 -0.0661 -0.0868
   77loPI   C2B 1230   1.389  10.380   8.138 -0.3065 -0.0334  0.1876
   77loPI   C3B 1231   1.674  10.464   7.777  0.4451  0.2137 -0.0209
   77loPI   C4B 1232   2.121  10.438   7.523 -0.2396  0.3642 -0.0502
   78loPI    C1 1233   1.081   1.769  10.020  0.1308  0.2326 -0.1453
   78loPI    C2 1234   0.714   1.744   9.865  0.1690 -0.0008 -0.2028
   78loPI    C3 1235   0.774   1.946  10.205 -0.0093  0.0506 -0.2006
   78loPI   PO4 1236   1.225   1.597   9.816  0.0372  0.3441  0.3138
   78loPI   GL1 1237   1.295   1.310   9.341  0.0608  0.1076 -0.0263
   78loPI   GL2 1238   0.944   1.059   9.360 -0.0826  0.1807 -0.1418
   78loPI   C1A 1239   1.088   1.199   8.891 -0.2730  0.0959 -0.1198
   78loPI   C2A 1240   1.027   1.177   8.353 -0.1412 -0.4985 -0.0606
   78loPI   C3A 1241   0.868   1.520   8.060  0.2611  0.1827 -0.1858
   78loPI   C4A 1242   1.181   1.698   7.765 -0.2074  0.0889 -0.1140
   78loPI   C5A 1243   1.069   2.001   7.543  0.2220 -0.2357  0.1360
   78loPI   C6A 1244   1.185   2.466   7.411 -0.2667 -0.1115 -0.1234
   78loPI   C1B 1245   1.112   0.765   9.063  0.2712 -0.0258  0.0683
   78loPI   C2B 1246   1.197   0.778   8.634 -0.3731 -0.1205 -0.0793
   78loPI   C3B 1247   1.112   0.691   8.189  0.2635 -0.2286  0.0901
   78loPI   C4B 1248   1.021   0.578   7.773 -0.2635 -0.0382 -0.2773
   79loPI    C1 1249   6.473   3.501  10.419  0.1944  0.0157  0.0547
   79loPI    C2 1250   6.193   3.681  10.640  0.1456  0.0482 -0.0330
   79loPI    C3 1251   6.571   3.811  10.651  0.1029  0.1824 -0.1267
   79loPI   PO4 1252   6.435   3.279  10.370  0.1468 -0.2165 -0.1906
   79loPI   GL1 1253   6.484   3.002   9.955  0.1365 -0.1143 -0.3308
   79loPI   GL2 1254   6.524   2.672   9.935  0.0686  0.4083  0.2555
   79loPI   C1A 1255   6.468   2.998   9.456 -0.1363  0.0728  0.2604
   79loPI   C2A 1256   6.476   2.901   9.015 -0.1234  0.0124 -0.2078
   79loPI   C3A 1257   6.423   2.892   8.681 -0.3050 -0.2916  0.0361
   79loPI   C4A 1258   6.472   2.990   8.267 -0.1990 -0.1698 -0.0931
   79loPI   C5A 1259   6.281   3.190   7.820 -0.1406  0.1906 -0.0750
   79loPI   C6A 1260   5.821   3.168   7.512 -0.2481 -0.2145  0.1373
   79loPI   C1B 1261   6.483   2.529   9.404 -0.0265  0.2625  0.1880
   79loPI   C2B 1262   6.499   2.440   8.956 -0.2746 -0.2162 -0.0415
   79loPI   C3B 1263   6.545   2.406   8.481 -0.0353  0.1692 -0.4013
   79loPI   C4B 1264   6.859   2.426   8.161  0.0175 -0.0155 -0.2418
   80loPI    C1 1265   9.084   1.229  10.574  0.0366 -0.2822  0.0836
   80loPI    C2 1266   8.949   1.500  10.835  0.0221 -0.0279 -0.1836
   80loPI    C3 1267   9.212   1.223  10.953 -0.0863 -0.0006  0.1318
   80loPI   PO4 1268   8.971   1.274  10.298  0.1726 -0.1768  0.3965
   80loPI   GL1 1269   8.939   1.364   9.933  0.1179  0.1180  0.0103
   80loPI   GL2 1270   8.812   1.036   9.913  0.2248  0.2695  0.1924
   80loPI   C1A 1271   8.958   1.419   9.555  0.3917 -0.0135 -0.2011
   80loPI   C2A 1272   9.046   1.795   9.352  0.3644 -0.0977  0.1095
   80loPI   C3A 1273   9.198   1.967   8.989 -0.1597  0.1355  0.0818
   80loPI   C4A 1274   9.328   1.902   8.568 -0.1073  0.1405  0.3267
   80loPI   C5A 1275   9.558   1.531   8.435  0.0823  0.0623  0.0025
   80loPI   C6A 1276   9.862   1.192   8.540 -0.1801  0.0308 -0.2161
   80loPI   C1B 1277   8.666   0.690   9.632 -0.1843  0.1160  0.0760
   80loPI   C2B 1278   8.700   0.530   9.251  0.0242  0.0063  0.3706
   80loPI   C3B 1279   8.476   0.502   8.875  0.1939  0.2149 -0.1117
   80loPI   C4B 1280   8.363   0.487   8.433 -0.0573  0.0299 -0.1475
   81loPI    C1 1281  12.853  17.105  10.428 -0.1304  0.1863 -0.1086
   81loPI    C2 1282  12.790  17.341  10.745 -0.0268 -0.0563  0.0965
   81loPI    C3 1283  13.163  17.236  10.645 -0.0596  0.0154 -0.1054
   81loPI   PO4 1284  12.771  17.240  10.175  0.2405  0.1717 -0.3595
   81loPI   GL1 1285  12.833  17.249   9.816  0.1089  0.2456  0.2924
   81loPI   GL2 1286  13.179  17.361   9.598  0.1661 -0.0486  0.1139
   81loPI   C1A 1287  12.765  17.081   9.399 -0.0203  0.5139  0.2125
   81loPI   C2A 1288  12.734  16.928   9.060 -0.0946 -0.1145 -0.0410
   81loPI   C3A 1289  12.767  16.806   8.640 -0.1634 -0.2534  0.0641
   81loPI   C4A 1290  12.952  16.537   8.341  0.3904  0.1208 -0.1090
   81loPI   C5A 1291  13.127  16.140   8.401  0.1035  0.1353  0.2326
   81loPI   C6A 1292  13.308  15.735   8.376 -0.0083 -0.0382  0.1950
   81loPI   C1B 1293  13.127  17.400   9.116 -0.1596  0.2103 -0.4689
   81loPI   C2B 1294  13.011  17.318   8.690  0.1441 -0.1636  0.1277
   81loPI   C3B 1295  12.792  17.250   8.254 -0.2148  0.1617  0.0774
   81loPI   C4B 1296  12.486  16.981   8.057  0.1049 -0.1632 -0.0408
   82loPI    C1 1297  16.926  15.924  10.007 -0.1489  0.3432 -0.1092
   82loPI    C2 1298  17.160  16.236  10.095  0.1620  0.0855 -0.0025
   82loPI    C3 1299  17.315  15.868  10.080 -0.2110 -0.0730 -0.0754
   82loPI   PO4 1300  16.767  15.985   9.788  0.0806  0.0052  0.0705
   82loPI   GL1 1301  16.749  16.243   9.475 -0.2584  0.2767 -0.1468
   82loPI   GL2 1302  16.479  16.199   9.432  0.2288  0.0282 -0.2821
   82loPI   C1A 1303  16.894  16.440   9.069 -0.0012  0.0253  0.2149
   82loPI   C2A 1304  16.904  16.583   8.537  0.1402 -0.0655 -0.2888
   82loPI   C3A 1305  17.158  16.624   8.150  0.0956 -0.0878 -0.1197
   82loPI   C4A 1306  17.378  16.419   7.740 -0.0795  0.0098  0.0924
   82loPI   C5A 1307  17.542  16.280   7.336 -0.2224  0.2348 -0.0647
   82loPI   C6A 1308  17.630  16.403   6.945  0.2134  0.4695  0.0894
   82loPI   C1B 1309  16.496  16.222   9.058 -0.0644 -0.0417 -0.2006
   82loPI   C2B 1310  16.462  16.433   8.717  0.2195 -0.0119  0.0824
   82loPI   C3B 1311  16.456  16.401   8.390  0.4950  0.2894 -0.0633
   82loPI   C4B 1312  16.418  16.525   7.969  0.1106  0.0922 -0.2068
   83loPI    C1 1313  14.313  10.156  10.023  0.0694  0.0606 -0.0054
   83loPI    C2 1314  14.224   9.829  10.235  0.1403  0.0924  0.0737
   83loPI    C3 1315  14.580  10.005  10.279  0.2089  0.0185 -0.1741
   83loPI   PO4 1316  14.291  10.104   9.791  0.1308 -0.0175  0.0087
   83loPI   GL1 1317  14.401   9.803   9.462  0.0069 -0.1060 -0.1614
   83loPI   GL2 1318  14.679   9.875   9.398  0.1984  0.1512 -0.2467
   83loPI   C1A 1319  14.243   9.549   9.115 -0.2519  0.1842 -0.0407
   83loPI   C2A 1320  14.380   9.413   8.818  0.3676 -0.1513  0.2000
   83loPI   C3A 1321  14.301   8.994   8.622 -0.0633 -0.1562 -0.0303
   83loPI   C4A 1322  14.468   8.793   8.217 -0.1433 -0.1765  0.2001
   83loPI   C5A 1323  14.586   8.621   7.874  0.0502 -0.0306  0.0547
   83loPI   C6A 1324  14.385   8.372   7.581 -0.0961  0.0316 -0.2749
   83loPI   C1B 1325  14.702   9.672   9.116 -0.1369  0.0555  0.1691
   83loPI   C2B 1326  14.864   9.375   8.752 -0.1623  0.0814  0.0408
   83loPI   C3B 1327  14.697   9.227   8.411 -0.1238 -0.2589  0.0869
   83loPI   C4B 1328  14.223   9.192   8.211 -0.1449  0.3206 -0.0567
   84loPI    C1 1329  11.710   9.740  10.423 -0.0835  0.1267  0.1460
   84loPI    C2 1330  11.995   9.860  10.169 -0.1472 -0.1883 -0.0812
   84loPI    C3 1331  12.091   9.758  10.543  0.0138 -0.1420 -0.1090
   84loPI   PO4 1332  11.515   9.965  10.405 -0.1495 -0.2690 -0.2869
   84loPI   GL1 1333  11.422   9.968  10.099  0.1896  0.0885 -0.0029
   84loPI   GL2 1334  11.705  10.199   9.946 -0.1460  0.0049  0.1860
   84loPI   C1A 1335  11.409   9.841   9.635 -0.0554  0.2082 -0.0982
   84loPI   C2A 1336  11.308   9.828   9.168 -0.3582 -0.0062 -0.0007
   84loPI   C3A 1337  11.297   9.783   8.753  0.1957 -0.1049 -0.1217
   84loPI   C4A 1338  11.556   9.655   8.507 -0.2783 -0.3155  0.0973
   84loPI   C5A 1339  11.772   9.591   8.108 -0.2354  0.2587 -0.0536
   84loPI   C6A 1340  11.512   9.388   7.716 -0.1000  0.1061 -0.0465
   84loPI   C1B 1341  11.607  10.332   9.564  0.1122 -0.0432 -0.1188
   84loPI   C2B 1342  11.686  10.231   9.120 -0.4073 -0.1637  0.1804
   84loPI   C3B 1343  11.668  10.198   8.615  0.0792  0.2248  0.1685
   84loPI   C4B 1344  11.524  10.101   8.223 -0.1148  0.0870 -0.1141
   85loPI    C1 1345  12.658  10.199  10.487  0.3212  0.2356 -0.0812
   85loPI    C2 1346  12.946   9.925  10.537  0.1232  0.0608  0.1271
   85loPI    C3 1347  13.042  10.311  10.491  0.3987 -0.0234 -0.0293
   85loPI   PO4 1348  12.506  10.068  10.278 -0.1588 -0.1597 -0.2555
   85loPI   GL1 1349  12.462  10.212   9.887  0.1949 -0.1603 -0.1339
   85loPI   GL2 1350  12.340   9.948   9.823 -0.0971  0.2365 -0.0482
   85loPI   C1A 1351  12.664  10.282   9.520  0.0215 -0.2239  0.2166
   85loPI   C2A 1352  12.755  10.227   9.216 -0.0397  0.0059  0.0567
   85loPI   C3A 1353  12.808  10.397   8.820 -0.0147  0.2546 -0.1188
   85loPI   C4A 1354  12.572  10.671   8.616 -0.0542  0.1191  0.3217
   85loPI   C5A 1355  12.251  10.863   8.335  0.0889 -0.0423  0.0010
   85loPI   C6A 1356  11.951  11.081   8.380  0.1621 -0.0442 -0.0545
   85loPI   C1B 1357  12.567   9.822   9.369  0.0076  0.2393 -0.0497
   85loPI   C2B 1358  12.521   9.857   8.876  0.0130  0.1905 -0.3248
   85loPI   C3B 1359  12.500  10.114   8.459  0.0621  0.2660 -0.0178
   85loPI   C4B 1360  12.614  10.182   7.958 -0.2544 -0.1066 -0.1958
   86loPI    C1 1361   9.658   7.131  10.101  0.2753 -0.0193 -0.0271
   86loPI    C2 1362   9.415   6.950  10.363  0.1016 -0.0285 -0.1925
   86loPI    C3 1363   9.507   7.337  10.409 -0.0620  0.0133 -0.2093
   86loPI   PO4 1364   9.920   7.039  10.056 -0.1276 -0.0008  0.0364
   86loPI   GL1 1365  10.112   6.986   9.707 -0.0660 -0.4469 -0.3010
   86loPI   GL2 1366  10.381   7.060   9.684  0.0861 -0.1882 -0.1624
   86loPI   C1A 1367  10.041   6.764   9.342 -0.0119  0.0450  0.0222
   86loPI   C2A 1368   9.990   6.832   8.895 -0.0538  0.1411 -0.3681
   86loPI   C3A 1369   9.821   6.852   8.615 -0.1231  0.1162 -0.1887
   86loPI   C4A 1370   9.975   7.112   8.346  0.0776  0.3948  0.1559
   86loPI   C5A 1371  10.065   7.375   8.047  0.0209  0.2374  0.2441
   86loPI   C6A 1372  10.175   7.414   7.647 -0.0556  0.0758  0.0905
   86loPI   C1B 1373  10.508   7.200   9.453 -0.0223 -0.2104 -0.0896
   86loPI   C2B 1374  10.589   7.457   9.146 -0.2420 -0.3305  0.1790
   86loPI   C3B 1375  10.561   7.693   8.820  0.1233  0.1450  0.1666
   86loPI   C4B 1376  10.592   7.809   8.380 -0.2112 -0.0157  0.1375
   87loPI    C1 1377  12.266  15.080  10.883  0.1906 -0.1484  0.0254
   87loPI    C2 1378  12.184  15.430  11.059  0.1531 -0.1145 -0.0587
   87loPI    C3 1379  12.425  15.167  11.239  0.0960 -0.0901  0.0541
   87loPI   PO4 1380  12.423  15.164  10.628  0.0431 -0.4383 -0.3629
   87loPI   GL1 1381  12.490  15.401  10.236  0.3806 -0.2163 -0.0072
   87loPI   GL2 1382  12.217  15.307  10.237 -0.1624 -0.0834  0.3152
   87loPI   C1A 1383  12.417  15.375   9.760  0.2651  0.1185 -0.0089
   87loPI   C2A 1384  12.204  15.443   9.343  0.2029 -0.3983  0.1229
   87loPI   C3A 1385  12.061  15.241   8.990 -0.0025  0.3566 -0.0063
   87loPI   C4A 1386  11.977  15.188   8.545 -0.3638 -0.2902  0.0006
   87loPI   C5A 1387  12.048  15.003   8.220 -0.0051 -0.0392 -0.0476
   87loPI   C6A 1388  12.137  14.631   8.020  0.0132 -0.1191  0.0797
   87loPI   C1B 1389  11.996  15.485   9.862 -0.1254  0.1745 -0.1280
   87loPI   C2B 1390  11.786  15.298   9.563 -0.1255  0.2193  0.0366
   87loPI   C3B 1391  11.638  15.448   9.228 -0.1521  0.1187  0.2689
   87loPI   C4B 1392  11.580  15.468   8.817  0.0307 -0.0339 -0.0762
   88loPI    C1 1393  15.143  10.885  10.031  0.1716 -0.3852 -0.1604
   88loPI    C2 1394  15.206  10.655  10.352  0.1660 -0.0006  0.1234
   88loPI    C3 1395  15.514  10.837  10.173  0.0882  0.4031  0.3878
   88loPI   PO4 1396  14.993  10.786   9.861  0.1337 -0.1579  0.2653
   88loPI   GL1 1397  14.892  10.738   9.448  0.0336  0.2356 -0.0391
   88loPI   GL2 1398  14.593  10.836   9.274 -0.2263  0.0308 -0.0170
   88loPI   C1A 1399  15.050  10.904   9.037 -0.1569 -0.2298 -0.0957
   88loPI   C2A 1400  15.249  11.249   8.903 -0.2453  0.0962  0.1594
   88loPI   C3A 1401  15.226  11.544   8.502 -0.4472  0.1954 -0.0669
   88loPI   C4A 1402  15.320  11.674   8.107  0.1117  0.0610 -0.1035
   88loPI   C5A 1403  15.198  11.649   7.680 -0.1245 -0.0522 -0.2016
   88loPI   C6A 1404  14.939  11.441   7.484 -0.0806  0.0778 -0.0850
   88loPI   C1B 1405  14.474  10.951   8.908 -0.0248  0.4762  0.2967
   88loPI   C2B 1406  14.202  10.851   8.565 -0.1396  0.3837  0.1897
   88loPI   C3B 1407  13.889  10.745   8.194 -0.0601  0.2229 -0.1688
   88loPI   C4B 1408  13.586  11.024   7.912  0.0678  0.1581  0.2092
   89loPI    C1 1409  12.423   4.576   9.948 -0.0346  0.0812  0.1150
   89loPI    C2 1410  12.511   4.588  10.338 -0.0647 -0.0156  0.1249
   89loPI    C3 1411  12.660   4.297  10.107 -0.1305 -0.0178  0.0850
   89loPI   PO4 1412  12.230   4.762   9.874 -0.0413  0.1310  0.1632
   89loPI   GL1 1413  12.185   5.130   9.657 -0.0890 -0.0943 -0.1306
   89loPI   GL2 1414  11.941   4.969   9.442  0.5030  0.1765 -0.0559
   89loPI   C1A 1415  12.539   5.233   9.385  0.3241 -0.0750  0.0346
   89loPI   C2A 1416  12.669   5.193   8.928 -0.2317 -0.1582  0.0210
   89loPI   C3A 1417  12.603   5.403   8.586 -0.0301  0.1988  0.0325
   89loPI   C4A 1418  12.413   5.374   8.268  0.2842 -0.0481 -0.3845
   89loPI   C5A 1419  12.569   5.418   7.780  0.1882 -0.1353 -0.0633
   89loPI   C6A 1420  12.499   5.784   7.460  0.0120  0.2931 -0.1195
   89loPI   C1B 1421  12.100   4.898   9.069 -0.0901 -0.1381 -0.0261
   89loPI   C2B 1422  12.327   4.803   8.702  0.1397  0.3399 -0.2621
   89loPI   C3B 1423  12.556   4.852   8.404 -0.0810  0.1044  0.1972
   89loPI   C4B 1424  12.590   5.000   8.059 -0.2802 -0.1115  0.2104
   90loPI    C1 1425   1.598  15.141  10.124  0.0381 -0.2287 -0.0572
   90loPI    C2 1426   1.984  15.111  10.224  0.0278 -0.2544 -0.0253
   90loPI    C3 1427   1.700  15.068  10.503  0.0066 -0.0718 -0.0177
   90loPI   PO4 1428   1.572  15.362   9.943  0.0038  0.1984 -0.0128
   90loPI   GL1 1429   1.358  15.684   9.700  0.0196 -0.1932  0.2441
   90loPI   GL2 1430   1.197  15.950   9.799  0.4215 -0.1185  0.3664
   90loPI   C1A 1431   1.412  15.722   9.293  0.0831 -0.0475 -0.0510
   90loPI   C2A 1432   1.367  15.573   8.877  0.0343 -0.2706  0.2762
   90loPI   C3A 1433   1.587  15.676   8.474 -0.2333 -0.1364  0.2421
   90loPI   C4A 1434   1.772  15.528   7.989 -0.1478  0.1280  0.0626
   90loPI   C5A 1435   2.031  15.690   7.609 -0.0919  0.1092  0.1292
   90loPI   C6A 1436   1.894  16.013   7.341 -0.0315 -0.0456 -0.3559
   90loPI   C1B 1437   1.131  16.137   9.312 -0.0556  0.0143  0.0561
   90loPI   C2B 1438   0.973  16.045   8.874 -0.1437 -0.2033  0.1341
   90loPI   C3B 1439   0.832  16.163   8.518 -0.2332 -0.0516  0.0649
   90loPI   C4B 1440   0.817  16.182   8.009 -0.0417 -0.0191 -0.0382
   91loPI    C1 1441  13.108   1.825  10.485 -0.2756 -0.1817  0.0479
   91loPI    C2 1442  13.198   2.129  10.729 -0.2564  0.1250 -0.3312
   91loPI    C3 1443  12.978   1.823  10.863 -0.1218  0.2139  0.1080
   91loPI   PO4 1444  13.107   1.900  10.217 -0.0889 -0.4474  0.1954
   91loPI   GL1 1445  13.206   2.088   9.783  0.0849  0.1281  0.0209
   91loPI   GL2 1446  13.410   2.146   9.696  0.0324  0.0023  0.3149
   91loPI   C1A 1447  13.137   1.747   9.615 -0.1617  0.0506 -0.0219
   91loPI   C2A 1448  13.221   1.634   9.153  0.3267 -0.0869  0.0758
   91loPI   C3A 1449  13.335   1.512   8.809  0.3215 -0.1562  0.2375
   91loPI   C4A 1450  13.547   1.371   8.535 -0.0075 -0.1276  0.3538
   91loPI   C5A 1451  13.952   1.326   8.296 -0.1569  0.0703 -0.0853
   91loPI   C6A 1452  13.969   1.075   7.917  0.1705 -0.1212 -0.0668
   91loPI   C1B 1453  13.281   2.243   9.305  0.0794 -0.1289 -0.0640
   91loPI   C2B 1454  13.297   2.122   8.882  0.0648 -0.2086 -0.5436
   91loPI   C3B 1455  13.080   1.868   8.445  0.0338 -0.3771  0.2466
   91loPI   C4B 1456  12.641   1.936   8.288 -0.0390 -0.1810 -0.2913
   92loPI    C1 1457   7.575   8.672  10.065  0.3522 -0.0888 -0.1183
   92loPI    C2 1458   7.733   9.009   9.919 -0.0056  0.1399  0.0094
   92loPI    C3 1459   7.362   9.011  10.070  0.1521 -0.2114  0.4214
   92loPI   PO4 1460   7.848   8.549   9.986  0.1260  0.0628 -0.1931
   92loPI   GL1 1461   7.982   8.371   9.669 -0.3072  0.1031  0.1342
   92loPI   GL2 1462   7.836   8.051   9.553 -0.0238 -0.2011 -0.1742
   92loPI   C1A 1463   8.195   8.386   9.265  0.0295  0.1619 -0.1451
   92loPI   C2A 1464   8.359   8.658   8.990 -0.0660 -0.1611 -0.2051
   92loPI   C3A 1465   8.408   8.643   8.546  0.1598  0.0631  0.3792
   92loPI   C4A 1466   8.348   8.786   8.205 -0.0371  0.0964 -0.2129
   92loPI   C5A 1467   8.238   9.088   7.839 -0.1422  0.1090  0.0822
   92loPI   C6A 1468   8.554   9.119   7.560 -0.2752  0.1736  0.1706
   92loPI   C1B 1469   7.700   8.105   9.189 -0.1513 -0.2492 -0.1391
   92loPI   C2B 1470   7.627   8.063   8.762 -0.1864 -0.1068 -0.1229
   92loPI   C3B 1471   7.515   8.167   8.314 -0.1239  0.4217 -0.2223
   92loPI   C4B 1472   7.344   8.454   8.005 -0.0931  0.0583 -0.0902
   93loPI    C1 1473  15.876  13.732   9.919 -0.1119 -0.2080  0.0708
   93loPI    C2 1474  15.562  13.504  10.017 -0.2292  0.0235  0.2424
   93loPI    C3 1475  15.661  13.818  10.245 -0.1030  0.1779 -0.0199
   93loPI   PO4 1476  15.903  13.753   9.685 -0.0356 -0.1030 -0.2214
   93loPI   GL1 1477  16.090  13.662   9.350  0.1740 -0.2085  0.3073
   93loPI   GL2 1478  16.015  13.408   9.189  0.1360 -0.0718  0.3178
   93loPI   C1A 1479  16.049  13.910   8.944 -0.3602  0.2581  0.0461
   93loPI   C2A 1480  16.054  13.784   8.524  0.3077  0.1792 -0.0103
   93loPI   C3A 1481  16.214  14.043   8.227  0.1445 -0.1587 -0.1581
   93loPI   C4A 1482  16.519  14.286   7.946 -0.1059 -0.1013 -0.0586
   93loPI   C5A 1483  16.869  14.586   7.763  0.0048 -0.2760 -0.2164
   93loPI   C6A 1484  16.917  14.951   7.509  0.0932 -0.1686 -0.0262
   93loPI   C1B 1485  15.752  13.159   9.013  0.1083  0.0651  0.0855
   93loPI   C2B 1486  15.746  13.246   8.524  0.1797 -0.0011  0.2019
   93loPI   C3B 1487  15.529  13.191   8.091 -0.1306  0.1896  0.1389
   93loPI   C4B 1488  15.397  13.072   7.726  0.0497  0.0920 -0.2071
   94loPI    C1 1489   9.015  12.495  10.366 -0.0051 -0.1333 -0.1816
   94loPI    C2 1490   9.279  12.309  10.602 -0.0334 -0.0066 -0.0484
   94loPI    C3 1491   9.001  12.548  10.762 -0.2960 -0.2185 -0.1782
   94loPI   PO4 1492   9.190  12.446  10.094  0.2360  0.2012  0.0373
   94loPI   GL1 1493   8.908  12.379   9.621 -0.0228 -0.1418 -0.1709
   94loPI   GL2 1494   9.169  12.549   9.637 -0.0005  0.3580  0.0942
   94loPI   C1A 1495   9.009  12.101   9.259  0.0757 -0.0989 -0.0817
   94loPI   C2A 1496   9.277  12.032   8.877 -0.1038 -0.0316 -0.1606
   94loPI   C3A 1497   9.289  11.773   8.539  0.2032 -0.0781  0.1399
   94loPI   C4A 1498   9.122  11.726   8.148 -0.0323 -0.4224  0.0386
   94loPI   C5A 1499   8.857  11.722   7.853 -0.2074  0.2544  0.0610
   94loPI   C6A 1500   8.442  11.828   7.905 -0.1547  0.0752 -0.0291
   94loPI   C1B 1501   9.284  12.541   9.159 -0.0289 -0.3747  0.3189
   94loPI   C2B 1502   9.529  12.467   8.741  0.0724 -0.0901 -0.1954
   94loPI   C3B 1503   9.692  12.563   8.282  0.0017  0.3520  0.2207
   94loPI   C4B 1504   9.784  12.602   7.849 -0.0877 -0.1521  0.1997
   95loPI    C1 1505  17.639  12.372   9.879 -0.0145  0.0017 -0.1790
   95loPI    C2 1506  17.681  12.756   9.774 -0.4659  0.0839 -0.0804
   95loPI    C3 1507  17.603  12.660  10.155 -0.3884 -0.1048 -0.1111
   95loPI   PO4 1508  17.541  12.259   9.724 -0.2169 -0.0541  0.2622
   95loPI   GL1 1509  17.476  12.195   9.399 -0.1749  0.0312  0.1435
   95loPI   GL2 1510  17.700  12.455   9.176  0.0378  0.0164  0.1618
   95loPI   C1A 1511  17.353  12.123   8.950 -0.1564 -0.4255 -0.0450
   95loPI   C2A 1512  17.323  12.016   8.479 -0.0046 -0.0631  0.3745
   95loPI   C3A 1513  17.281  12.149   8.026 -0.5515 -0.1386 -0.0235
   95loPI   C4A 1514  17.138  12.324   7.660 -0.4299  0.0404  0.0221
   95loPI   C5A 1515  16.873  12.291   7.288 -0.2437 -0.0089  0.0656
   95loPI   C6A 1516  16.626  12.535   7.075 -0.1006  0.2146 -0.0439
   95loPI   C1B 1517  17.772  12.420   8.790  0.0482  0.3004  0.0331
   95loPI   C2B 1518  17.674  12.469   8.395 -0.1624  0.1158 -0.0882
   95loPI   C3B 1519  17.532  12.554   8.023  0.1251 -0.2959 -0.0306
   95loPI   C4B 1520  17.534  12.841   7.606  0.1480 -0.1498  0.1497
   96loPI    C1 1521   6.127   1.680  10.341 -0.0612  0.2438  0.1287
   96loPI    C2 1522   5.802   1.720  10.571 -0.1676  0.2236 -0.0168
   96loPI    C3 1523   5.770   1.557  10.207  0.0313  0.0814  0.0282
   96loPI   PO4 1524   6.219   1.869  10.321  0.0796  0.2451 -0.0624
   96loPI   GL1 1525   6.277   2.040   9.963  0.1297 -0.1624  0.1201
   96loPI   GL2 1526   6.565   2.070   9.848  0.2006 -0.1953  0.4142
   96loPI   C1A 1527   6.135   2.204   9.644  0.1372  0.1938  0.1721
   96loPI   C2A 1528   6.213   2.147   9.170  0.0280 -0.3029 -0.2537
   96loPI   C3A 1529   6.242   2.086   8.718 -0.2178 -0.2113 -0.1611
   96loPI   C4A 1530   6.138   2.199   8.257  0.3551 -0.4369  0.2297
   96loPI   C5A 1531   5.988   1.952   7.881  0.2490  0.2652  0.0668
   96loPI   C6A 1532   5.783   1.739   7.735  0.1053 -0.0244 -0.1605
   96loPI   C1B 1533   6.871   2.253   9.571 -0.0614  0.0642  0.4485
   96loPI   C2B 1534   6.839   2.189   9.195 -0.2811  0.0464  0.2534
   96loPI   C3B 1535   6.683   1.981   8.825  0.0996  0.1957 -0.0349
   96loPI   C4B 1536   6.660   1.534   8.566 -0.0654  0.0581 -0.0783
   97loPI    C1 1537   5.097   3.345  10.393  0.0339 -0.0648 -0.0983
   97loPI    C2 1538   4.786   3.498  10.193 -0.0825 -0.0823  0.0668
   97loPI    C3 1539   5.032   3.740  10.395 -0.0308 -0.0755 -0.0038
   97loPI   PO4 1540   5.107   3.097  10.209  0.1249  0.4289 -0.0017
   97loPI   GL1 1541   4.869   3.014   9.777  0.1228  0.0965  0.1624
   97loPI   GL2 1542   5.135   3.192   9.597 -0.2374 -0.1721 -0.1491
   97loPI   C1A 1543   4.793   2.694   9.548  0.2916 -0.1316 -0.1715
   97loPI   C2A 1544   4.923   2.468   9.083  0.1162 -0.0375  0.0994
   97loPI   C3A 1545   5.066   2.600   8.665  0.1773 -0.3452 -0.1967
   97loPI   C4A 1546   5.136   2.599   8.290  0.0779 -0.2447 -0.0682
   97loPI   C5A 1547   5.347   2.548   7.969  0.1281 -0.0345  0.0021
   97loPI   C6A 1548   5.784   2.361   7.831 -0.1495 -0.5620 -0.0743
   97loPI   C1B 1549   5.043   2.964   9.128  0.2443 -0.2383  0.0026
   97loPI   C2B 1550   5.038   3.107   8.702 -0.0263 -0.1870  0.1829
   97loPI   C3B 1551   5.220   3.157   8.299  0.2467 -0.2088 -0.1157
   97loPI   C4B 1552   5.494   3.014   7.943  0.1164 -0.1011  0.0811
   98loPI    C1 1553  10.052   8.677  10.213  0.0041  0.0021 -0.0466
   98loPI    C2 1554  10.226   8.738  10.567  0.1693 -0.0313 -0.1210
   98loPI    C3 1555   9.829   8.769  10.532  0.1797  0.2790 -0.0006
   98loPI   PO4 1556  10.172   8.770  10.018  0.1941 -0.0863 -0.1934
   98loPI   GL1 1557  10.508   8.711   9.775 -0.2985 -0.3493 -0.1700
   98loPI   GL2 1558  10.611   8.362   9.842 -0.2490 -0.2614  0.0020
   98loPI   C1A 1559  10.512   9.221   9.626  0.2752  0.1739  0.0489
   98loPI   C2A 1560  10.671   9.471   9.287  0.0589  0.2041  0.0094
   98loPI   C3A 1561  10.836   9.788   9.079  0.0429  0.1293  0.0275
   98loPI   C4A 1562  10.802   9.870   8.726 -0.0110  0.1855  0.0698
   98loPI   C5A 1563  10.559   9.763   8.350 -0.1639 -0.1674  0.1766
   98loPI   C6A 1564  10.744   9.830   8.008 -0.0132 -0.2743 -0.2532
   98loPI   C1B 1565  10.493   8.363   9.409  0.2762 -0.1085  0.1395
   98loPI   C2B 1566  10.399   8.130   9.038 -0.0825  0.0173  0.0633
   98loPI   C3B 1567  10.253   8.208   8.622  0.2405  0.3562  0.2151
   98loPI   C4B 1568  10.156   8.397   8.152  0.0584 -0.1437 -0.1627
   99loPI    C1 1569  11.668   8.798  10.161 -0.2460  0.1554  0.0379
   99loPI    C2 1570  11.849   8.840  10.516  0.0752  0.2350 -0.1312
   99loPI    C3 1571  11.583   9.113  10.394 -0.0300  0.2120  0.0431
   99loPI   PO4 1572  11.915   8.893  10.032  0.0288 -0.0940  0.0625
   99loPI   GL1 1573  11.760   9.104   9.722 -0.2314  0.3128  0.0240
   99loPI   GL2 1574  11.597   9.291   9.538 -0.1911  0.1112  0.1944
   99loPI   C1A 1575  11.884   8.914   9.285 -0.3631  0.0899  0.3233
   99loPI   C2A 1576  11.957   8.997   8.832  0.0837  0.0780  0.1293
   99loPI   C3A 1577  11.903   8.990   8.369  0.0828  0.1205 -0.0166
   99loPI   C4A 1578  11.839   9.152   7.965 -0.0735  0.0886  0.1082
   99loPI   C5A 1579  11.964   9.202   7.455  0.0109 -0.1564  0.1583
   99loPI   C6A 1580  11.782   8.823   7.189  0.1305 -0.1474  0.3593
   99loPI   C1B 1581  11.630   9.370   9.102  0.0885  0.2443 -0.1143
   99loPI   C2B 1582  11.476   9.228   8.701  0.2330 -0.1622 -0.1830
   99loPI   C3B 1583  11.468   9.186   8.268 -0.0011  0.1637 -0.0912
   99loPI   C4B 1584  11.336   8.965   7.817 -0.0283  0.1658  0.1504
  100loPI    C1 1585  17.440   0.673  10.271  0.0728 -0.1288  0.0891
  100loPI    C2 1586  17.116   0.639  10.504 -0.0133  0.1529  0.0150
  100loPI    C3 1587  17.415   0.375  10.537 -0.2132 -0.0617  0.1413
  100loPI   PO4 1588  17.337   0.738  10.054  0.1678  0.2677 -0.2358
  100loPI   GL1 1589  17.174   0.540   9.728 -0.2155  0.0592 -0.1504
  100loPI   GL2 1590  16.853   0.396   9.604  0.4504 -0.3209 -0.2240
  100loPI   C1A 1591  17.413   0.731   9.355  0.1540  0.2638  0.3455
  100loPI   C2A 1592  17.417   0.802   9.026 -0.0765 -0.0186 -0.0271
  100loPI   C3A 1593  17.473   0.861   8.596 -0.0269 -0.3132 -0.0002
  100loPI   C4A 1594  17.546   0.975   8.223  0.1793 -0.2014 -0.1912
  100loPI   C5A 1595  17.886   0.668   7.984 -0.1390  0.0264 -0.0353
  100loPI   C6A 1596  18.094   0.324   7.818  0.3508 -0.1097 -0.1357
  100loPI   C1B 1597  17.009   0.449   9.124  0.0130  0.0298  0.3504
  100loPI   C2B 1598  17.029   0.491   8.708  0.1639 -0.0627  0.0604
  100loPI   C3B 1599  17.036   0.460   8.295 -0.3650 -0.3085  0.1249
  100loPI   C4B 1600  17.173   0.689   8.008  0.0834 -0.3969 -0.1341
  101loPI    C1 1601   9.115   2.390  10.714 -0.0448  0.1054 -0.1633
  101loPI    C2 1602   8.800   2.148  10.760 -0.0291  0.0900 -0.1363
  101loPI    C3 1603   9.171   2.005  10.806 -0.0211  0.1295 -0.0747
  101loPI   PO4 1604   9.066   2.456  10.424  0.0085 -0.2361 -0.2629
  101loPI   GL1 1605   9.003   2.426  10.064 -0.0858 -0.1291 -0.1023
  101loPI   GL2 1606   9.366   2.344  10.004  0.2669  0.0304 -0.3468
  101loPI   C1A 1607   9.002   2.499   9.591  0.1193 -0.0983  0.1509
  101loPI   C2A 1608   9.207   2.415   9.209 -0.1054  0.3107 -0.1389
  101loPI   C3A 1609   9.282   2.364   8.720  0.1208  0.2780  0.2565
  101loPI   C4A 1610   9.617   2.342   8.377  0.2046  0.0682  0.2561
  101loPI   C5A 1611   9.995   2.365   8.189 -0.0769  0.2452  0.0159
  101loPI   C6A 1612  10.264   2.793   8.216  0.2815 -0.1270  0.1677
  101loPI   C1B 1613   9.409   2.234   9.623 -0.1168  0.1206  0.0531
  101loPI   C2B 1614   9.632   2.175   9.253 -0.2899 -0.3198  0.2202
  101loPI   C3B 1615   9.713   2.084   8.795 -0.2303  0.0129  0.0006
  101loPI   C4B 1616   9.890   1.919   8.445  0.1953  0.1126  0.0439
  102loPI    C1 1617   5.557  15.510   9.998 -0.3368 -0.3769 -0.1989
  102loPI    C2 1618   5.373  15.706  10.294  0.0282 -0.0045 -0.2088
  102loPI    C3 1619   5.628  15.409  10.378 -0.1491 -0.1471 -0.1700
  102loPI   PO4 1620   5.501  15.585   9.666 -0.0212  0.1778 -0.2597
  102loPI   GL1 1621   5.567  15.495   9.223  0.0368 -0.0558  0.0559
  102loPI   GL2 1622   5.416  15.713   9.072 -0.2245  0.0440  0.3668
  102loPI   C1A 1623   5.638  15.372   8.819  0.2909 -0.0206 -0.0995
  102loPI   C2A 1624   5.648  15.329   8.422 -0.0072  0.1516  0.0908
  102loPI   C3A 1625   5.724  15.500   8.093  0.0008  0.1194  0.2916
  102loPI   C4A 1626   5.606  15.582   7.658 -0.0075  0.0176  0.0267
  102loPI   C5A 1627   5.676  15.718   7.230  0.0952  0.2570 -0.3359
  102loPI   C6A 1628   5.716  15.562   6.819  0.0974 -0.1631 -0.1883
  102loPI   C1B 1629   5.243  15.621   8.681 -0.0193  0.1936 -0.0206
  102loPI   C2B 1630   5.163  15.511   8.198 -0.1404 -0.5123  0.0487
  102loPI   C3B 1631   5.056  15.363   7.791  0.0318  0.0813  0.0188
  102loPI   C4B 1632   4.772  15.122   7.515 -0.2888 -0.1300  0.1527
  103loPI    C1 1633  16.027  10.269   9.900 -0.0251 -0.0856 -0.0526
  103loPI    C2 1634  16.097  10.335  10.288  0.5435  0.1607 -0.1867
  103loPI    C3 1635  16.042  10.643  10.040 -0.1411 -0.0026 -0.2580
  103loPI   PO4 1636  16.200  10.167   9.823 -0.0059 -0.0266 -0.2264
  103loPI   GL1 1637  16.428  10.347   9.454 -0.0687 -0.0325  0.1962
  103loPI   GL2 1638  16.711  10.450   9.525 -0.3852  0.1574  0.1222
  103loPI   C1A 1639  16.283  10.579   9.145 -0.2685  0.2110  0.1319
  103loPI   C2A 1640  16.129  10.938   8.839 -0.1542  0.0688 -0.3521
  103loPI   C3A 1641  16.007  11.126   8.485  0.0184 -0.3032 -0.2226
  103loPI   C4A 1642  15.616  11.232   8.285  0.0759  0.2622 -0.0967
  103loPI   C5A 1643  15.361  10.894   8.009 -0.1283 -0.1350  0.0549
  103loPI   C6A 1644  14.991  10.695   7.993  0.2834 -0.1007 -0.0845
  103loPI   C1B 1645  16.849  10.378   9.040  0.3037  0.2894 -0.2594
  103loPI   C2B 1646  16.763  10.271   8.709  0.4735  0.1126 -0.4560
  103loPI   C3B 1647  16.864  10.278   8.303  0.2281  0.2039 -0.0099
  103loPI   C4B 1648  17.079  10.472   7.928  0.3492  0.2574  0.2832
  104loPI    C1 1649   9.097   0.366  10.699 -0.1002  0.0471 -0.1361
  104loPI    C2 1650   9.439   0.538  10.582 -0.2400  0.3179 -0.1531
  104loPI    C3 1651   9.153   0.758  10.755 -0.2484  0.0205  0.2233
  104loPI   PO4 1652   9.025   0.241  10.368 -0.1390  0.1744 -0.1063
  104loPI   GL1 1653   9.338   0.302  10.033  0.1907  0.0088  0.1397
  104loPI   GL2 1654   9.594   0.589   9.970  0.1994  0.3358  0.0464
  104loPI   C1A 1655   8.950   0.049   9.761  0.1758  0.3157 -0.1208
  104loPI   C2A 1656   8.661   0.082   9.398 -0.2603 -0.0740  0.0721
  104loPI   C3A 1657   8.512   0.028   9.015  0.2513  0.0195  0.1821
  104loPI   C4A 1658   8.512   0.064   8.571  0.0098 -0.1077 -0.0440
  104loPI   C5A 1659   8.575   0.134   8.183 -0.1453 -0.1334 -0.0173
  104loPI   C6A 1660   8.694   0.420   7.923 -0.0607  0.1495 -0.3755
  104loPI   C1B 1661   9.651   0.684   9.472 -0.0663  0.1860  0.0119
  104loPI   C2B 1662   9.509   0.684   9.125  0.0404  0.0156 -0.2729
  104loPI   C3B 1663   9.147   0.726   8.938 -0.1832  0.0556 -0.0002
  104loPI   C4B 1664   8.853   0.957   8.842  0.1879 -0.2965  0.0472
  105loPI    C1 1665  10.829   4.239  10.531  0.2753 -0.1187  0.0816
  105loPI    C2 1666  10.527   4.215  10.792  0.0217  0.0742 -0.1862
  105loPI    C3 1667  10.903   4.156  10.915 -0.1041  0.0312  0.1922
  105loPI   PO4 1668  10.690   4.270  10.239 -0.0379 -0.0409 -0.0230
  105loPI   GL1 1669  10.861   4.100   9.861  0.0041 -0.1502 -0.0343
  105loPI   GL2 1670  10.545   4.276   9.720  0.0244  0.2715  0.1307
  105loPI   C1A 1671  11.285   4.128   9.567  0.0133 -0.1612  0.1751
  105loPI   C2A 1672  11.497   3.996   9.263  0.2498 -0.3072 -0.1684
  105loPI   C3A 1673  11.536   4.034   8.778  0.0424  0.1524 -0.2278
  105loPI   C4A 1674  11.979   4.019   8.463 -0.0601  0.0219  0.1898
  105loPI   C5A 1675  12.211   4.234   8.180  0.0679 -0.0961  0.5270
  105loPI   C6A 1676  12.619   4.311   8.086 -0.2048  0.2449  0.3565
  105loPI   C1B 1677  10.757   4.191   9.294  0.0806  0.2438 -0.1218
  105loPI   C2B 1678  10.910   4.004   8.942  0.0011 -0.3397  0.3036
  105loPI   C3B 1679  11.057   3.850   8.591 -0.0327 -0.0021  0.0655
  105loPI   C4B 1680  11.367   3.941   8.219  0.2491 -0.0391 -0.0548
  106loPI    C1 1681   7.849  13.939   9.998 -0.0850  0.1154  0.1922
  106loPI    C2 1682   7.966  13.602  10.178  0.2708  0.1459  0.0268
  106loPI    C3 1683   7.806  13.899  10.393 -0.1180 -0.1543  0.1632
  106loPI   PO4 1684   8.120  13.951   9.853  0.1926  0.2989  0.3030
  106loPI   GL1 1685   8.295  14.233   9.588 -0.1259 -0.0189  0.1372
  106loPI   GL2 1686   8.330  14.626   9.491 -0.0414  0.0776 -0.1963
  106loPI   C1A 1687   7.944  14.400   9.250 -0.0077  0.1399 -0.0407
  106loPI   C2A 1688   7.939  14.470   8.844  0.0984 -0.3730  0.1381
  106loPI   C3A 1689   7.864  14.424   8.445 -0.1334 -0.2724 -0.1716
  106loPI   C4A 1690   7.991  14.266   8.151 -0.0624 -0.0236  0.0814
  106loPI   C5A 1691   8.311  14.252   7.978 -0.1328 -0.3047  0.0421
  106loPI   C6A 1692   8.743  14.228   7.898 -0.0761 -0.2849 -0.2735
  106loPI   C1B 1693   8.446  14.573   9.066 -0.2190 -0.1798  0.0082
  106loPI   C2B 1694   8.374  14.624   8.645  0.1580 -0.2841  0.0953
  106loPI   C3B 1695   8.432  14.680   8.227  0.2851  0.0132 -0.0245
  106loPI   C4B 1696   8.601  14.696   7.820 -0.0299  0.0509 -0.0209
  107loPI    C1 1697  12.394   5.056  10.249  0.1472 -0.0972 -0.0178
  107loPI    C2 1698  12.560   5.322  10.496 -0.2937  0.2769 -0.1112
  107loPI    C3 1699  12.393   4.990  10.643 -0.1014  0.2467  0.0436
  107loPI   PO4 1700  12.608   5.028  10.052  0.1839  0.0512 -0.0807
  107loPI   GL1 1701  12.778   4.864   9.743  0.0916 -0.2232  0.0701
  107loPI   GL2 1702  13.024   5.126   9.681  0.1941 -0.2277 -0.0423
  107loPI   C1A 1703  12.809   4.799   9.249  0.0558 -0.0519  0.2439
  107loPI   C2A 1704  12.835   4.700   8.777 -0.0185 -0.0372 -0.0046
  107loPI   C3A 1705  13.071   4.607   8.359  0.1722 -0.0031 -0.0462
  107loPI   C4A 1706  13.101   4.239   8.100 -0.2761  0.0831 -0.1009
  107loPI   C5A 1707  13.178   3.874   7.970  0.2173 -0.0063 -0.2168
  107loPI   C6A 1708  13.419   3.505   8.209 -0.0465  0.0699  0.2847
  107loPI   C1B 1709  13.245   5.062   9.346 -0.0105  0.0232 -0.0422
  107loPI   C2B 1710  13.524   5.090   9.075  0.1521 -0.0285  0.2518
  107loPI   C3B 1711  13.597   5.263   8.606  0.2142 -0.4417 -0.1786
  107loPI   C4B 1712  13.544   5.578   8.281 -0.1137  0.0084 -0.3009
  108loPI    C1 1713  10.744   6.355  10.290 -0.1734  0.2094 -0.1731
  108loPI    C2 1714  10.784   6.720  10.448 -0.1311  0.0896  0.0989
  108loPI    C3 1715  10.651   6.418  10.674  0.0628 -0.1164 -0.0570
  108loPI   PO4 1716  10.670   6.341  10.004  0.2214  0.1158  0.1317
  108loPI   GL1 1717  10.483   6.574   9.568 -0.0431 -0.0175  0.1874
  108loPI   GL2 1718  10.445   6.299   9.554 -0.0799 -0.2030 -0.2527
  108loPI   C1A 1719  10.483   6.800   9.159  0.3715  0.0012  0.1610
  108loPI   C2A 1720  10.463   6.759   8.659  0.0398 -0.3493  0.0859
  108loPI   C3A 1721  10.434   6.873   8.236 -0.2650 -0.0814  0.1438
  108loPI   C4A 1722  10.266   6.912   7.798 -0.1057  0.0884  0.1488
  108loPI   C5A 1723   9.802   6.889   7.641  0.1301 -0.4246  0.3346
  108loPI   C6A 1724   9.522   6.843   7.357  0.0018  0.3085 -0.1916
  108loPI   C1B 1725  10.622   6.285   9.127  0.4104 -0.0450 -0.2923
  108loPI   C2B 1726  10.660   6.184   8.746  0.1825  0.1631  0.2465
  108loPI   C3B 1727  10.716   6.461   8.344 -0.0080  0.1982 -0.1002
  108loPI   C4B 1728  10.855   6.822   7.887 -0.0361 -0.0366  0.0483
  109loPI    C1 1729  10.286  12.337  10.796 -0.1504  0.0829 -0.2226
  109loPI    C2 1730  10.264  12.720  10.909 -0.0371  0.0065  0.0679
  109loPI    C3 1731  10.125  12.432  11.150  0.0070 -0.1455 -0.0861
  109loPI   PO4 1732  10.326  12.326  10.498 -0.2456 -0.0228  0.3181
  109loPI   GL1 1733  10.077  12.153  10.084 -0.2720  0.2163 -0.1551
  109loPI   GL2 1734   9.869  12.038   9.810 -0.1848 -0.0393  0.1695
  109loPI   C1A 1735  10.411  12.351   9.750 -0.0346 -0.0217  0.0876
  109loPI   C2A 1736  10.665  12.353   9.316 -0.3984  0.1112 -0.1556
  109loPI   C3A 1737  10.765  12.216   8.882  0.1266  0.0936  0.0657
  109loPI   C4A 1738  11.028  12.261   8.552  0.1166 -0.0117 -0.1952
  109loPI   C5A 1739  11.309  12.309   8.270  0.0079 -0.1171  0.0704
  109loPI   C6A 1740  11.474  12.216   7.914  0.0348 -0.0348  0.2233
  109loPI   C1B 1741  10.021  12.155   9.501  0.0166 -0.3058  0.2847
  109loPI   C2B 1742  10.185  12.220   9.195 -0.0408 -0.0413  0.3448
  109loPI   C3B 1743  10.321  12.120   8.830  0.3952 -0.0558  0.4395
  109loPI   C4B 1744  10.521  12.353   8.449 -0.1522 -0.1128 -0.0849
  110loPI    C1 1745  16.419   3.361  10.055  0.1014 -0.0855  0.0409
  110loPI    C2 1746  16.674   3.627  10.211  0.2065 -0.0584 -0.1744
  110loPI    C3 1747  16.327   3.551  10.395  0.3581 -0.0773  0.1077
  110loPI   PO4 1748  16.704   3.181   9.869  0.1131 -0.0347 -0.1093
  110loPI   GL1 1749  16.635   3.005   9.584 -0.0255  0.3287 -0.0218
  110loPI   GL2 1750  16.294   3.030   9.664 -0.2344  0.0545 -0.0331
  110loPI   C1A 1751  16.618   3.166   9.231  0.2274 -0.0944  0.0375
  110loPI   C2A 1752  16.454   3.459   9.000  0.4336 -0.0614  0.2524
  110loPI   C3A 1753  16.251   3.489   8.532  0.1283 -0.1315  0.0594
  110loPI   C4A 1754  16.204   3.411   8.090 -0.0218 -0.1287  0.4223
  110loPI   C5A 1755  16.128   2.946   7.903 -0.0033 -0.0173 -0.1866
  110loPI   C6A 1756  16.204   2.749   7.609 -0.0355 -0.5884  0.0829
  110loPI   C1B 1757  16.077   2.950   9.227  0.1284  0.1242  0.0621
  110loPI   C2B 1758  16.158   3.049   8.836  0.0437  0.0112 -0.3140
  110loPI   C3B 1759  16.341   3.063   8.417  0.1015 -0.2046  0.1470
  110loPI   C4B 1760  16.730   3.324   8.346  0.2607 -0.2694 -0.1623
  111loPI    C1 1761   2.983   8.225  10.487 -0.2918 -0.2920 -0.0839
  111loPI    C2 1762   3.271   8.293  10.757 -0.2822 -0.0820 -0.1451
  111loPI    C3 1763   2.905   8.445  10.812 -0.3365 -0.2087 -0.1507
  111loPI   PO4 1764   2.997   8.306  10.193 -0.2918  0.1729 -0.0922
  111loPI   GL1 1765   2.825   8.503   9.874  0.2650  0.1586  0.0113
  111loPI   GL2 1766   2.890   8.942   9.867 -0.2519  0.2139 -0.1704
  111loPI   C1A 1767   3.068   8.511   9.495 -0.0741 -0.0226  0.1434
  111loPI   C2A 1768   3.108   8.325   8.976 -0.0494 -0.3217 -0.1251
  111loPI   C3A 1769   3.168   8.126   8.554 -0.2813  0.4621  0.0954
  111loPI   C4A 1770   3.262   7.978   8.113  0.0522 -0.2323  0.0918
  111loPI   C5A 1771   3.244   7.698   7.759  0.1941 -0.0619  0.0166
  111loPI   C6A 1772   3.217   7.531   7.343  0.2835  0.0886 -0.1405
  111loPI   C1B 1773   2.628   8.869   9.434 -0.0395 -0.1400  0.0099
  111loPI   C2B 1774   2.701   8.769   8.945  0.0963 -0.0699 -0.2591
  111loPI   C3B 1775   2.848   8.566   8.414 -0.0946  0.0524  0.0326
  111loPI   C4B 1776   2.729   8.689   8.043  0.3138 -0.0996 -0.1377
  112loPI    C1 1777  18.302   9.284   9.810 -0.2349  0.1306  0.0932
  112loPI    C2 1778  18.355   9.583  10.070  0.1144 -0.0366  0.2208
  112loPI    C3 1779  18.593   9.262  10.084  0.1688 -0.0299 -0.3337
  112loPI   PO4 1780  18.179   9.428   9.565  0.1120 -0.0399 -0.1158
  112loPI   GL1 1781  18.372   9.583   9.219  0.1451  0.0946 -0.0288
  112loPI   GL2 1782  18.254   9.899   9.376 -0.2367  0.0744 -0.2156
  112loPI   C1A 1783  18.105   9.581   8.902  0.1340  0.0027  0.2523
  112loPI   C2A 1784  17.950   9.571   8.508  0.0202  0.0232  0.1211
  112loPI   C3A 1785  17.899   9.360   8.089  0.0502 -0.1387  0.2104
  112loPI   C4A 1786  17.852   9.345   7.717  0.2898 -0.2538 -0.0926
  112loPI   C5A 1787  17.732   9.462   7.359 -0.0349 -0.1705 -0.3509
  112loPI   C6A 1788  17.835   9.322   6.945 -0.0729  0.2066 -0.3303
  112loPI   C1B 1789  18.297  10.080   9.014 -0.1827 -0.0653 -0.2773
  112loPI   C2B 1790  18.242  10.016   8.552 -0.3079  0.0390  0.1158
  112loPI   C3B 1791  18.202   9.825   8.180 -0.0822 -0.3264  0.0969
  112loPI   C4B 1792  18.307   9.524   7.903 -0.0764 -0.0932  0.1338
  113loPI    C1 1793  14.945   2.667  10.481 -0.0832  0.0336  0.0390
  113loPI    C2 1794  14.748   2.752  10.819  0.0451  0.1264  0.0913
  113loPI    C3 1795  15.029   2.467  10.817  0.0037  0.0857  0.0486
  113loPI   PO4 1796  14.779   2.660  10.291  0.0852 -0.2304 -0.1390
  113loPI   GL1 1797  14.545   2.613  10.000 -0.1178  0.1480 -0.1068
  113loPI   GL2 1798  14.769   2.836   9.869  0.1071  0.1155  0.0971
  113loPI   C1A 1799  14.256   2.885   9.695 -0.1574  0.0896  0.1460
  113loPI   C2A 1800  14.163   2.716   9.393 -0.2777 -0.0500 -0.2257
  113loPI   C3A 1801  14.177   2.664   8.989 -0.1877 -0.2440  0.3118
  113loPI   C4A 1802  14.332   2.643   8.599 -0.1934  0.3299 -0.1385
  113loPI   C5A 1803  14.492   2.754   8.208  0.2951 -0.3520  0.0545
  113loPI   C6A 1804  14.563   2.813   7.761 -0.2710  0.1494  0.1705
  113loPI   C1B 1805  15.034   2.806   9.501  0.0197  0.1190 -0.0531
  113loPI   C2B 1806  15.106   2.925   8.991 -0.2119 -0.0882 -0.1388
  113loPI   C3B 1807  15.213   3.017   8.602 -0.0848 -0.1643 -0.2066
  113loPI   C4B 1808  15.100   3.440   8.337 -0.2280 -0.1526 -0.1359
  114loPI    C1 1809  12.896   4.867  10.468  0.0774  0.0129 -0.2013
  114loPI    C2 1810  13.030   5.191  10.276  0.2161  0.0688 -0.0143
  114loPI    C3 1811  13.088   5.155  10.670  0.0062 -0.0817  0.0043
  114loPI   PO4 1812  13.016   4.653  10.257 -0.0589 -0.2032  0.0571
  114loPI   GL1 1813  13.194   4.649   9.953 -0.0899 -0.2460 -0.0845
  114loPI   GL2 1814  13.126   4.353   9.886 -0.2567  0.1331 -0.1152
  114loPI   C1A 1815  13.416   4.644   9.536 -0.2123  0.0147  0.0042
  114loPI   C2A 1816  13.295   4.579   9.152 -0.1026 -0.1524  0.1327
  114loPI   C3A 1817  13.373   4.796   8.703 -0.0828  0.0171  0.2120
  114loPI   C4A 1818  13.043   5.100   8.456 -0.1820  0.4771 -0.3442
  114loPI   C5A 1819  12.996   5.413   8.147 -0.1119 -0.4608 -0.0616
  114loPI   C6A 1820  13.350   5.496   7.827  0.5602  0.0974 -0.1346
  114loPI   C1B 1821  12.847   4.310   9.582 -0.2847 -0.1589 -0.2119
  114loPI   C2B 1822  12.886   4.307   9.163 -0.0640  0.1724  0.0909
  114loPI   C3B 1823  13.028   4.232   8.753 -0.5250 -0.0871 -0.1667
  114loPI   C4B 1824  13.149   3.874   8.461 -0.0247 -0.1336 -0.0071
  115loPI    C1 1825   7.654   3.104  10.719  0.1203  0.0868  0.0567
  115loPI    C2 1826   7.550   3.490  10.700  0.3874  0.1657  0.1528
  115loPI    C3 1827   7.398   3.256  10.986  0.0081  0.1280 -0.0736
  115loPI   PO4 1828   7.869   3.162  10.481  0.1069 -0.2042 -0.2041
  115loPI   GL1 1829   7.782   3.198   9.998  0.0347 -0.1085 -0.1818
  115loPI   GL2 1830   7.928   2.849   9.908  0.1114  0.1637 -0.0453
  115loPI   C1A 1831   7.968   3.364   9.583 -0.0657  0.1736 -0.0293
  115loPI   C2A 1832   7.812   3.257   9.174  0.0086 -0.1645  0.0390
  115loPI   C3A 1833   7.865   3.240   8.739  0.3548 -0.1482  0.2396
  115loPI   C4A 1834   8.274   3.181   8.444  0.0840  0.0814  0.1458
  115loPI   C5A 1835   8.482   3.120   8.016 -0.2260  0.0375  0.1760
  115loPI   C6A 1836   8.654   2.772   7.715 -0.0746  0.0797  0.1789
  115loPI   C1B 1837   7.832   2.867   9.538 -0.1057  0.1729 -0.0918
  115loPI   C2B 1838   7.915   2.700   9.191  0.2081 -0.0590  0.2178
  115loPI   C3B 1839   7.895   2.684   8.684 -0.2592  0.0866  0.2595
  115loPI   C4B 1840   7.762   2.845   8.371 -0.0656 -0.0200  0.0199
  116loPI    C1 1841   8.117  12.397  10.130 -0.0363  0.1204 -0.0215
  116loPI    C2 1842   8.462  12.384  10.332  0.0686  0.0090 -0.2046
  116loPI    C3 1843   8.139  12.550  10.499  0.2159  0.1355 -0.0405
  116loPI   PO4 1844   8.202  12.120  10.031 -0.2749 -0.1111  0.0055
  116loPI   GL1 1845   8.013  12.028   9.580 -0.4557  0.2377 -0.3717
  116loPI   GL2 1846   8.050  12.262   9.336 -0.0223 -0.1725 -0.0090
  116loPI   C1A 1847   7.972  11.689   9.317  0.0090  0.0849  0.0587
  116loPI   C2A 1848   7.952  11.792   8.920  0.2027  0.1430 -0.1547
  116loPI   C3A 1849   7.660  11.960   8.611  0.0572  0.1272 -0.0626
  116loPI   C4A 1850   7.768  12.293   8.290  0.0769  0.3729  0.2420
  116loPI   C5A 1851   8.074  12.663   8.263  0.3958 -0.1792 -0.0708
  116loPI   C6A 1852   8.348  12.986   8.530  0.2825 -0.1589 -0.1382
  116loPI   C1B 1853   7.931  12.289   8.924 -0.0319  0.0801 -0.1879
  116loPI   C2B 1854   8.093  12.275   8.652 -0.0647 -0.3082  0.2836
  116loPI   C3B 1855   8.289  12.199   8.301 -0.2732 -0.4262  0.2750
  116loPI   C4B 1856   8.217  12.317   7.920 -0.0310  0.4953 -0.2007
  117loPI    C1 1857  17.850   6.300   9.500  0.0325 -0.1659  0.0792
  117loPI    C2 1858  17.478   6.172   9.428  0.0221 -0.1467  0.0994
  117loPI    C3 1859  17.583   6.284   9.798  0.0449 -0.1424  0.0917
  117loPI   PO4 1860  17.975   6.121   9.312 -0.1226  0.0316  0.0071
  117loPI   GL1 1861  17.983   5.975   8.884  0.2163  0.0121 -0.4034
  117loPI   GL2 1862  18.300   5.903   8.770 -0.3423 -0.0085  0.1069
  117loPI   C1A 1863  17.830   5.758   8.612  0.0507 -0.5841  0.3463
  117loPI   C2A 1864  17.880   5.694   8.203 -0.2017  0.0218 -0.2276
  117loPI   C3A 1865  17.809   5.730   7.857  0.2924 -0.3963  0.1776
  117loPI   C4A 1866  17.588   5.670   7.552  0.1219  0.2161 -0.0342
  117loPI   C5A 1867  17.249   5.578   7.296  0.1279  0.2123 -0.3235
  117loPI   C6A 1868  16.908   5.361   7.061  0.4863 -0.0442  0.1259
  117loPI   C1B 1869  18.286   5.988   8.385  0.0680 -0.0305 -0.0858
  117loPI   C2B 1870  18.145   6.055   7.965  0.0490  0.0759  0.0612
  117loPI   C3B 1871  17.868   6.201   7.588 -0.0137  0.0073  0.0437
  117loPI   C4B 1872  17.685   6.411   7.255 -0.4037 -0.1364  0.1488
  118loPI    C1 1873   5.728   1.034  10.840  0.4873  0.2559  0.1190
  118loPI    C2 1874   5.966   0.792  10.628  0.0552 -0.2333  0.1730
  118loPI    C3 1875   5.887   0.710  11.012 -0.3066 -0.1582  0.1182
  118loPI   PO4 1876   5.594   1.169  10.578 -0.2834 -0.0575  0.0241
  118loPI   GL1 1877   5.685   0.921  10.161  0.2052  0.1711 -0.2781
  118loPI   GL2 1878   5.983   1.015  10.219  0.2346 -0.1003 -0.1916
  118loPI   C1A 1879   5.662   1.183   9.834 -0.0921  0.2978  0.2376
  118loPI   C2A 1880   5.869   1.284   9.471  0.0579 -0.0098 -0.0567
  118loPI   C3A 1881   6.113   1.256   9.030 -0.0857 -0.0537 -0.2321
  118loPI   C4A 1882   6.249   1.234   8.711  0.1884  0.1300  0.1064
  118loPI   C5A 1883   6.395   1.162   8.315  0.2650 -0.0123  0.1549
  118loPI   C6A 1884   6.178   0.933   8.024  0.1554  0.1019  0.2815
  118loPI   C1B 1885   6.130   1.261   9.969 -0.1118 -0.0965 -0.0259
  118loPI   C2B 1886   6.290   1.538   9.761  0.4030 -0.0202  0.3584
  118loPI   C3B 1887   6.453   1.771   9.497  0.0213  0.1936  0.0990
  118loPI   C4B 1888   6.441   1.645   9.087  0.0269 -0.1639  0.1981
  119loPI    C1 1889   0.757   0.029  10.069  0.2900  0.1242 -0.3431
  119loPI    C2 1890   0.505   0.338  10.103 -0.2288 -0.3156 -0.0339
  119loPI    C3 1891   0.894   0.387  10.182 -0.3287  0.2187  0.1617
  119loPI   PO4 1892   0.700  -0.116   9.813 -0.0111  0.0148  0.1200
  119loPI   GL1 1893   0.538  -0.388   9.665  0.0854  0.2209  0.0999
  119loPI   GL2 1894   0.561  -0.678   9.668 -0.2399  0.1324 -0.0313
  119loPI   C1A 1895   0.574  -0.325   9.289  0.2547  0.0893  0.1440
  119loPI   C2A 1896   0.511  -0.429   8.845 -0.1768 -0.2041  0.0922
  119loPI   C3A 1897   0.268  -0.382   8.418  0.0835 -0.0545  0.1837
  119loPI   C4A 1898   0.048  -0.485   8.061 -0.0536  0.0843 -0.1410
  119loPI   C5A 1899  -0.224  -0.706   7.676  0.0403  0.1184 -0.0117
  119loPI   C6A 1900  -0.181  -0.815   7.229  0.0537 -0.1001  0.0028
  119loPI   C1B 1901   0.605  -0.833   9.225  0.0553 -0.1441 -0.2318
  119loPI   C2B 1902   0.777  -0.883   8.889  0.1897 -0.0719 -0.1063
  119loPI   C3B 1903   0.863  -0.663   8.551  0.0925  0.1540 -0.3064
  119loPI   C4B 1904   1.062  -0.303   8.427 -0.2861  0.0013 -0.0403
  120loPI    C1 1905   7.001  12.336   9.919 -0.0567 -0.3476  0.1608
  120loPI    C2 1906   7.260  12.157  10.166  0.1088  0.0273  0.2652
  120loPI    C3 1907   6.961  12.378  10.314 -0.0245 -0.0644  0.1359
  120loPI   PO4 1908   7.160  12.458   9.743  0.3999  0.5576 -0.4130
  120loPI   GL1 1909   7.348  12.451   9.365 -0.0444  0.1876  0.1086
  120loPI   GL2 1910   7.603  12.520   9.338 -0.2224  0.1482  0.1379
  120loPI   C1A 1911   7.120  12.687   9.098  0.0013 -0.3623 -0.1553
  120loPI   C2A 1912   6.917  13.011   9.129  0.2005 -0.1688  0.0415
  120loPI   C3A 1913   6.786  13.159   8.650 -0.1313  0.1233  0.1204
  120loPI   C4A 1914   6.833  13.453   8.324 -0.0434  0.4729 -0.2671
  120loPI   C5A 1915   6.759  13.258   7.990  0.1823  0.0842 -0.0476
  120loPI   C6A 1916   6.809  12.931   7.633 -0.2335  0.1522 -0.0142
  120loPI   C1B 1917   7.529  12.946   9.274  0.0341 -0.1114 -0.2441
  120loPI   C2B 1918   7.279  13.058   8.796 -0.1011 -0.2040 -0.2785
  120loPI   C3B 1919   7.136  13.048   8.326 -0.2432  0.4240 -0.0173
  120loPI   C4B 1920   7.324  13.304   7.917  0.1789  0.0877  0.0412
  121loPI    C1 1921   3.898  17.046   9.939 -0.1644 -0.0604  0.1540
  121loPI    C2 1922   3.513  17.141   9.886 -0.1420 -0.1213 -0.1389
  121loPI    C3 1923   3.755  17.389  10.086 -0.2761  0.0343 -0.1675
  121loPI   PO4 1924   3.998  16.990   9.693  0.0029 -0.0421  0.4143
  121loPI   GL1 1925   3.959  16.910   9.299  0.2141 -0.0213  0.0934
  121loPI   GL2 1926   4.119  17.171   9.225 -0.1814 -0.2400 -0.4116
  121loPI   C1A 1927   4.047  16.428   9.231 -0.1152 -0.5507  0.2234
  121loPI   C2A 1928   3.971  16.145   8.991  0.0693  0.0291  0.3707
  121loPI   C3A 1929   4.080  16.226   8.543  0.0294 -0.5614  0.2021
  121loPI   C4A 1930   3.859  16.571   8.259 -0.1063 -0.0554  0.3012
  121loPI   C5A 1931   3.677  17.036   8.345  0.0363 -0.0476 -0.1479
  121loPI   C6A 1932   3.581  17.404   8.556  0.0336  0.0123 -0.1201
  121loPI   C1B 1933   4.442  17.189   8.885 -0.1652  0.2166 -0.0511
  121loPI   C2B 1934   4.729  17.044   8.541 -0.0367 -0.0776  0.1070
  121loPI   C3B 1935   5.032  16.927   8.254  0.0092  0.2337  0.0583
  121loPI   C4B 1936   5.034  16.960   7.820 -0.0581  0.1804  0.1738
  122loPI    C1 1937  10.554  18.388  10.699  0.0052 -0.0511 -0.2229
  122loPI    C2 1938  10.477  18.075  10.936  0.1143  0.2980  0.2905
  122loPI    C3 1939  10.815  18.284  10.984 -0.0402  0.6040  0.0767
  122loPI   PO4 1940  10.490  18.293  10.451  0.0866  0.0590  0.3415
  122loPI   GL1 1941  10.600  18.100  10.090 -0.0999  0.1569  0.2200
  122loPI   GL2 1942  10.780  17.882   9.973  0.2176  0.0168 -0.1133
  122loPI   C1A 1943  10.441  18.191   9.704  0.3533  0.4066 -0.0530
  122loPI   C2A 1944  10.403  18.307   9.334  0.1033  0.0892  0.1990
  122loPI   C3A 1945  10.267  18.430   8.945  0.3401  0.1376  0.4373
  122loPI   C4A 1946   9.952  18.415   8.853  0.2761 -0.1176 -0.0935
  122loPI   C5A 1947   9.622  18.254   8.673  0.2729 -0.0911  0.1230
  122loPI   C6A 1948   9.516  17.967   8.419 -0.0216 -0.1146  0.1898
  122loPI   C1B 1949  10.850  18.060   9.503 -0.1526 -0.0553 -0.0165
  122loPI   C2B 1950  10.809  18.152   9.093 -0.3141 -0.0090  0.1964
  122loPI   C3B 1951  10.551  18.211   8.683  0.1204  0.2441  0.1166
  122loPI   C4B 1952  10.346  18.379   8.440 -0.2024  0.0650  0.1703
  123loPI    C1 1953  15.353  15.363  10.362 -0.1095  0.1249 -0.1156
  123loPI    C2 1954  15.049  15.190  10.558  0.0180  0.0737  0.0390
  123loPI    C3 1955  15.367  14.973  10.449  0.1095  0.1779  0.0968
  123loPI   PO4 1956  15.258  15.620  10.148 -0.1221  0.1272  0.0030
  123loPI   GL1 1957  15.206  15.811   9.846  0.2229  0.1826  0.0499
  123loPI   GL2 1958  14.925  15.969   9.871 -0.0477  0.1648  0.1448
  123loPI   C1A 1959  15.402  15.628   9.417  0.0507  0.0836  0.3029
  123loPI   C2A 1960  15.341  15.379   9.031  0.1510 -0.0248 -0.2727
  123loPI   C3A 1961  15.486  15.283   8.700 -0.1174 -0.1405 -0.1942
  123loPI   C4A 1962  15.702  15.238   8.429  0.1891 -0.2885 -0.0653
  123loPI   C5A 1963  15.841  14.895   8.136  0.2613 -0.2172 -0.0869
  123loPI   C6A 1964  16.065  15.054   7.681 -0.0433  0.0491 -0.1849
  123loPI   C1B 1965  14.904  15.605   9.464 -0.0186  0.3049 -0.1498
  123loPI   C2B 1966  14.818  15.478   9.026  0.1875 -0.2819 -0.2625
  123loPI   C3B 1967  14.956  15.408   8.633 -0.2392 -0.0760  0.0171
  123loPI   C4B 1968  14.754  15.500   8.262 -0.1416 -0.0806  0.1392
  124loPI    C1 1969   1.538   9.090  10.114  0.1990  0.2171  0.0793
  124loPI    C2 1970   1.159   8.966  10.089  0.2894 -0.0251 -0.1338
  124loPI    C3 1971   1.257   9.258  10.344 -0.0595  0.1215 -0.1610
  124loPI   PO4 1972   1.600   9.213   9.907 -0.2158 -0.0166 -0.0606
  124loPI   GL1 1973   1.608   9.306   9.484 -0.0913  0.0066  0.2392
  124loPI   GL2 1974   1.830   9.581   9.384  0.1641 -0.0266 -0.0785
  124loPI   C1A 1975   1.477   9.292   9.045 -0.2875 -0.2230  0.0057
  124loPI   C2A 1976   1.361   9.317   8.593  0.0607  0.1879  0.2260
  124loPI   C3A 1977   1.146   9.351   8.124  0.1453 -0.2019  0.0981
  124loPI   C4A 1978   1.351   9.624   7.917  0.0895 -0.2426 -0.0312
  124loPI   C5A 1979   1.385  10.014   7.623 -0.0565  0.0042 -0.2170
  124loPI   C6A 1980   1.160  10.502   7.645  0.4500  0.3477 -0.2500
  124loPI   C1B 1981   1.951   9.461   8.998 -0.2167 -0.1536 -0.0818
  124loPI   C2B 1982   1.826   9.516   8.631 -0.0965  0.0203 -0.0580
  124loPI   C3B 1983   1.774   9.448   8.208  0.0511 -0.0985 -0.0466
  124loPI   C4B 1984   1.788   9.501   7.689  0.1880 -0.1304  0.1926
  125loPI    C1 1985  16.694   1.694  10.386 -0.0102  0.1119  0.0916
  125loPI    C2 1986  16.920   1.437  10.593 -0.0068 -0.0879 -0.1545
  125loPI    C3 1987  17.056   1.805  10.515  0.1158 -0.1129 -0.0622
  125loPI   PO4 1988  16.709   1.567  10.143  0.1573 -0.2619  0.2993
  125loPI   GL1 1989  16.587   1.615   9.717 -0.2220  0.2164 -0.1331
  125loPI   GL2 1990  16.684   1.876   9.458  0.2139 -0.0795 -0.1089
  125loPI   C1A 1991  16.300   1.555   9.361 -0.2675 -0.0421  0.0501
  125loPI   C2A 1992  16.256   1.585   8.922 -0.0777 -0.0116  0.1163
  125loPI   C3A 1993  16.151   1.708   8.480 -0.2970 -0.2777 -0.0476
  125loPI   C4A 1994  16.138   1.528   8.051 -0.0220 -0.0745  0.1157
  125loPI   C5A 1995  15.979   1.278   7.760 -0.0089 -0.3196 -0.2476
  125loPI   C6A 1996  15.717   1.313   7.485  0.1006 -0.0273  0.1629
  125loPI   C1B 1997  16.688   1.959   9.068  0.1335  0.1411  0.0777
  125loPI   C2B 1998  16.538   1.958   8.654 -0.0595 -0.0217 -0.0376
  125loPI   C3B 1999  16.402   1.979   8.135  0.2108 -0.1955 -0.1355
  125loPI   C4B 2000  16.129   2.175   7.870  0.1576 -0.4744 -0.3462
  126loPI    C1 2001  14.272  14.575  10.299  0.1786  0.0952  0.1264
  126loPI    C2 2002  14.476  14.632  10.638  0.2812  0.0306  0.0759
  126loPI    C3 2003  14.331  14.270  10.550  0.1007  0.0873  0.1353
  126loPI   PO4 2004  14.369  14.714  10.165 -0.2752 -0.2959 -0.0122
  126loPI   GL1 2005  14.465  14.902   9.764  0.0876  0.1087  0.2155
  126loPI   GL2 2006  14.525  14.526   9.669  0.0814 -0.0482  0.1757
  126loPI   C1A 2007  14.540  14.827   9.328 -0.4077 -0.1333  0.3215
  126loPI   C2A 2008  14.455  14.985   8.875  0.0202  0.3073 -0.1672
  126loPI   C3A 2009  14.623  15.077   8.443 -0.1266  0.2470 -0.0098
  126loPI   C4A 2010  14.430  15.240   8.040  0.0593 -0.0472 -0.1218
  126loPI   C5A 2011  14.244  15.473   7.723  0.0424  0.0057 -0.0085
  126loPI   C6A 2012  14.100  15.615   7.405  0.0381  0.1222  0.0464
  126loPI   C1B 2013  14.230  14.463   9.288  0.1218  0.1019  0.4343
  126loPI   C2B 2014  14.356  14.360   8.844  0.5971 -0.2148  0.0153
  126loPI   C3B 2015  14.196  14.645   8.505 -0.1756 -0.1354 -0.1418
  126loPI   C4B 2016  13.956  14.824   8.141  0.2262 -0.3380  0.0176
  127loPI    C1 2017  17.119   5.864   9.567 -0.0437 -0.2009  0.1467
  127loPI    C2 2018  17.427   5.609   9.587 -0.0794 -0.2490  0.0830
  127loPI    C3 2019  17.330   5.830   9.906  0.1913 -0.0336  0.0200
  127loPI   PO4 2020  16.920   5.720   9.438  0.0606  0.1235 -0.0224
  127loPI   GL1 2021  16.787   5.348   9.199  0.1478  0.1118  0.0700
  127loPI   GL2 2022  17.179   5.477   9.128  0.2845  0.0783  0.0978
  127loPI   C1A 2023  16.820   5.487   8.761 -0.0298  0.0738 -0.1324
  127loPI   C2A 2024  16.916   5.741   8.401  0.2522 -0.1122  0.0850
  127loPI   C3A 2025  16.619   5.641   7.986 -0.0221  0.1277 -0.2947
  127loPI   C4A 2026  16.438   5.986   7.732 -0.0186 -0.1385  0.3860
  127loPI   C5A 2027  16.457   6.064   7.426  0.2700 -0.1492  0.0968
  127loPI   C6A 2028  16.716   6.298   7.135 -0.3094 -0.4180 -0.1481
  127loPI   C1B 2029  17.346   5.640   8.678  0.1974 -0.0414 -0.0251
  127loPI   C2B 2030  17.384   5.803   8.235  0.0527 -0.0920 -0.0719
  127loPI   C3B 2031  17.170   5.472   7.949  0.1023 -0.1881 -0.1851
  127loPI   C4B 2032  16.922   5.263   7.703 -0.2008 -0.0016  0.2207
  128loPI    C1 2033   9.256  17.564  10.252 -0.0904 -0.0105 -0.1035
  128loPI    C2 2034   9.029  17.259  10.377  0.0210 -0.1233 -0.1754
  128loPI    C3 2035   8.866  17.620  10.324 -0.0490 -0.0961  0.2016
  128loPI   PO4 2036   9.316  17.483   9.998  0.2896  0.0023 -0.2131
  128loPI   GL1 2037   9.428  17.351   9.586  0.0844 -0.1875  0.0747
  128loPI   GL2 2038   9.222  17.550   9.500  0.2622  0.0021  0.2085
  128loPI   C1A 2039   9.764  17.566   9.338 -0.0234 -0.2623  0.0684
  128loPI   C2A 2040  10.073  17.498   9.128  0.1870  0.1134  0.0142
  128loPI   C3A 2041  10.061  17.409   8.774 -0.0443 -0.1220 -0.4782
  128loPI   C4A 2042  10.146  17.298   8.416 -0.1005  0.0865 -0.0391
  128loPI   C5A 2043  10.402  17.386   8.101  0.3264 -0.0355  0.2636
  128loPI   C6A 2044  10.839  17.448   8.022 -0.1256 -0.3103 -0.2455
  128loPI   C1B 2045   9.255  17.651   9.148  0.1732 -0.1077 -0.2657
  128loPI   C2B 2046   9.241  17.899   8.822 -0.0125  0.1012 -0.2614
  128loPI   C3B 2047   8.979  18.051   8.432 -0.0434 -0.0742 -0.0882
  128loPI   C4B 2048   8.657  18.318   8.270  0.1130 -0.0182 -0.1661
  129loPI    C1 2049  15.843  14.361  10.099 -0.2792  0.1577 -0.0388
  129loPI    C2 2050  15.839  14.200  10.465  0.1873 -0.0085 -0.1006
  129loPI    C3 2051  15.715  14.576  10.411  0.0222 -0.0150  0.2093
  129loPI   PO4 2052  15.649  14.250   9.925 -0.0073  0.2758 -0.1327
  129loPI   GL1 2053  15.350  14.341   9.522  0.2768  0.0969 -0.0448
  129loPI   GL2 2054  15.524  13.991   9.497 -0.0299 -0.0614  0.1581
  129loPI   C1A 2055  15.370  14.663   9.163  0.1089 -0.1204  0.3603
  129loPI   C2A 2056  15.660  14.982   9.092  0.2569  0.0735 -0.0475
  129loPI   C3A 2057  15.961  15.173   8.833  0.3710 -0.0626 -0.1805
  129loPI   C4A 2058  16.206  14.931   8.475  0.1518 -0.1173 -0.3287
  129loPI   C5A 2059  16.424  14.840   8.051 -0.0996 -0.0800 -0.0864
  129loPI   C6A 2060  16.593  15.212   7.750  0.1201  0.1208  0.2120
  129loPI   C1B 2061  15.604  14.220   9.028 -0.0184 -0.0729 -0.3479
  129loPI   C2B 2062  15.795  14.204   8.593 -0.1732  0.1311 -0.0219
  129loPI   C3B 2063  15.750  14.148   8.136  0.1497  0.0460 -0.0251
  129loPI   C4B 2064  15.981  14.032   7.753 -0.1861  0.0525 -0.2021
  130loPI    C1 2065   7.653   1.830  10.357 -0.2714  0.0321 -0.0675
  130loPI    C2 2066   7.765   2.193  10.483  0.0432 -0.0968  0.0336
  130loPI    C3 2067   7.478   1.993  10.678 -0.1637  0.1148 -0.0502
  130loPI   PO4 2068   7.663   1.864  10.087  0.0334  0.3197  0.0330
  130loPI   GL1 2069   8.051   1.858   9.718 -0.0053  0.1285  0.1843
  130loPI   GL2 2070   7.755   2.033   9.665 -0.0228  0.1360  0.4282
  130loPI   C1A 2071   8.189   1.896   9.328 -0.3552 -0.0671 -0.1515
  130loPI   C2A 2072   8.259   1.972   8.865 -0.2380 -0.0217  0.1926
  130loPI   C3A 2073   8.347   2.229   8.550  0.0877 -0.3706  0.2050
  130loPI   C4A 2074   8.756   2.400   8.569 -0.2483  0.2835  0.0576
  130loPI   C5A 2075   8.900   2.646   8.877 -0.0467 -0.2126 -0.0176
  130loPI   C6A 2076   8.663   2.748   9.204 -0.1621  0.1758  0.0656
  130loPI   C1B 2077   7.844   2.166   9.148 -0.2038  0.1041 -0.0508
  130loPI   C2B 2078   7.876   2.232   8.723 -0.0080  0.0431  0.0239
  130loPI   C3B 2079   7.878   2.343   8.269 -0.0742 -0.1736  0.2342
  130loPI   C4B 2080   7.861   2.025   7.873 -0.3528 -0.2148  0.1854
  131loPI    C1 2081  17.967   3.766   9.773 -0.3308 -0.2700  0.0039
  131loPI    C2 2082  18.113   3.440   9.953 -0.1459 -0.1527  0.0698
  131loPI    C3 2083  18.032   3.767  10.168 -0.0584 -0.0594 -0.0378
  131loPI   PO4 2084  18.025   3.784   9.501  0.0829 -0.2340  0.1638
  131loPI   GL1 2085  18.180   3.846   9.052 -0.1870 -0.0073 -0.2788
  131loPI   GL2 2086  18.017   4.099   9.131 -0.1196 -0.4328 -0.0048
  131loPI   C1A 2087  18.095   3.862   8.694  0.3604 -0.1823 -0.2174
  131loPI   C2A 2088  17.977   3.864   8.253  0.1291 -0.3786  0.1483
  131loPI   C3A 2089  17.767   3.787   7.836  0.1242 -0.0129  0.0439
  131loPI   C4A 2090  17.395   3.738   7.747  0.5462 -0.2157 -0.3350
  131loPI   C5A 2091  17.079   3.991   7.611  0.0071 -0.3327 -0.1323
  131loPI   C6A 2092  16.765   4.285   7.572  0.2816  0.2067 -0.0263
  131loPI   C1B 2093  17.627   3.820   9.027 -0.0529  0.2998  0.3572
  131loPI   C2B 2094  17.645   3.526   8.665  0.2111  0.0917 -0.1966
  131loPI   C3B 2095  17.567   3.429   8.324  0.2464 -0.0450 -0.0408
  131loPI   C4B 2096  17.632   3.333   7.967  0.0745 -0.0177  0.0568
  132loPI    C1 2097   6.967  15.098  10.483  0.0722  0.1812 -0.0670
  132loPI    C2 2098   7.228  15.385  10.582  0.0505  0.1793 -0.0034
  132loPI    C3 2099   7.358  15.017  10.496  0.0784  0.2080 -0.0850
  132loPI   PO4 2100   6.799  15.202  10.319  0.0747  0.3744  0.0160
  132loPI   GL1 2101   6.807  15.309   9.829 -0.2092 -0.3315 -0.1102
  132loPI   GL2 2102   6.891  15.034   9.570  0.0612  0.1344  0.0768
  132loPI   C1A 2103   7.239  15.401   9.646 -0.0903 -0.2526 -0.0643
  132loPI   C2A 2104   7.371  15.612   9.211 -0.1268  0.0127 -0.1448
  132loPI   C3A 2105   7.075  15.737   8.815  0.2364  0.2753 -0.0067
  132loPI   C4A 2106   6.822  15.864   8.543 -0.1862 -0.1802 -0.0047
  132loPI   C5A 2107   6.631  15.805   8.300  0.0869  0.0373  0.0476
  132loPI   C6A 2108   6.406  15.901   7.971  0.3856  0.2855  0.1038
  132loPI   C1B 2109   6.915  15.378   9.243  0.1027 -0.1599  0.0494
  132loPI   C2B 2110   6.658  15.596   8.931 -0.1282  0.2144 -0.0803
  132loPI   C3B 2111   6.346  15.412   8.631 -0.1685 -0.0169 -0.3434
  132loPI   C4B 2112   6.219  15.523   8.292 -0.2176 -0.1723 -0.0642
  133loPI    C1 2113  15.042  18.265  10.043  0.1258  0.3486 -0.2161
  133loPI    C2 2114  14.663  18.311   9.923  0.0480  0.0087 -0.1091
  133loPI    C3 2115  14.782  18.464  10.273 -0.0022  0.0765 -0.1215
  133loPI   PO4 2116  15.166  18.249   9.823 -0.0326 -0.0699  0.2470
  133loPI   GL1 2117  15.218  18.156   9.431 -0.1157  0.2182  0.0992
  133loPI   GL2 2118  14.799  18.119   9.425  0.0331 -0.2967 -0.1909
  133loPI   C1A 2119  15.482  17.821   9.292 -0.3599  0.0483  0.0363
  133loPI   C2A 2120  15.681  17.701   8.854 -0.0700  0.1622  0.1155
  133loPI   C3A 2121  15.550  17.457   8.549 -0.0825 -0.0244 -0.1330
  133loPI   C4A 2122  15.361  17.204   8.194  0.0608  0.1619 -0.1863
  133loPI   C5A 2123  15.068  16.956   7.918 -0.1779  0.1505 -0.1991
  133loPI   C6A 2124  14.920  16.466   7.874  0.2088  0.0735 -0.0203
  133loPI   C1B 2125  14.849  18.335   9.016  0.3311  0.0900  0.0138
  133loPI   C2B 2126  14.847  18.192   8.638  0.1347 -0.1813 -0.0675
  133loPI   C3B 2127  14.861  18.162   8.175 -0.0515 -0.5183 -0.3637
  133loPI   C4B 2128  15.057  18.466   7.951 -0.0010 -0.1780  0.0455
  134loPI    C1 2129   3.923   3.645   9.880 -0.2020 -0.2004  0.1155
  134loPI    C2 2130   3.824   3.718  10.261  0.0228 -0.2303  0.1811
  134loPI    C3 2131   4.199   3.778  10.137 -0.1169  0.0701 -0.1117
  134loPI   PO4 2132   3.807   3.747   9.747  0.1616 -0.1673 -0.2118
  134loPI   GL1 2133   3.462   3.782   9.494  0.0212 -0.1502  0.2330
  134loPI   GL2 2134   3.538   4.103   9.485  0.0834 -0.2260 -0.0387
  134loPI   C1A 2135   3.465   3.703   9.123 -0.0772 -0.0448  0.2942
  134loPI   C2A 2136   3.509   3.872   8.699 -0.0855 -0.2178  0.2525
  134loPI   C3A 2137   3.592   3.849   8.287  0.2454  0.0823  0.0608
  134loPI   C4A 2138   3.828   3.769   7.865 -0.0121 -0.1855 -0.0724
  134loPI   C5A 2139   4.264   3.865   7.759  0.3941  0.0358 -0.1496
  134loPI   C6A 2140   4.618   3.649   7.634  0.1698  0.2532 -0.0584
  134loPI   C1B 2141   3.561   4.249   9.025  0.0473 -0.0636 -0.0075
  134loPI   C2B 2142   3.321   4.295   8.518  0.0925  0.1719 -0.0814
  134loPI   C3B 2143   3.415   4.339   7.996 -0.0305  0.0586 -0.1320
  134loPI   C4B 2144   3.272   4.480   7.553 -0.3313 -0.1226  0.0067
  135loPI    C1 2145  16.846  16.655  10.142 -0.1539  0.0018  0.1463
  135loPI    C2 2146  16.724  16.375  10.400 -0.0096  0.0338  0.2511
  135loPI    C3 2147  16.767  16.754  10.521 -0.1450  0.0905  0.1254
  135loPI   PO4 2148  16.808  16.549   9.904  0.1513 -0.0865  0.2156
  135loPI   GL1 2149  16.855  16.794   9.536  0.1416  0.0763 -0.1010
  135loPI   GL2 2150  16.594  16.702   9.462 -0.0908 -0.0954 -0.0382
  135loPI   C1A 2151  17.152  16.802   9.250  0.0847 -0.2237 -0.0565
  135loPI   C2A 2152  17.239  16.897   8.791  0.1264  0.1328 -0.1257
  135loPI   C3A 2153  17.127  17.104   8.432 -0.0429  0.2701 -0.0012
  135loPI   C4A 2154  16.736  16.904   8.146 -0.0650  0.1311 -0.2392
  135loPI   C5A 2155  16.310  16.946   8.240  0.1786  0.1169  0.0222
  135loPI   C6A 2156  15.837  17.015   8.381  0.0354 -0.0732 -0.0574
  135loPI   C1B 2157  16.690  16.933   9.108 -0.3940 -0.1217  0.0388
  135loPI   C2B 2158  16.574  17.046   8.658 -0.0647  0.1787 -0.1171
  135loPI   C3B 2159  16.663  17.382   8.385  0.0369  0.0470 -0.2965
  135loPI   C4B 2160  16.812  17.454   8.068  0.0284 -0.0308 -0.0145
  136loPI    C1 2161   9.801  14.642   9.967 -0.2142  0.0820  0.0420
  136loPI    C2 2162   9.595  14.566  10.301 -0.0418 -0.1033  0.1085
  136loPI    C3 2163   9.993  14.536  10.302 -0.0340 -0.0193 -0.0919
  136loPI   PO4 2164   9.606  14.844   9.844 -0.2448  0.0809 -0.3070
  136loPI   GL1 2165   9.639  14.688   9.432  0.0594  0.1089  0.0493
  136loPI   GL2 2166   9.934  14.597   9.449  0.2918 -0.1418 -0.1040
  136loPI   C1A 2167   9.650  14.742   8.960 -0.1328  0.1174  0.1207
  136loPI   C2A 2168   9.750  14.965   8.559 -0.0871 -0.0415  0.1730
  136loPI   C3A 2169   9.871  15.031   8.201  0.0256 -0.0095  0.1473
  136loPI   C4A 2170   9.681  14.988   7.801 -0.0317 -0.0375 -0.0763
  136loPI   C5A 2171   9.408  15.211   7.507 -0.0176  0.2398 -0.2234
  136loPI   C6A 2172   9.058  15.564   7.419 -0.0685 -0.1533  0.3491
  136loPI   C1B 2173  10.024  14.412   9.099 -0.2224  0.2775 -0.5324
  136loPI   C2B 2174  10.060  14.404   8.733  0.0978  0.1813 -0.1136
  136loPI   C3B 2175   9.967  14.547   8.302 -0.1451 -0.0686  0.0490
  136loPI   C4B 2176  10.053  14.646   7.898  0.1840  0.0093  0.0645
  137loPI    C1 2177  13.129   4.099  10.335  0.2036 -0.2281  0.0417
  137loPI    C2 2178  13.516   4.183  10.276  0.1653 -0.1362 -0.0843
  137loPI    C3 2179  13.325   4.331  10.595  0.2443 -0.2163  0.0007
  137loPI   PO4 2180  13.064   3.813  10.398  0.4497 -0.0291  0.0732
  137loPI   GL1 2181  12.926   3.332  10.190 -0.1688 -0.1479 -0.0171
  137loPI   GL2 2182  13.061   3.004  10.237 -0.0290  0.0537  0.1377
  137loPI   C1A 2183  12.895   3.294   9.730 -0.1905 -0.3549  0.0647
  137loPI   C2A 2184  12.960   2.924   9.460 -0.1072 -0.2809  0.0233
  137loPI   C3A 2185  12.878   2.602   9.300  0.2966  0.0634  0.1529
  137loPI   C4A 2186  12.955   2.448   8.948 -0.3072 -0.0571 -0.2073
  137loPI   C5A 2187  12.846   2.237   8.628  0.1031 -0.0283  0.0718
  137loPI   C6A 2188  12.826   2.408   8.222  0.2379  0.1251 -0.2695
  137loPI   C1B 2189  12.832   2.804   9.964  0.2147  0.1321 -0.0035
  137loPI   C2B 2190  12.823   2.504   9.732 -0.1581  0.1694 -0.3530
  137loPI   C3B 2191  12.787   2.077   9.435  0.1425 -0.1862 -0.1595
  137loPI   C4B 2192  12.886   1.933   9.044 -0.0132 -0.3307 -0.1974
  138loPI    C1 2193   4.555  14.366  10.377  0.0813  0.0136  0.1341
  138loPI    C2 2194   4.506  14.728  10.539 -0.0358 -0.0479  0.2367
  138loPI    C3 2195   4.258  14.429  10.636 -0.1166 -0.0824 -0.0661
  138loPI   PO4 2196   4.637  14.429  10.129 -0.0231 -0.3263 -0.1562
  138loPI   GL1 2197   4.823  14.343   9.678 -0.0873  0.1776  0.2353
  138loPI   GL2 2198   4.312  14.436   9.656  0.2749  0.0179 -0.0561
  138loPI   C1A 2199   4.583  14.233   9.296 -0.2898  0.0205  0.1283
  138loPI   C2A 2200   4.426  14.303   8.964 -0.2424  0.2387 -0.0513
  138loPI   C3A 2201   4.514  14.436   8.518  0.0789 -0.2339 -0.0147
  138loPI   C4A 2202   4.534  14.465   8.069  0.0847  0.3699  0.0862
  138loPI   C5A 2203   4.501  14.241   7.629 -0.1013  0.2450  0.0710
  138loPI   C6A 2204   4.221  13.906   7.355 -0.1802  0.2449 -0.1225
  138loPI   C1B 2205   4.177  14.627   9.262  0.1087  0.3378  0.2442
  138loPI   C2B 2206   4.141  14.714   8.862  0.0346 -0.0666 -0.1252
  138loPI   C3B 2207   4.185  14.842   8.448  0.0572  0.0995  0.1552
  138loPI   C4B 2208   4.119  15.035   8.080 -0.2645  0.0844  0.0358
  139loPI    C1 2209  18.271   4.625   9.511 -0.1959  0.1374  0.0032
  139loPI    C2 2210  18.223   4.235   9.586 -0.1945  0.1554  0.0990
  139loPI    C3 2211  18.508   4.356   9.334 -0.3030  0.0838 -0.0600
  139loPI   PO4 2212  18.006   4.710   9.441  0.1644  0.0354  0.1918
  139loPI   GL1 2213  17.974   4.703   8.985  0.1536 -0.2798 -0.0846
  139loPI   GL2 2214  18.283   4.645   8.985 -0.2857  0.2443 -0.1353
  139loPI   C1A 2215  17.934   4.406   8.666 -0.0680  0.0698  0.1101
  139loPI   C2A 2216  18.026   4.345   8.290 -0.0640 -0.2420 -0.0375
  139loPI   C3A 2217  17.934   4.288   7.733  0.1877 -0.1163 -0.0288
  139loPI   C4A 2218  17.984   4.071   7.361 -0.0850 -0.0303  0.1495
  139loPI   C5A 2219  18.150   3.672   7.274  0.1987 -0.0948 -0.2262
  139loPI   C6A 2220  18.114   3.175   7.044 -0.2685 -0.0035  0.0915
  139loPI   C1B 2221  18.406   4.266   8.769 -0.0962  0.0754  0.1118
  139loPI   C2B 2222  18.528   4.211   8.367  0.2190  0.2462  0.3193
  139loPI   C3B 2223  18.409   4.191   8.007  0.0047  0.2001  0.0406
  139loPI   C4B 2224  18.323   3.908   7.665 -0.0520  0.1199  0.1361
  140loPI    C1 2225  11.445  14.070  10.503  0.0706  0.1153  0.1514
  140loPI    C2 2226  11.278  13.867  10.804  0.1056  0.0611  0.1341
  140loPI    C3 2227  11.280  14.267  10.810 -0.2808  0.0695 -0.0030
  140loPI   PO4 2228  11.624  13.883  10.413  0.2793 -0.1938  0.2487
  140loPI   GL1 2229  11.683  13.757  10.005  0.1496 -0.1023 -0.2644
  140loPI   GL2 2230  11.810  14.037   9.968 -0.0759 -0.2202  0.3639
  140loPI   C1A 2231  11.460  13.647   9.767 -0.1099 -0.1446  0.2423
  140loPI   C2A 2232  11.379  13.591   9.361 -0.4686 -0.1190 -0.0660
  140loPI   C3A 2233  11.338  13.896   9.070  0.0748 -0.0983 -0.0961
  140loPI   C4A 2234  11.463  13.972   8.542  0.2684  0.3163  0.1774
  140loPI   C5A 2235  11.539  14.142   8.154 -0.1606  0.2631 -0.0830
  140loPI   C6A 2236  11.887  14.123   7.882 -0.1139  0.5021 -0.2748
  140loPI   C1B 2237  11.457  14.103   9.713  0.0891  0.1117  0.1916
  140loPI   C2B 2238  11.316  14.339   9.297  0.1455  0.2545  0.0008
  140loPI   C3B 2239  11.453  14.391   8.898 -0.2711 -0.1657 -0.2898
  140loPI   C4B 2240  11.378  14.500   8.494  0.0272  0.0107  0.1755
  141loPI    C1 2241   6.634   0.163  10.359 -0.0275  0.3508 -0.0717
  141loPI    C2 2242   6.670   0.238  10.750 -0.1688 -0.2152  0.0591
  141loPI    C3 2243   6.968   0.060  10.553 -0.2606 -0.3080  0.0033
  141loPI   PO4 2244   6.360   0.078  10.324  0.0292 -0.1106  0.1743
  141loPI   GL1 2245   6.061   0.127  10.037  0.2394 -0.0503  0.1012
  141loPI   GL2 2246   6.017   0.519  10.033 -0.4212  0.0497 -0.2301
  141loPI   C1A 2247   6.015   0.224   9.563  0.1488 -0.2396  0.3811
  141loPI   C2A 2248   5.845   0.301   9.094  0.0317  0.3263  0.0260
  141loPI   C3A 2249   5.768   0.028   8.688 -0.1955  0.3168 -0.4331
  141loPI   C4A 2250   5.717  -0.085   8.348 -0.0395 -0.1750  0.0672
  141loPI   C5A 2251   5.653  -0.307   7.972 -0.1905 -0.1727 -0.0702
  141loPI   C6A 2252   5.950  -0.499   7.696  0.0112  0.1383 -0.2855
  141loPI   C1B 2253   5.883   0.688   9.656 -0.0540 -0.2712  0.1373
  141loPI   C2B 2254   5.968   0.734   9.289 -0.0275 -0.1478  0.0123
  141loPI   C3B 2255   6.347   0.799   9.034 -0.2545 -0.0739 -0.0669
  141loPI   C4B 2256   6.669   0.746   9.146  0.0871 -0.0639  0.0862
  142loPI    C1 2257  16.039   4.765  10.128  0.0736 -0.4915  0.1284
  142loPI    C2 2258  15.859   4.557  10.418 -0.2628 -0.0062  0.2816
  142loPI    C3 2259  16.094   4.867  10.511 -0.0992 -0.0559  0.0439
  142loPI   PO4 2260  15.846   4.798   9.921 -0.0604  0.1838 -0.1009
  142loPI   GL1 2261  15.871   4.495   9.572 -0.0470  0.0816  0.1015
  142loPI   GL2 2262  16.236   4.465   9.401  0.0817 -0.0019  0.0752
  142loPI   C1A 2263  15.717   4.172   9.402  0.0336  0.0394 -0.2241
  142loPI   C2A 2264  15.737   3.762   9.426 -0.3477  0.0241 -0.3152
  142loPI   C3A 2265  15.507   3.539   9.121  0.1685 -0.3152 -0.3114
  142loPI   C4A 2266  15.299   3.600   8.756 -0.0284 -0.1983 -0.0602
  142loPI   C5A 2267  15.274   3.988   8.529  0.3096 -0.2248  0.2677
  142loPI   C6A 2268  15.284   4.391   8.796 -0.3506 -0.2574 -0.0108
  142loPI   C1B 2269  16.097   4.349   9.055  0.0494  0.3054  0.0074
  142loPI   C2B 2270  16.066   4.483   8.675  0.1072  0.0101  0.0159
  142loPI   C3B 2271  16.073   4.549   8.270  0.1224  0.1785  0.1408
  142loPI   C4B 2272  15.944   4.468   7.785  0.2599 -0.0132 -0.3578
  143loPI    C1 2273   6.944   0.622  10.514 -0.1024  0.5026 -0.3373
  143loPI    C2 2274   6.852   0.715  10.892 -0.0466 -0.1212 -0.1594
  143loPI    C3 2275   7.235   0.693  10.780 -0.0612 -0.0438 -0.2255
  143loPI   PO4 2276   6.855   0.707  10.375 -0.1599 -0.0266  0.0593
  143loPI   GL1 2277   7.029   0.644  10.008  0.2137 -0.0377 -0.1814
  143loPI   GL2 2278   7.058   0.322  10.078 -0.1884  0.0185  0.0186
  143loPI   C1A 2279   6.940   0.728   9.585  0.1626  0.1002  0.0411
  143loPI   C2A 2280   7.067   0.974   9.358  0.0278  0.0463  0.0596
  143loPI   C3A 2281   7.088   0.975   8.991 -0.1587  0.2970 -0.0373
  143loPI   C4A 2282   7.395   0.867   8.710  0.0313  0.0256  0.2637
  143loPI   C5A 2283   7.436   0.624   8.364  0.0512  0.3898  0.2606
  143loPI   C6A 2284   7.303   0.383   8.070  0.0778  0.0777  0.3257
  143loPI   C1B 2285   7.317   0.384   9.625 -0.0725 -0.0567  0.1913
  143loPI   C2B 2286   7.639   0.108   9.418  0.3767 -0.1001 -0.1027
  143loPI   C3B 2287   7.871   0.083   9.115 -0.0032 -0.0123 -0.1481
  143loPI   C4B 2288   8.051   0.205   8.776 -0.0901  0.0338 -0.0320
  144loPI    C1 2289  17.894   5.345   9.663  0.2048  0.2307 -0.1022
  144loPI    C2 2290  17.812   4.976   9.795  0.0188  0.3599  0.1529
  144loPI    C3 2291  18.189   5.109   9.795  0.0752  0.2018  0.1432
  144loPI   PO4 2292  17.720   5.297   9.383  0.1381  0.1699  0.1524
  144loPI   GL1 2293  17.597   5.074   8.968 -0.2202 -0.2117  0.1197
  144loPI   GL2 2294  17.631   5.307   8.907  0.0749  0.2510 -0.0413
  144loPI   C1A 2295  17.758   4.965   8.579  0.1945  0.0134  0.0279
  144loPI   C2A 2296  17.981   5.166   8.262  0.1286 -0.0412 -0.1677
  144loPI   C3A 2297  18.125   4.945   7.915 -0.2767  0.3998  0.1652
  144loPI   C4A 2298  18.209   4.752   7.514  0.2468 -0.0245 -0.0262
  144loPI   C5A 2299  18.470   4.680   7.198 -0.0989 -0.3909 -0.1317
  144loPI   C6A 2300  18.903   4.830   6.996  0.4668 -0.0458  0.0592
  144loPI   C1B 2301  18.090   5.345   8.767  0.2856  0.1864  0.2116
  144loPI   C2B 2302  18.274   5.521   8.420  0.1406  0.1401  0.3014
  144loPI   C3B 2303  18.367   5.390   7.988  0.0644 -0.0326 -0.1483
  144loPI   C4B 2304  18.507   5.504   7.570  0.1491 -0.2145  0.3234
  145loPI    C1 2305  17.636  10.411   9.922 -0.2371 -0.0552  0.0967
  145loPI    C2 2306  17.839  10.481  10.259 -0.1314  0.0174  0.0182
  145loPI    C3 2307  17.469  10.625  10.216 -0.1673 -0.0414  0.1267
  145loPI   PO4 2308  17.780  10.413   9.690  0.2590 -0.0539 -0.0900
  145loPI   GL1 2309  17.860  10.249   9.315 -0.0881 -0.1299 -0.0483
  145loPI   GL2 2310  17.622  10.470   9.216 -0.0828  0.0767 -0.2777
  145loPI   C1A 2311  17.859  10.006   8.901  0.0294  0.0382  0.1307
  145loPI   C2A 2312  17.638   9.976   8.483  0.3100 -0.0929  0.0175
  145loPI   C3A 2313  17.702   9.923   8.094 -0.1780 -0.1397  0.0162
  145loPI   C4A 2314  17.984   9.896   7.735  0.4672  0.0062  0.1129
  145loPI   C5A 2315  18.140   9.707   7.453  0.1935  0.1064  0.0581
  145loPI   C6A 2316  18.267   9.317   7.344  0.0652  0.0634  0.0631
  145loPI   C1B 2317  17.913  10.497   8.840  0.0970 -0.2289 -0.1825
  145loPI   C2B 2318  17.868  10.367   8.379 -0.0362 -0.1271 -0.0101
  145loPI   C3B 2319  18.218  10.320   8.038  0.4069 -0.2609 -0.3168
  145loPI   C4B 2320  18.452   9.980   7.749 -0.1626  0.0284 -0.1743
  146loPI    C1 2321  15.669  10.568   9.747  0.0580 -0.0858 -0.0323
  146loPI    C2 2322  15.748  10.363   9.413  0.0293 -0.0306 -0.0731
  146loPI    C3 2323  16.013  10.629   9.552  0.1867 -0.2877  0.1278
  146loPI   PO4 2324  15.440  10.725   9.698 -0.0914 -0.2826 -0.0731
  146loPI   GL1 2325  15.417  10.995   9.380 -0.1632 -0.2674  0.0324
  146loPI   GL2 2326  15.122  11.123   9.530 -0.0247  0.1905  0.1681
  146loPI   C1A 2327  15.772  10.736   9.132  0.3983  0.3724  0.0603
  146loPI   C2A 2328  15.837  10.387   8.835  0.1438 -0.1597  0.1549
  146loPI   C3A 2329  15.694  10.132   8.576 -0.0277  0.1078  0.2081
  146loPI   C4A 2330  15.795   9.995   8.112 -0.0130 -0.0259  0.0741
  146loPI   C5A 2331  15.829   9.821   7.744 -0.0827 -0.4225  0.2331
  146loPI   C6A 2332  15.726  10.067   7.357  0.0673  0.0600  0.1488
  146loPI   C1B 2333  14.816  11.290   9.214  0.0226  0.1903 -0.2371
  146loPI   C2B 2334  14.853  11.222   8.710  0.0879 -0.4867 -0.0963
  146loPI   C3B 2335  14.608  11.169   8.447 -0.2344  0.2061  0.1933
  146loPI   C4B 2336  14.429  11.424   8.068  0.3578  0.0039  0.3030
  147loPI    C1 2337  12.313   7.959  10.542  0.0116 -0.1830 -0.1523
  147loPI    C2 2338  12.640   7.779  10.686 -0.1240 -0.2646  0.0594
  147loPI    C3 2339  12.296   7.761  10.889 -0.1888  0.0693 -0.0148
  147loPI   PO4 2340  12.428   7.898  10.260 -0.1457 -0.0768 -0.0905
  147loPI   GL1 2341  12.561   8.170   9.986  0.1393 -0.0805  0.0834
  147loPI   GL2 2342  12.389   8.361   9.842 -0.0712  0.2168 -0.0417
  147loPI   C1A 2343  12.868   8.036   9.788 -0.1886 -0.3551 -0.0494
  147loPI   C2A 2344  13.044   8.218   9.402  0.0355  0.1523 -0.2314
  147loPI   C3A 2345  13.086   8.457   8.968 -0.1054 -0.0215 -0.3131
  147loPI   C4A 2346  12.927   8.450   8.475  0.3558 -0.1995 -0.0288
  147loPI   C5A 2347  13.122   8.244   8.150 -0.0816 -0.2591 -0.1026
  147loPI   C6A 2348  13.173   7.840   8.005 -0.0973 -0.0696  0.1623
  147loPI   C1B 2349  12.373   8.007   9.471 -0.0491 -0.2647 -0.5122
  147loPI   C2B 2350  12.198   8.043   9.044 -0.1926 -0.0765 -0.3232
  147loPI   C3B 2351  12.218   8.108   8.648 -0.5272 -0.1207  0.1188
  147loPI   C4B 2352  12.465   8.389   8.296 -0.1625 -0.1156 -0.0418
  148loPI    C1 2353   2.162   1.085   9.963 -0.0403 -0.0724 -0.0457
  148loPI    C2 2354   2.427   0.810  10.082  0.0893 -0.0238 -0.2164
  148loPI    C3 2355   2.552   1.137   9.891 -0.0628  0.1615 -0.0043
  148loPI   PO4 2356   2.002   0.993   9.767 -0.1303 -0.0327  0.2247
  148loPI   GL1 2357   2.047   1.102   9.364  0.1552  0.0817 -0.0791
  148loPI   GL2 2358   2.329   0.924   9.439 -0.3172  0.0655  0.1191
  148loPI   C1A 2359   2.065   1.317   8.994  0.0693 -0.2184  0.0629
  148loPI   C2A 2360   1.971   1.432   8.574 -0.1420  0.0153 -0.2458
  148loPI   C3A 2361   1.947   1.439   8.222  0.3011 -0.0748  0.1102
  148loPI   C4A 2362   1.915   1.117   7.918  0.0288 -0.0487 -0.0449
  148loPI   C5A 2363   1.962   1.047   7.555 -0.4233 -0.1844 -0.2534
  148loPI   C6A 2364   2.314   0.662   7.378  0.2062  0.0714 -0.0895
  148loPI   C1B 2365   2.407   0.925   9.025 -0.0425 -0.0195  0.0736
  148loPI   C2B 2366   2.412   1.108   8.581 -0.1189 -0.1177 -0.0265
  148loPI   C3B 2367   2.422   1.221   8.177 -0.1840  0.2823  0.0821
  148loPI   C4B 2368   2.802   1.370   7.889  0.0042  0.0362 -0.1223
  149loPI    C1 2369   7.213  17.232  10.747  0.4932  0.0446  0.1282
  149loPI    C2 2370   7.054  17.548  10.934  0.1588 -0.0533  0.0151
  149loPI    C3 2371   7.016  17.183  11.092  0.0974 -0.1027 -0.1121
  149loPI   PO4 2372   7.323  17.402  10.476 -0.0276 -0.0651  0.0619
  149loPI   GL1 2373   7.316  17.668  10.143 -0.1346  0.3709 -0.0133
  149loPI   GL2 2374   7.135  17.397   9.961 -0.0682  0.1018 -0.0329
  149loPI   C1A 2375   7.334  17.730   9.626 -0.0183  0.0204 -0.0672
  149loPI   C2A 2376   7.151  17.533   9.200 -0.2111  0.2318  0.2765
  149loPI   C3A 2377   7.152  17.592   8.824  0.0491 -0.3103  0.0231
  149loPI   C4A 2378   7.099  17.536   8.388  0.1527  0.2798 -0.0125
  149loPI   C5A 2379   7.442  17.549   8.044 -0.1244 -0.1147  0.0544
  149loPI   C6A 2380   7.830  17.426   8.034 -0.1742 -0.1860  0.2361
  149loPI   C1B 2381   7.304  17.198   9.565  0.0352 -0.2060 -0.0509
  149loPI   C2B 2382   7.443  17.143   9.092 -0.3175  0.1455  0.1127
  149loPI   C3B 2383   7.419  17.195   8.635 -0.1141  0.2162  0.1335
  149loPI   C4B 2384   7.249  17.075   8.289 -0.0704  0.1182 -0.1341
  150loPI    C1 2385   1.490   0.164   9.679 -0.0897 -0.0307 -0.0146
  150loPI    C2 2386   1.364   0.364  10.001  0.0754 -0.1055  0.0980
  150loPI    C3 2387   1.237  -0.010   9.935  0.0366 -0.0879  0.0727
  150loPI   PO4 2388   1.769   0.192   9.709  0.0249  0.1436 -0.0859
  150loPI   GL1 2389   2.011   0.075   9.424  0.2851 -0.0547  0.1547
  150loPI   GL2 2390   1.935  -0.256   9.314 -0.0401 -0.0405  0.0100
  150loPI   C1A 2391   2.020   0.196   8.980 -0.0858 -0.1456  0.1500
  150loPI   C2A 2392   1.949   0.190   8.556 -0.3477 -0.0222 -0.2256
  150loPI   C3A 2393   2.222   0.317   8.227  0.2496 -0.2080  0.1199
  150loPI   C4A 2394   2.021   0.446   7.879 -0.1139 -0.2737 -0.0780
  150loPI   C5A 2395   1.849   0.559   7.591  0.4224  0.0021  0.0769
  150loPI   C6A 2396   1.458   0.522   7.408 -0.5034 -0.2435 -0.1630
  150loPI   C1B 2397   1.961  -0.323   8.815 -0.0147  0.0599 -0.3028
  150loPI   C2B 2398   2.008  -0.335   8.432  0.0186  0.0593  0.1121
  150loPI   C3B 2399   1.976  -0.415   8.019  0.1475  0.1641 -0.0537
  150loPI   C4B 2400   1.872  -0.226   7.616  0.0451 -0.0375 -0.2382
  151loPI    C1 2401  17.252   5.175   9.535 -0.0640 -0.2682 -0.0264
  151loPI    C2 2402  17.288   4.867   9.787  0.0307 -0.0798  0.1944
  151loPI    C3 2403  17.409   5.231   9.899  0.0271  0.0166 -0.1070
  151loPI   PO4 2404  17.084   4.965   9.375  0.4400  0.2029 -0.0806
  151loPI   GL1 2405  17.041   4.913   8.984  0.2385 -0.0423  0.2158
  151loPI   GL2 2406  16.882   4.742   8.795  0.0813  0.2129 -0.3921
  151loPI   C1A 2407  17.201   5.098   8.688  0.0025  0.3931  0.0852
  151loPI   C2A 2408  17.475   5.307   8.350 -0.0363  0.3528 -0.1170
  151loPI   C3A 2409  17.642   5.260   7.981 -0.1124 -0.0147  0.1989
  151loPI   C4A 2410  17.962   5.289   7.619  0.3326  0.0842 -0.1423
  151loPI   C5A 2411  18.196   5.296   7.288  0.1363 -0.0487 -0.1365
  151loPI   C6A 2412  18.567   5.166   7.146 -0.0804 -0.1361  0.1916
  151loPI   C1B 2413  17.074   4.754   8.376 -0.0602 -0.1644 -0.1249
  151loPI   C2B 2414  17.189   4.864   7.979 -0.0521 -0.0221 -0.1514
  151loPI   C3B 2415  17.182   4.630   7.530  0.0674  0.1248 -0.0948
  151loPI   C4B 2416  17.125   4.469   7.097  0.0519 -0.0858 -0.0521
  152loPI    C1 2417  12.645  11.357  10.356 -0.1449 -0.1294  0.0356
  152loPI    C2 2418  12.954  11.494  10.570 -0.1741  0.0218 -0.0172
  152loPI    C3 2419  12.756  11.168  10.690 -0.0622 -0.0128  0.0749
  152loPI   PO4 2420  12.629  11.579  10.206 -0.2987 -0.0968  0.2720
  152loPI   GL1 2421  12.415  11.774   9.892 -0.2391  0.0592  0.4466
  152loPI   GL2 2422  12.432  12.094   9.936  0.1292  0.0647 -0.2553
  152loPI   C1A 2423  12.372  11.509   9.549  0.0113 -0.3196  0.0788
  152loPI   C2A 2424  12.378  11.699   9.126 -0.2035  0.2713  0.1197
  152loPI   C3A 2425  12.162  11.700   8.769  0.3331  0.1253 -0.2572
  152loPI   C4A 2426  12.212  11.509   8.377  0.1442 -0.1268 -0.0700
  152loPI   C5A 2427  12.281  11.285   8.084  0.1572 -0.3360  0.1182
  152loPI   C6A 2428  12.233  11.148   7.669  0.0442  0.1023  0.3652
  152loPI   C1B 2429  12.491  12.075   9.452 -0.1075  0.3348  0.1947
  152loPI   C2B 2430  12.538  12.105   8.949 -0.0964  0.0354 -0.1108
  152loPI   C3B 2431  12.557  11.954   8.542  0.1073 -0.0175  0.3251
  152loPI   C4B 2432  12.347  11.936   8.079 -0.1716 -0.0035  0.2406
  153loPI    C1 2433  10.219  13.800  10.687 -0.1355 -0.0181  0.2472
  153loPI    C2 2434  10.479  13.755  10.988 -0.0193  0.1831  0.1790
  153loPI    C3 2435  10.113  13.899  11.060 -0.0133  0.1714  0.2331
  153loPI   PO4 2436  10.214  13.591  10.604 -0.4167 -0.0780 -0.1159
  153loPI   GL1 2437  10.277  13.274  10.254 -0.0394  0.0840 -0.1723
  153loPI   GL2 2438  10.161  13.189  10.114 -0.0239  0.1394  0.0671
  153loPI   C1A 2439  10.461  13.460   9.820 -0.5011 -0.0314  0.0674
  153loPI   C2A 2440  10.551  13.408   9.413 -0.0991 -0.1509  0.0169
  153loPI   C3A 2441  10.300  13.562   9.056  0.2451 -0.2275  0.1793
  153loPI   C4A 2442  10.316  13.491   8.593 -0.0990 -0.0563  0.3689
  153loPI   C5A 2443  10.556  13.512   8.268  0.1688 -0.2115 -0.2499
  153loPI   C6A 2444  10.563  13.902   8.095 -0.1087  0.0284 -0.2424
  153loPI   C1B 2445  10.084  13.177   9.652  0.0584  0.1438 -0.1176
  153loPI   C2B 2446  10.023  13.199   9.259  0.0394 -0.0301  0.1602
  153loPI   C3B 2447  10.016  13.130   8.820  0.1434 -0.2211 -0.2138
  153loPI   C4B 2448  10.030  13.159   8.348 -0.0311 -0.1440 -0.1310
  154loPI    C1 2449  16.508  17.153  10.207 -0.1041 -0.2853  0.1186
  154loPI    C2 2450  16.117  17.183  10.129  0.0027  0.0042 -0.3494
  154loPI    C3 2451  16.278  17.393  10.428 -0.1846 -0.0593 -0.2023
  154loPI   PO4 2452  16.585  17.075   9.894  0.4900  0.0063 -0.1304
  154loPI   GL1 2453  16.451  17.291   9.445  0.1016  0.0948  0.1824
  154loPI   GL2 2454  16.240  17.025   9.455  0.2251 -0.0149 -0.0335
  154loPI   C1A 2455  16.431  17.363   9.007 -0.4150 -0.1051 -0.2309
  154loPI   C2A 2456  16.248  17.524   8.629  0.2141 -0.1705 -0.0786
  154loPI   C3A 2457  15.978  17.697   8.460 -0.0110 -0.0443  0.1360
  154loPI   C4A 2458  15.654  17.630   8.103 -0.0391  0.2565 -0.2427
  154loPI   C5A 2459  15.224  17.715   8.066  0.1746  0.1554 -0.0502
  154loPI   C6A 2460  14.826  17.603   8.066  0.0322  0.1573 -0.2517
  154loPI   C1B 2461  16.165  16.687   9.162  0.6652 -0.4515  0.1333
  154loPI   C2B 2462  15.963  16.706   8.745  0.1597 -0.0295  0.1265
  154loPI   C3B 2463  16.008  16.557   8.310  0.1578 -0.1141 -0.2740
  154loPI   C4B 2464  15.896  16.371   7.910  0.2397  0.1876 -0.3506
  155loPI    C1 2465  15.944  12.747   9.963 -0.0154  0.4928 -0.2859
  155loPI    C2 2466  15.673  12.663  10.246  0.0680  0.1336 -0.3082
  155loPI    C3 2467  16.043  12.776  10.349  0.1004 -0.0037 -0.2723
  155loPI   PO4 2468  15.816  12.670   9.748  0.0741  0.1049  0.0641
  155loPI   GL1 2469  15.591  12.784   9.441 -0.0555  0.3220  0.4488
  155loPI   GL2 2470  15.345  12.988   9.370 -0.0113  0.1636  0.1313
  155loPI   C1A 2471  15.705  12.669   9.090 -0.1988 -0.0367 -0.1046
  155loPI   C2A 2472  15.606  12.677   8.690 -0.2613 -0.0074 -0.0512
  155loPI   C3A 2473  15.333  12.562   8.351  0.0377 -0.0153  0.0767
  155loPI   C4A 2474  15.135  12.672   7.923 -0.2717  0.0797  0.2300
  155loPI   C5A 2475  14.861  12.962   7.707 -0.1014 -0.1766  0.2153
  155loPI   C6A 2476  14.609  13.330   7.549 -0.1344  0.0141  0.0975
  155loPI   C1B 2477  15.217  13.119   8.967  0.0135  0.0790 -0.0436
  155loPI   C2B 2478  15.263  13.062   8.628  0.3028  0.3191 -0.1759
  155loPI   C3B 2479  15.061  13.164   8.211  0.2270 -0.1400 -0.0682
  155loPI   C4B 2480  14.955  13.391   7.898  0.2910 -0.1270 -0.1454
  156loPI    C1 2481   3.685  13.530   9.808 -0.1266 -0.2771  0.0506
  156loPI    C2 2482   3.523  13.486  10.172 -0.1929  0.1274  0.0745
  156loPI    C3 2483   3.312  13.657   9.878 -0.0344  0.0718 -0.0736
  156loPI   PO4 2484   3.830  13.315   9.775 -0.0808  0.0277  0.0356
  156loPI   GL1 2485   4.070  13.277   9.467  0.1922 -0.5205 -0.0561
  156loPI   GL2 2486   4.009  13.531   9.339  0.1783  0.2797  0.2707
  156loPI   C1A 2487   4.023  13.064   9.122 -0.1228 -0.2522  0.1555
  156loPI   C2A 2488   3.863  13.120   8.632  0.1151 -0.0395  0.2185
  156loPI   C3A 2489   3.790  13.173   8.175  0.0970  0.1420  0.3915
  156loPI   C4A 2490   3.463  13.311   7.890  0.4134  0.3437  0.1628
  156loPI   C5A 2491   3.372  13.603   7.528  0.0760 -0.0536  0.2978
  156loPI   C6A 2492   3.074  13.900   7.514  0.0851  0.1521  0.1551
  156loPI   C1B 2493   3.988  13.611   8.926  0.3281  0.1808  0.1094
  156loPI   C2B 2494   3.924  13.719   8.470  0.1622  0.0372  0.0778
  156loPI   C3B 2495   3.942  13.605   7.985  0.0727  0.1333  0.2360
  156loPI   C4B 2496   4.188  13.536   7.640 -0.0503 -0.4323  0.1425
  157loPI    C1 2497  13.243   0.676  10.394  0.0248  0.2513  0.3411
  157loPI    C2 2498  12.874   0.629  10.541 -0.2774 -0.3029 -0.5184
  157loPI    C3 2499  13.139   0.330  10.567  0.2067  0.1603  0.2714
  157loPI   PO4 2500  13.182   0.789  10.132 -0.1146  0.0845 -0.1486
  157loPI   GL1 2501  12.967   0.774   9.771  0.3375 -0.1705  0.0201
  157loPI   GL2 2502  13.185   0.497   9.726  0.1903 -0.0564  0.4266
  157loPI   C1A 2503  12.868   0.816   9.256  0.1158  0.1629 -0.0285
  157loPI   C2A 2504  12.806   0.542   8.864 -0.0884  0.1418  0.2962
  157loPI   C3A 2505  12.666   0.351   8.540 -0.0354  0.0122  0.0581
  157loPI   C4A 2506  12.566   0.068   8.291 -0.1523  0.0478 -0.2360
  157loPI   C5A 2507  12.399  -0.192   7.994  0.2036 -0.0854  0.0616
  157loPI   C6A 2508  12.412  -0.585   7.689 -0.0203  0.2069  0.1485
  157loPI   C1B 2509  13.194   0.399   9.346 -0.0228  0.0915  0.1328
  157loPI   C2B 2510  13.274   0.513   8.996 -0.1622  0.2685 -0.0260
  157loPI   C3B 2511  13.185   0.318   8.564 -0.0724 -0.1894  0.1393
  157loPI   C4B 2512  12.966   0.277   8.098 -0.1950  0.3794 -0.2394
  158loPI    C1 2513   1.452   2.065  10.032  0.0886 -0.0270 -0.1462
  158loPI    C2 2514   1.679   2.007  10.356  0.0464  0.0576 -0.1012
  158loPI    C3 2515   1.280   2.014  10.389  0.0204 -0.4163 -0.2297
  158loPI   PO4 2516   1.660   1.828   9.855 -0.0538  0.1002  0.0430
  158loPI   GL1 2517   1.583   1.844   9.463  0.0619  0.2521 -0.2265
  158loPI   GL2 2518   1.729   1.529   9.329  0.1486  0.2048  0.2686
  158loPI   C1A 2519   1.696   2.005   9.055 -0.0631  0.1295 -0.0997
  158loPI   C2A 2520   1.795   1.894   8.609 -0.1498  0.0922  0.2226
  158loPI   C3A 2521   2.154   1.940   8.267 -0.2622 -0.0607  0.0073
  158loPI   C4A 2522   2.561   1.866   7.888  0.2884  0.0382  0.3917
  158loPI   C5A 2523   3.016   1.797   7.811  0.1331  0.4899 -0.2575
  158loPI   C6A 2524   3.213   1.748   7.362  0.2577  0.2206  0.1332
  158loPI   C1B 2525   1.604   1.585   8.909  0.0667  0.3522 -0.0173
  158loPI   C2B 2526   1.402   1.462   8.497  0.1650 -0.0635 -0.0952
  158loPI   C3B 2527   1.413   1.501   8.135  0.1355 -0.1541 -0.0360
  158loPI   C4B 2528   1.541   1.375   7.707  0.0954 -0.1524 -0.3351
  159loPI    C1 2529  10.861  11.090  10.706 -0.1919  0.0520  0.2955
  159loPI    C2 2530  10.691  11.418  10.554 -0.1383 -0.1100 -0.1273
  159loPI    C3 2531  10.463  11.129  10.711 -0.2120 -0.0534 -0.1300
  159loPI   PO4 2532  10.979  10.972  10.547  0.0773  0.0260 -0.3654
  159loPI   GL1 2533  11.057  11.152  10.060  0.2504 -0.0170  0.2655
  159loPI   GL2 2534  11.106  10.835   9.929  0.1254 -0.1346 -0.2229
  159loPI   C1A 2535  11.446  11.150   9.817 -0.3078 -0.1875 -0.2880
  159loPI   C2A 2536  11.546  11.247   9.266 -0.1368  0.1909  0.2160
  159loPI   C3A 2537  11.495  11.074   8.876  0.1297  0.0196  0.0092
  159loPI   C4A 2538  11.459  11.083   8.428 -0.2145 -0.1254 -0.0752
  159loPI   C5A 2539  11.168  11.318   8.201  0.2399  0.1326  0.0782
  159loPI   C6A 2540  11.213  11.274   7.835  0.0778 -0.0350  0.3561
  159loPI   C1B 2541  11.130  10.906   9.418 -0.1766  0.2283 -0.1992
  159loPI   C2B 2542  11.115  10.811   8.996  0.2424  0.0420 -0.0871
  159loPI   C3B 2543  11.162  10.712   8.592 -0.2593  0.0006  0.1056
  159loPI   C4B 2544  11.162  10.740   8.162  0.1906 -0.1755  0.3100
  160loPI    C1 2545  12.671   1.558  10.555  0.0180 -0.0355  0.2326
  160loPI    C2 2546  12.640   1.177  10.675 -0.3277  0.0309  0.3669
  160loPI    C3 2547  12.631   1.474  10.944  0.1244  0.1315  0.2807
  160loPI   PO4 2548  12.661   1.498  10.216 -0.3246  0.0334 -0.2007
  160loPI   GL1 2549  12.721   1.668   9.909  0.2243  0.1622  0.0688
  160loPI   GL2 2550  12.312   1.692   9.826  0.1603  0.3223 -0.0747
  160loPI   C1A 2551  12.653   1.573   9.502 -0.1843  0.1297 -0.2336
  160loPI   C2A 2552  12.372   1.716   9.219 -0.1340  0.0611  0.1798
  160loPI   C3A 2553  12.401   1.898   8.790  0.0081 -0.0130  0.0397
  160loPI   C4A 2554  12.370   2.360   8.709 -0.3407 -0.2173 -0.2025
  160loPI   C5A 2555  12.595   2.788   8.606 -0.1738 -0.0095 -0.0999
  160loPI   C6A 2556  12.897   2.855   8.356  0.2272  0.2654  0.1106
  160loPI   C1B 2557  12.052   1.870   9.553  0.0465 -0.1541 -0.0817
  160loPI   C2B 2558  11.891   2.134   9.218  0.1101  0.0728  0.0470
  160loPI   C3B 2559  11.866   2.203   8.796  0.1729 -0.1567 -0.0762
  160loPI   C4B 2560  11.713   2.089   8.444  0.0355  0.1703  0.1479
  161loPI    C1 2561  13.941   0.033  10.178 -0.1992 -0.0410 -0.1296
  161loPI    C2 2562  14.227  -0.197  10.338 -0.0747  0.3548  0.2383
  161loPI    C3 2563  14.059  -0.299   9.989  0.1437 -0.1583  0.2745
  161loPI   PO4 2564  14.096   0.268  10.183 -0.3179 -0.3437 -0.1444
  161loPI   GL1 2565  14.229   0.435   9.715  0.0909 -0.3187 -0.1890
  161loPI   GL2 2566  14.083   0.064   9.628  0.0273 -0.0920  0.0792
  161loPI   C1A 2567  14.217   0.543   9.327  0.0233  0.1019 -0.5573
  161loPI   C2A 2568  14.124   0.391   8.964 -0.0679 -0.0631  0.0140
  161loPI   C3A 2569  14.000   0.119   8.609  0.3900 -0.4008  0.3486
  161loPI   C4A 2570  13.732   0.205   8.271 -0.0650 -0.1633 -0.2839
  161loPI   C5A 2571  13.405   0.495   8.123 -0.0486  0.0351 -0.0822
  161loPI   C6A 2572  13.465   0.884   8.154 -0.5336 -0.1484 -0.1556
  161loPI   C1B 2573  13.768   0.110   9.229  0.1364 -0.1325  0.0061
  161loPI   C2B 2574  13.565   0.147   8.805  0.0611 -0.0292  0.2409
  161loPI   C3B 2575  13.407  -0.120   8.454  0.0424 -0.0935  0.1035
  161loPI   C4B 2576  13.439  -0.473   8.185  0.4236  0.0094  0.1155
  162loPI    C1 2577   0.647   6.691   9.570  0.0863 -0.1181  0.1306
  162loPI    C2 2578   0.903   6.552   9.844 -0.1149  0.0160  0.3920
  162loPI    C3 2579   0.718   6.901   9.903 -0.1196  0.0736  0.0560
  162loPI   PO4 2580   0.713   6.637   9.352  0.2345 -0.0382  0.0034
  162loPI   GL1 2581   0.782   6.976   9.020 -0.1556 -0.1611  0.0872
  162loPI   GL2 2582   1.004   6.638   8.940 -0.0692  0.2113 -0.0610
  162loPI   C1A 2583   0.854   7.041   8.584 -0.1152 -0.0327 -0.0669
  162loPI   C2A 2584   0.931   7.025   8.249  0.1882  0.2817  0.2047
  162loPI   C3A 2585   1.138   7.155   7.922 -0.3898  0.0155  0.0083
  162loPI   C4A 2586   1.341   7.043   7.670 -0.0890  0.3770  0.2601
  162loPI   C5A 2587   1.484   6.695   7.438 -0.4807  0.0986 -0.1630
  162loPI   C6A 2588   1.890   6.564   7.363 -0.1110 -0.1541  0.3734
  162loPI   C1B 2589   1.009   6.548   8.471 -0.0644 -0.1414  0.2430
  162loPI   C2B 2590   0.912   6.306   8.178  0.2774  0.0247 -0.2723
  162loPI   C3B 2591   0.828   6.303   7.853  0.1402  0.4109  0.1540
  162loPI   C4B 2592   0.395   6.330   7.673 -0.0225 -0.1604  0.1783
  163loPI    C1 2593  10.008   2.855  10.626 -0.0330 -0.4480  0.1147
  163loPI    C2 2594  10.055   3.168  10.871 -0.1039 -0.2700 -0.0966
  163loPI    C3 2595  10.300   2.853  10.900  0.0398 -0.1473  0.0429
  163loPI   PO4 2596   9.978   2.955  10.377 -0.1368 -0.1492  0.1188
  163loPI   GL1 2597  10.102   2.926   9.974  0.1031  0.0494 -0.0974
  163loPI   GL2 2598  10.124   3.296   9.859 -0.2800  0.0629 -0.2185
  163loPI   C1A 2599  10.059   2.856   9.648 -0.0600  0.0530  0.0787
  163loPI   C2A 2600  10.126   2.900   9.223 -0.1588 -0.0043  0.3437
  163loPI   C3A 2601  10.059   3.125   8.891  0.0312  0.5360 -0.0849
  163loPI   C4A 2602  10.253   3.200   8.538  0.0923 -0.0760  0.1397
  163loPI   C5A 2603  10.501   3.213   8.112  0.1671  0.2260  0.3828
  163loPI   C6A 2604  10.444   3.014   7.667 -0.1670  0.0047 -0.0010
  163loPI   C1B 2605  10.067   3.539   9.496 -0.2367 -0.2400  0.3730
  163loPI   C2B 2606   9.981   3.673   9.065 -0.0275 -0.1887  0.2700
  163loPI   C3B 2607   9.963   3.641   8.699  0.0938 -0.0997  0.3626
  163loPI   C4B 2608   9.931   3.774   8.309  0.0794 -0.0846  0.1381
  164loPI    C1 2609  13.369  17.663  10.503  0.1736  0.1545  0.0584
  164loPI    C2 2610  12.974  17.671  10.445  0.1368 -0.1225  0.2499
  164loPI    C3 2611  13.124  17.749  10.807  0.2697  0.1319  0.1427
  164loPI   PO4 2612  13.487  17.719  10.252  0.0835  0.0102 -0.2025
  164loPI   GL1 2613  13.818  17.914   9.882 -0.4220 -0.0202  0.0290
  164loPI   GL2 2614  13.560  17.726   9.761 -0.2292 -0.0615  0.0126
  164loPI   C1A 2615  13.919  17.819   9.363 -0.0488 -0.0955  0.1254
  164loPI   C2A 2616  14.154  18.006   9.105 -0.1063 -0.1883  0.1983
  164loPI   C3A 2617  14.355  18.138   8.819 -0.1183 -0.1898 -0.2344
  164loPI   C4A 2618  14.382  18.273   8.385 -0.1565  0.0343  0.1603
  164loPI   C5A 2619  14.384  18.440   8.070 -0.0084  0.2004  0.1160
  164loPI   C6A 2620  14.641  18.454   7.714 -0.0800 -0.2415 -0.1022
  164loPI   C1B 2621  13.357  17.915   9.455 -0.0385 -0.1479  0.0141
  164loPI   C2B 2622  13.506  17.863   8.961 -0.0440 -0.2482  0.1971
  164loPI   C3B 2623  13.375  17.859   8.558 -0.2500 -0.0998 -0.0661
  164loPI   C4B 2624  13.303  17.443   8.269 -0.2426 -0.0493  0.1240
  165loPI    C1 2625   1.165   0.859   9.954 -0.4851 -0.1460 -0.1861
  165loPI    C2 2626   1.060   1.139  10.219 -0.0509  0.0814 -0.2461
  165loPI    C3 2627   1.143   0.769  10.343 -0.0516  0.1326 -0.0908
  165loPI   PO4 2628   1.283   0.991   9.798  0.0850 -0.0676  0.0729
  165loPI   GL1 2629   1.611   0.957   9.413 -0.0160  0.1570 -0.1602
  165loPI   GL2 2630   1.439   0.655   9.475  0.3128 -0.2386  0.3916
  165loPI   C1A 2631   1.677   0.986   9.003  0.2330 -0.0376  0.1465
  165loPI   C2A 2632   1.650   1.014   8.613  0.1646  0.0504 -0.0562
  165loPI   C3A 2633   1.525   0.958   8.227 -0.1424  0.4751 -0.1106
  165loPI   C4A 2634   1.420   0.876   7.747 -0.2227 -0.0387 -0.1010
  165loPI   C5A 2635   1.537   0.986   7.406  0.1688 -0.4619 -0.0993
  165loPI   C6A 2636   1.753   1.313   7.176 -0.0773 -0.3192  0.0814
  165loPI   C1B 2637   1.574   0.490   9.180 -0.0943 -0.0955  0.1244
  165loPI   C2B 2638   1.599   0.510   8.759 -0.0569 -0.0446  0.2677
  165loPI   C3B 2639   1.555   0.426   8.370  0.0558 -0.1420  0.1713
  165loPI   C4B 2640   1.468   0.423   7.986 -0.0351 -0.2406  0.2998
  166loPI    C1 2641  18.614   3.443  10.041  0.1106 -0.1378 -0.0760
  166loPI    C2 2642  18.969   3.259  10.032  0.2870  0.1951 -0.0879
  166loPI    C3 2643  18.884   3.515  10.327  0.0302  0.0693 -0.0503
  166loPI   PO4 2644  18.588   3.450   9.779 -0.3934 -0.2066  0.3475
  166loPI   GL1 2645  18.328   3.334   9.392  0.0512  0.2533 -0.2463
  166loPI   GL2 2646  18.452   3.412   9.115 -0.2202  0.0158  0.3526
  166loPI   C1A 2647  17.941   3.411   9.055 -0.0909 -0.2385 -0.1353
  166loPI   C2A 2648  18.057   3.286   8.675 -0.0267  0.3203 -0.1482
  166loPI   C3A 2649  18.024   3.405   8.273  0.1339  0.1202 -0.2003
  166loPI   C4A 2650  18.149   3.492   7.842  0.0356  0.0401 -0.0173
  166loPI   C5A 2651  18.400   3.285   7.588  0.2058  0.0796  0.1579
  166loPI   C6A 2652  18.460   2.897   7.724  0.2341 -0.3617  0.2245
  166loPI   C1B 2653  18.482   3.575   8.571 -0.2141  0.1971 -0.0565
  166loPI   C2B 2654  18.440   3.696   8.138  0.2568  0.0611  0.2560
  166loPI   C3B 2655  18.767   3.584   7.873 -0.4270  0.3709 -0.2460
  166loPI   C4B 2656  18.860   3.420   7.463 -0.2687  0.2698 -0.2290
  167loPI    C1 2657   8.647   7.128  10.041  0.0289  0.3486  0.2019
  167loPI    C2 2658   8.251   7.121  10.101  0.0009  0.2279  0.0091
  167loPI    C3 2659   8.494   7.264  10.385 -0.1583  0.0387  0.2449
  167loPI   PO4 2660   8.681   7.221   9.817 -0.0250 -0.0391  0.2124
  167loPI   GL1 2661   8.745   7.073   9.431  0.4558  0.0234 -0.2212
  167loPI   GL2 2662   9.091   7.205   9.505  0.0692  0.2790 -0.1268
  167loPI   C1A 2663   8.969   7.064   8.979 -0.3352  0.3550  0.1042
  167loPI   C2A 2664   8.982   7.088   8.558  0.4692  0.0861 -0.0679
  167loPI   C3A 2665   9.146   7.336   8.304 -0.1378 -0.1879  0.0029
  167loPI   C4A 2666   9.123   7.569   7.981  0.0430 -0.1880  0.1129
  167loPI   C5A 2667   8.757   7.921   7.951  0.0962  0.0818 -0.3210
  167loPI   C6A 2668   8.299   8.027   7.852  0.1601  0.0106  0.0404
  167loPI   C1B 2669   9.136   7.487   9.209 -0.0861 -0.0554 -0.1338
  167loPI   C2B 2670   9.148   7.611   8.857 -0.1437  0.0156 -0.0477
  167loPI   C3B 2671   9.149   7.795   8.479 -0.0042  0.2145 -0.2408
  167loPI   C4B 2672   8.771   7.829   8.456 -0.1831  0.0897  0.1907
  168loPI    C1 2673   9.399  11.843  10.583 -0.3503  0.1157 -0.1369
  168loPI    C2 2674   9.074  11.742  10.795 -0.0958  0.0228  0.2192
  168loPI    C3 2675   9.387  11.912  10.977 -0.0240  0.3080 -0.1572
  168loPI   PO4 2676   9.225  11.901  10.303  0.1439  0.1190 -0.2049
  168loPI   GL1 2677   9.335  11.949   9.909 -0.1927 -0.1063  0.0378
  168loPI   GL2 2678   9.165  11.871   9.698  0.0740 -0.2466  0.0433
  168loPI   C1A 2679   9.530  12.236   9.534 -0.0961 -0.2322  0.0109
  168loPI   C2A 2680   9.689  12.169   9.112  0.0268 -0.2352  0.1389
  168loPI   C3A 2681   9.856  12.079   8.715 -0.2015  0.0527 -0.1851
  168loPI   C4A 2682   9.725  12.107   8.396 -0.1857 -0.0858 -0.0605
  168loPI   C5A 2683  10.067  12.157   8.027 -0.0076  0.0151  0.3191
  168loPI   C6A 2684  10.539  12.157   7.827  0.0194  0.1267 -0.2071
  168loPI   C1B 2685   9.445  11.648   9.519 -0.3339  0.0357  0.1236
  168loPI   C2B 2686   9.517  11.665   9.054 -0.1711 -0.0891 -0.0193
  168loPI   C3B 2687   9.670  11.563   8.699 -0.0060 -0.0896  0.0700
  168loPI   C4B 2688   9.678  11.632   8.298 -0.3077 -0.3317 -0.0787
  169loPI    C1 2689   2.228   1.679  10.131 -0.3009 -0.2332 -0.0396
  169loPI    C2 2690   2.131   1.691  10.518 -0.2636 -0.2376 -0.0301
  169loPI    C3 2691   1.894   1.500  10.258 -0.1619 -0.4480  0.0290
  169loPI   PO4 2692   2.515   1.603  10.113 -0.1524  0.2917 -0.1026
  169loPI   GL1 2693   2.846   1.614   9.847 -0.1652 -0.0334  0.2251
  169loPI   GL2 2694   3.008   1.363   9.798 -0.0903  0.0490  0.0797
  169loPI   C1A 2695   2.820   1.879   9.433 -0.1847  0.0231 -0.2880
  169loPI   C2A 2696   2.948   1.923   9.031 -0.2421  0.0987 -0.1004
  169loPI   C3A 2697   3.097   2.042   8.598 -0.1875  0.0865  0.1095
  169loPI   C4A 2698   2.994   2.124   8.141 -0.1126  0.2258 -0.3329
  169loPI   C5A 2699   2.836   2.277   7.792 -0.1266 -0.3149 -0.1175
  169loPI   C6A 2700   2.467   2.297   7.515 -0.2247  0.1226 -0.0872
  169loPI   C1B 2701   3.219   1.558   9.385 -0.3054  0.2144  0.1649
  169loPI   C2B 2702   3.298   1.570   8.982  0.2471 -0.1740 -0.0054
  169loPI   C3B 2703   3.414   1.436   8.584  0.1206 -0.0088 -0.1325
  169loPI   C4B 2704   3.439   1.390   8.124  0.0853 -0.0685 -0.2533
  170loPI    C1 2705  12.633   8.346  10.493  0.2550 -0.2859  0.1370
  170loPI    C2 2706  12.531   8.666  10.710  0.0383 -0.1903 -0.1003
  170loPI    C3 2707  12.467   8.299  10.855  0.1308 -0.1284  0.1021
  170loPI   PO4 2708  12.825   8.500  10.277 -0.2655 -0.0512  0.1508
  170loPI   GL1 2709  12.812   8.689   9.866  0.0241  0.0317 -0.2476
  170loPI   GL2 2710  13.043   8.904   9.734 -0.0747  0.2562  0.3441
  170loPI   C1A 2711  12.652   8.527   9.501  0.2547 -0.1165  0.1026
  170loPI   C2A 2712  12.664   8.532   9.156 -0.2808 -0.4247 -0.2907
  170loPI   C3A 2713  12.693   8.147   8.889 -0.1718 -0.0645  0.0128
  170loPI   C4A 2714  12.752   7.927   8.507 -0.2982 -0.0254 -0.0620
  170loPI   C5A 2715  12.715   7.545   8.112  0.2054 -0.2912  0.1062
  170loPI   C6A 2716  12.963   7.182   7.984  0.1656 -0.2686  0.1397
  170loPI   C1B 2717  13.012   8.900   9.209 -0.1767 -0.0272  0.0706
  170loPI   C2B 2718  12.829   8.983   8.729  0.1392  0.1379 -0.0009
  170loPI   C3B 2719  12.751   9.132   8.332 -0.0658 -0.0597  0.1592
  170loPI   C4B 2720  12.672   9.167   7.924  0.1220 -0.0143  0.1962
  171loPI    C1 2721   5.576  18.581  10.487  0.1257 -0.1095 -0.0742
  171loPI    C2 2722   5.658  18.219  10.635  0.0376 -0.1216 -0.0540
  171loPI    C3 2723   5.956  18.468  10.538  0.0970 -0.1480  0.0591
  171loPI   PO4 2724   5.448  18.607  10.174 -0.1434 -0.0380 -0.2029
  171loPI   GL1 2725   5.618  18.684   9.814  0.1936  0.0562 -0.2368
  171loPI   GL2 2726   5.218  18.537   9.724  0.2683  0.1365  0.1368
  171loPI   C1A 2727   5.387  18.989   9.645  0.2151  0.0032 -0.1136
  171loPI   C2A 2728   5.500  19.277   9.286 -0.1059  0.2526  0.2408
  171loPI   C3A 2729   5.454  19.228   8.905 -0.5446  0.0067 -0.0475
  171loPI   C4A 2730   5.586  19.125   8.536 -0.1933  0.2241  0.0259
  171loPI   C5A 2731   5.954  18.987   8.324  0.1528  0.1780  0.1083
  171loPI   C6A 2732   6.267  19.081   8.056  0.1655  0.0887  0.1525
  171loPI   C1B 2733   4.981  18.732   9.483  0.2057 -0.2375 -0.0449
  171loPI   C2B 2734   4.691  18.810   9.253  0.0105  0.0084 -0.1683
  171loPI   C3B 2735   4.432  18.965   8.974  0.3500 -0.3523  0.0958
  171loPI   C4B 2736   4.512  18.988   8.489 -0.0274 -0.2360  0.0676
  172loPI    C1 2737   4.299  13.174   9.918  0.0357  0.0150  0.0136
  172loPI    C2 2738   4.159  12.845   9.739  0.4279 -0.0663 -0.1540
  172loPI    C3 2739   4.283  12.829  10.119 -0.0261  0.0121  0.0038
  172loPI   PO4 2740   4.464  13.268   9.766  0.0715 -0.0664  0.0444
  172loPI   GL1 2741   4.665  13.184   9.452  0.4769  0.2370 -0.0189
  172loPI   GL2 2742   5.041  13.142   9.578  0.1766  0.1453  0.1391
  172loPI   C1A 2743   4.469  13.197   9.092 -0.1062 -0.0845 -0.1390
  172loPI   C2A 2744   4.276  13.316   8.705 -0.0624 -0.0528  0.0598
  172loPI   C3A 2745   4.355  13.279   8.338  0.3667 -0.0411 -0.0166
  172loPI   C4A 2746   4.560  13.192   7.849  0.3407  0.0319 -0.0461
  172loPI   C5A 2747   4.539  13.161   7.348 -0.1405  0.1834  0.0072
  172loPI   C6A 2748   4.450  13.349   6.862  0.1197  0.2530 -0.2740
  172loPI   C1B 2749   5.015  12.987   9.122  0.1221  0.1213 -0.3013
  172loPI   C2B 2750   4.746  13.013   8.737  0.1667 -0.1680 -0.0594
  172loPI   C3B 2751   4.784  12.979   8.305 -0.0793 -0.0633  0.2092
  172loPI   C4B 2752   5.129  12.896   7.988 -0.3806 -0.0327  0.1113
  173loPI    C1 2753   0.729   3.485   9.888 -0.2524  0.0887  0.0145
  173loPI    C2 2754   0.727   3.260  10.218 -0.2081  0.1951  0.0881
  173loPI    C3 2755   0.696   3.657  10.248  0.0371  0.2238 -0.0207
  173loPI   PO4 2756   0.940   3.329   9.715  0.2425  0.0577  0.3270
  173loPI   GL1 2757   1.004   3.413   9.367  0.0748  0.5451 -0.3656
  173loPI   GL2 2758   1.361   3.267   9.365  0.2708 -0.3028  0.3162
  173loPI   C1A 2759   0.756   3.419   9.045  0.2301 -0.2921 -0.0930
  173loPI   C2A 2760   0.840   3.352   8.660 -0.0711 -0.0061 -0.1984
  173loPI   C3A 2761   0.851   3.499   8.246 -0.2146  0.0917 -0.1470
  173loPI   C4A 2762   0.933   3.389   7.812  0.1358  0.2408 -0.0732
  173loPI   C5A 2763   0.768   3.331   7.425  0.2490  0.1674  0.2371
  173loPI   C6A 2764   0.423   3.050   7.122 -0.1936  0.3467  0.0126
  173loPI   C1B 2765   1.251   3.408   8.933  0.1835  0.2837 -0.2850
  173loPI   C2B 2766   1.265   3.689   8.526 -0.0945  0.0175  0.1465
  173loPI   C3B 2767   1.351   3.805   8.041 -0.1430  0.1711 -0.1517
  173loPI   C4B 2768   1.056   3.855   7.724  0.1021 -0.3984  0.0485
  174loPI    C1 2769   9.235  14.274  10.090 -0.1457 -0.1982  0.0106
  174loPI    C2 2770   9.456  14.333   9.762 -0.1190 -0.1817  0.0314
  174loPI    C3 2771   9.483  13.987   9.961  0.0023 -0.1217  0.1211
  174loPI   PO4 2772   9.005  14.377  10.005  0.0834  0.2034  0.1235
  174loPI   GL1 2773   8.752  14.441   9.611  0.1851  0.2341 -0.3423
  174loPI   GL2 2774   9.116  14.565   9.522  0.1804 -0.0417  0.0345
  174loPI   C1A 2775   8.826  14.268   9.148 -0.0353  0.0503  0.2627
  174loPI   C2A 2776   8.798  13.946   8.852  0.1835  0.2052  0.0795
  174loPI   C3A 2777   8.632  13.573   8.795  0.1040 -0.0987 -0.0198
  174loPI   C4A 2778   8.697  13.294   8.451 -0.1101 -0.2325 -0.1056
  174loPI   C5A 2779   8.845  13.192   8.126 -0.1753  0.0049  0.3540
  174loPI   C6A 2780   9.165  13.170   7.803 -0.1103  0.1291 -0.3673
  174loPI   C1B 2781   9.168  14.674   9.109  0.2646  0.1321  0.0154
  174loPI   C2B 2782   8.874  14.553   8.778  0.0535  0.2577  0.0972
  174loPI   C3B 2783   8.648  14.288   8.496  0.0299  0.1413  0.1691
  174loPI   C4B 2784   8.699  13.806   8.366 -0.0306 -0.1104  0.1975
  175loPI    C1 2785  16.596  12.225   9.952  0.2056  0.1843  0.0630
  175loPI    C2 2786  16.315  12.460   9.791  0.1202  0.0222 -0.0267
  175loPI    C3 2787  16.341  12.423  10.188  0.1970  0.2586 -0.0077
  175loPI   PO4 2788  16.825  12.249   9.785  0.4606 -0.3471 -0.2761
  175loPI   GL1 2789  16.703  11.989   9.357 -0.2031 -0.2872 -0.1621
  175loPI   GL2 2790  16.974  12.233   9.303 -0.1070  0.0456 -0.3235
  175loPI   C1A 2791  16.519  11.821   9.002  0.1133  0.0000  0.4059
  175loPI   C2A 2792  16.454  12.043   8.570 -0.1259 -0.0386  0.0857
  175loPI   C3A 2793  16.379  12.039   8.121  0.0837 -0.1138  0.2564
  175loPI   C4A 2794  16.448  11.628   7.844 -0.1854 -0.2715 -0.3858
  175loPI   C5A 2795  16.381  11.202   7.645 -0.3427  0.2091 -0.1039
  175loPI   C6A 2796  16.247  10.753   7.612 -0.0228  0.0390 -0.1363
  175loPI   C1B 2797  16.862  12.199   8.868  0.2473 -0.0140  0.0924
  175loPI   C2B 2798  16.843  12.290   8.424  0.0613 -0.0898  0.1300
  175loPI   C3B 2799  16.740  12.376   7.999  0.3113 -0.1349  0.0033
  175loPI   C4B 2800  16.665  12.682   7.674  0.0067  0.2066 -0.0262
  176loPI    C1 2801  15.318  12.198  10.102 -0.1534  0.3545 -0.1288
  176loPI    C2 2802  15.449  12.261  10.475 -0.0174 -0.1001 -0.0933
  176loPI    C3 2803  15.067  12.161  10.411 -0.0407 -0.0224 -0.0777
  176loPI   PO4 2804  15.387  12.440   9.909 -0.0441  0.1743  0.1135
  176loPI   GL1 2805  15.310  12.378   9.474 -0.1061 -0.1226 -0.0251
  176loPI   GL2 2806  15.093  12.559   9.372  0.1322  0.1353 -0.1323
  176loPI   C1A 2807  15.545  12.114   9.161  0.1269 -0.2038  0.0499
  176loPI   C2A 2808  15.391  12.127   8.810  0.1980  0.1660  0.0328
  176loPI   C3A 2809  15.356  12.071   8.453 -0.3747 -0.0155  0.0802
  176loPI   C4A 2810  15.383  12.134   8.026 -0.1866 -0.0804 -0.0533
  176loPI   C5A 2811  15.604  11.900   7.607  0.0194 -0.0808 -0.0079
  176loPI   C6A 2812  15.898  11.689   7.527  0.1197  0.0751  0.1516
  176loPI   C1B 2813  15.148  12.569   8.923  0.2922 -0.2440  0.0982
  176loPI   C2B 2814  14.966  12.385   8.628 -0.0211  0.3029 -0.1550
  176loPI   C3B 2815  14.930  12.266   8.187  0.2172 -0.1367  0.1157
  176loPI   C4B 2816  14.919  12.209   7.767  0.1950  0.0142  0.1603
  177loPI    C1 2817  13.494  10.609  10.070  0.1431 -0.0994 -0.1618
  177loPI    C2 2818  13.472  10.568  10.467  0.1081 -0.2144 -0.1752
  177loPI    C3 2819  13.659  10.884  10.308 -0.1205 -0.0207 -0.0662
  177loPI   PO4 2820  13.269  10.354  10.003  0.1356  0.2355 -0.0710
  177loPI   GL1 2821  13.149  10.346   9.476 -0.0025 -0.2716 -0.3785
  177loPI   GL2 2822  13.042  10.690   9.709 -0.0226 -0.1302  0.5623
  177loPI   C1A 2823  13.256  10.165   9.160  0.0906  0.2418  0.1540
  177loPI   C2A 2824  13.375  10.274   8.711 -0.2870 -0.2060 -0.1051
  177loPI   C3A 2825  13.759  10.255   8.460  0.0311 -0.1744  0.0541
  177loPI   C4A 2826  13.959   9.988   8.267  0.2152  0.2549 -0.1970
  177loPI   C5A 2827  14.340   9.669   8.232 -0.0513 -0.1196  0.0807
  177loPI   C6A 2828  14.649   9.626   7.892 -0.2779  0.2408 -0.0129
  177loPI   C1B 2829  13.451  10.736   9.531 -0.0670  0.0337  0.0829
  177loPI   C2B 2830  13.685  10.467   9.267  0.2893 -0.1602  0.0097
  177loPI   C3B 2831  13.799  10.110   8.941  0.1713 -0.1831 -0.0117
  177loPI   C4B 2832  14.103   9.788   8.686 -0.0563 -0.0954  0.1047
  178loPI    C1 2833   7.445  15.872  10.308 -0.2799 -0.0676  0.0984
  178loPI    C2 2834   7.631  16.058  10.608  0.0117  0.1511 -0.2106
  178loPI    C3 2835   7.315  15.826  10.683  0.2207  0.0136  0.2899
  178loPI   PO4 2836   7.382  16.024  10.142 -0.1904 -0.3154  0.1720
  178loPI   GL1 2837   7.121  15.863   9.796 -0.0553 -0.1588  0.1665
  178loPI   GL2 2838   7.458  15.862   9.662 -0.1855  0.5027  0.0149
  178loPI   C1A 2839   6.927  15.887   9.348  0.3087 -0.0394  0.0383
  178loPI   C2A 2840   6.845  16.160   9.033  0.2791 -0.1195  0.1983
  178loPI   C3A 2841   6.962  16.373   8.769  0.1014  0.2221  0.0730
  178loPI   C4A 2842   7.060  16.551   8.381  0.1252 -0.1771  0.1935
  178loPI   C5A 2843   6.931  16.712   8.041 -0.0599 -0.2188 -0.2956
  178loPI   C6A 2844   6.832  16.851   7.779  0.4308  0.1928  0.0150
  178loPI   C1B 2845   7.392  16.088   9.139  0.2565 -0.2151 -0.1805
  178loPI   C2B 2846   7.427  16.123   8.756 -0.0664  0.1384 -0.0925
  178loPI   C3B 2847   7.545  16.292   8.360 -0.0558  0.2914  0.1898
  178loPI   C4B 2848   7.494  16.153   7.933  0.7626  0.1550  0.2037
  179loPI    C1 2849  13.867   8.459  10.569  0.0728  0.2351 -0.1144
  179loPI    C2 2850  14.205   8.259  10.493 -0.1271 -0.0731 -0.2125
  179loPI    C3 2851  14.196   8.535  10.783  0.1246 -0.2873  0.0034
  179loPI   PO4 2852  13.789   8.504  10.303 -0.0738 -0.1160 -0.3198
  179loPI   GL1 2853  13.611   8.310  10.006 -0.4182  0.0354  0.0173
  179loPI   GL2 2854  13.240   8.376   9.968  0.0387  0.1273  0.1309
  179loPI   C1A 2855  13.939   8.258   9.570  0.0536 -0.1966  0.0097
  179loPI   C2A 2856  14.046   8.290   9.190  0.2009 -0.0946  0.0126
  179loPI   C3A 2857  14.060   8.130   8.865 -0.0196  0.1349 -0.1642
  179loPI   C4A 2858  13.919   8.092   8.467 -0.2844  0.2023  0.2854
  179loPI   C5A 2859  13.660   7.846   8.172 -0.4317 -0.1792 -0.0326
  179loPI   C6A 2860  13.587   7.428   8.057  0.1448  0.0938  0.2859
  179loPI   C1B 2861  13.342   8.533   9.526 -0.3466 -0.2489 -0.2156
  179loPI   C2B 2862  13.720   8.707   9.383  0.0802 -0.0338 -0.1405
  179loPI   C3B 2863  13.520   8.894   9.061 -0.1646  0.0243  0.0207
  179loPI   C4B 2864  13.364   8.828   8.683 -0.2732 -0.1562 -0.0528
  180loPI    C1 2865   8.090  17.456  10.597 -0.4099  0.2270 -0.0351
  180loPI    C2 2866   8.355  17.502  10.893 -0.1026 -0.0646 -0.2571
  180loPI    C3 2867   8.046  17.253  10.939 -0.2502  0.1506 -0.0588
  180loPI   PO4 2868   8.311  17.602  10.366  0.0637 -0.0945  0.0254
  180loPI   GL1 2869   8.140  17.904   9.989 -0.0035 -0.2905  0.0366
  180loPI   GL2 2870   8.415  17.838   9.882  0.1951  0.0759  0.0820
  180loPI   C1A 2871   8.221  18.319   9.909 -0.2628  0.3120  0.0376
  180loPI   C2A 2872   8.103  18.344   9.516  0.2370 -0.1894  0.1283
  180loPI   C3A 2873   8.108  18.336   9.068 -0.0193  0.1295 -0.1428
  180loPI   C4A 2874   7.789  18.463   8.736 -0.1060 -0.1662  0.0423
  180loPI   C5A 2875   7.583  18.111   8.375  0.0440  0.1389 -0.1498
  180loPI   C6A 2876   7.532  17.741   8.492  0.0292 -0.0767 -0.0017
  180loPI   C1B 2877   8.278  17.899   9.506  0.3059  0.0304  0.0682
  180loPI   C2B 2878   8.191  17.836   9.125 -0.2065  0.0034 -0.0425
  180loPI   C3B 2879   7.893  17.992   8.789  0.0780 -0.0284 -0.2764
  180loPI   C4B 2880   8.188  18.263   8.476 -0.2509  0.5417 -0.2442
  181loPI    C1 2881   3.735  15.160  10.192  0.1422 -0.0393  0.0131
  181loPI    C2 2882   3.415  14.972  10.341  0.2299 -0.2235 -0.0283
  181loPI    C3 2883   3.450  15.369  10.381 -0.1519 -0.1578 -0.2896
  181loPI   PO4 2884   3.762  14.942   9.988  0.1293 -0.1728  0.2010
  181loPI   GL1 2885   3.984  14.904   9.660 -0.1017  0.0572  0.1194
  181loPI   GL2 2886   3.773  15.174   9.545 -0.0799  0.5251  0.1319
  181loPI   C1A 2887   4.367  15.011   9.532 -0.1794  0.0422  0.0902
  181loPI   C2A 2888   4.601  14.828   9.160 -0.0686 -0.1564 -0.1528
  181loPI   C3A 2889   4.606  14.877   8.726  0.2407  0.0516  0.1927
  181loPI   C4A 2890   4.738  14.878   8.350  0.0396  0.0661  0.2179
  181loPI   C5A 2891   4.656  15.017   8.007 -0.1113  0.3560  0.0846
  181loPI   C6A 2892   4.359  15.286   7.713 -0.1266 -0.0585  0.2709
  181loPI   C1B 2893   4.051  15.092   9.138  0.0717 -0.2902 -0.4248
  181loPI   C2B 2894   4.340  15.256   8.794 -0.2132  0.1101 -0.0843
  181loPI   C3B 2895   4.216  15.418   8.384  0.2664 -0.1813  0.0196
  181loPI   C4B 2896   4.046  15.590   8.042 -0.0654 -0.1904  0.0371
  182loPI    C1 2897  15.065   5.293   9.922 -0.1006  0.0065 -0.1146
  182loPI    C2 2898  15.211   5.633  10.072 -0.0456 -0.0415 -0.0585
  182loPI    C3 2899  14.886   5.467  10.235 -0.2147  0.1100 -0.2365
  182loPI   PO4 2900  15.125   5.340   9.696 -0.3294  0.0033  0.5928
  182loPI   GL1 2901  14.920   5.584   9.374  0.0850  0.1590  0.2722
  182loPI   GL2 2902  15.218   5.641   9.112  0.3135  0.0520 -0.1157
  182loPI   C1A 2903  14.754   5.648   9.017 -0.2789  0.0290  0.0109
  182loPI   C2A 2904  14.428   5.732   8.769  0.1314  0.4368  0.0388
  182loPI   C3A 2905  14.612   5.884   8.426 -0.2410 -0.1057  0.0378
  182loPI   C4A 2906  14.477   6.001   8.097  0.1881 -0.0454 -0.2046
  182loPI   C5A 2907  14.707   6.222   7.787 -0.0483 -0.0410 -0.4508
  182loPI   C6A 2908  14.548   6.459   7.451  0.1831  0.0654  0.1086
  182loPI   C1B 2909  15.164   5.849   8.708  0.1000  0.1243 -0.0969
  182loPI   C2B 2910  15.060   5.970   8.260 -0.2725  0.1025 -0.1381
  182loPI   C3B 2911  15.214   6.051   7.766  0.1346 -0.2241 -0.0016
  182loPI   C4B 2912  15.643   6.111   7.615 -0.1913  0.0303 -0.0836
  183loPI    C1 2913  15.164  14.556  10.104 -0.1385 -0.0509  0.3011
  183loPI    C2 2914  14.904  14.860  10.100 -0.1714 -0.0801 -0.0145
  183loPI    C3 2915  14.986  14.672  10.443 -0.3291  0.1315  0.1418
  183loPI   PO4 2916  15.322  14.610   9.975 -0.1253 -0.1545 -0.0907
  183loPI   GL1 2917  15.119  14.769   9.604  0.0226 -0.0326  0.1265
  183loPI   GL2 2918  14.953  15.121   9.527 -0.0616  0.2938 -0.0010
  183loPI   C1A 2919  14.924  14.518   9.329 -0.2517 -0.2704  0.0003
  183loPI   C2A 2920  14.963  14.455   8.911  0.2707  0.0165  0.0057
  183loPI   C3A 2921  15.230  14.413   8.702 -0.2684  0.0540 -0.2660
  183loPI   C4A 2922  15.305  14.113   8.368 -0.3995  0.0643 -0.1140
  183loPI   C5A 2923  15.216  14.039   7.912 -0.2115 -0.1087  0.0162
  183loPI   C6A 2924  14.831  13.842   7.675 -0.1069  0.1260 -0.2422
  183loPI   C1B 2925  15.008  14.999   9.034 -0.4812  0.0670 -0.2386
  183loPI   C2B 2926  15.141  14.891   8.640  0.1949  0.1775 -0.1470
  183loPI   C3B 2927  15.066  15.101   8.247  0.0207  0.0875 -0.3503
  183loPI   C4B 2928  14.916  14.938   7.844 -0.3475 -0.0642  0.0891
  184loPI    C1 2929   4.515  15.474  10.205  0.1253  0.0417  0.0445
  184loPI    C2 2930   4.179  15.398  10.001  0.1427  0.2507 -0.0661
  184loPI    C3 2931   4.216  15.275  10.380 -0.1491  0.4202  0.0208
  184loPI   PO4 2932   4.679  15.287  10.057  0.2446 -0.2285  0.0589
  184loPI   GL1 2933   4.780  15.320   9.694  0.1176  0.2779  0.2439
  184loPI   GL2 2934   4.545  15.652   9.698 -0.1153 -0.2749  0.1803
  184loPI   C1A 2935   4.935  15.208   9.327 -0.0653  0.1899 -0.0792
  184loPI   C2A 2936   5.122  15.196   8.916  0.0426  0.3883 -0.1631
  184loPI   C3A 2937   5.159  15.160   8.523 -0.1516  0.1716  0.1859
  184loPI   C4A 2938   5.368  15.087   8.047 -0.1988 -0.1231 -0.1457
  184loPI   C5A 2939   5.499  15.065   7.599  0.2626 -0.0453 -0.0052
  184loPI   C6A 2940   5.518  15.172   7.199 -0.2009 -0.1753 -0.3055
  184loPI   C1B 2941   4.510  15.494   9.251  0.0135 -0.0929  0.0098
  184loPI   C2B 2942   4.740  15.599   8.958 -0.1808 -0.0686 -0.2452
  184loPI   C3B 2943   4.768  15.504   8.509 -0.0472  0.2198  0.4422
  184loPI   C4B 2944   4.589  15.576   8.094  0.2144 -0.4225  0.0206
  185loPI    C1 2945  14.533  10.598   9.878  0.0739  0.1741  0.2699
  185loPI    C2 2946  14.325  10.641  10.218 -0.0993 -0.0322  0.1927
  185loPI    C3 2947  14.699  10.499  10.228 -0.0690  0.0543  0.3050
  185loPI   PO4 2948  14.487  10.553   9.643  0.2370  0.1947  0.4056
  185loPI   GL1 2949  14.488  10.330   9.354  0.2037  0.1256  0.0065
  185loPI   GL2 2950  14.813  10.326   9.191 -0.1919  0.4682 -0.1429
  185loPI   C1A 2951  14.306  10.072   9.061 -0.0157  0.1805  0.4441
  185loPI   C2A 2952  14.622   9.820   8.646 -0.1693  0.0009 -0.0170
  185loPI   C3A 2953  14.956   9.671   8.301  0.1948 -0.2644 -0.1420
  185loPI   C4A 2954  15.292   9.771   7.954 -0.0347  0.0108  0.0539
  185loPI   C5A 2955  15.221  10.039   7.614  0.0837 -0.2821 -0.2830
  185loPI   C6A 2956  15.253  10.430   7.491 -0.0813  0.1414 -0.0055
  185loPI   C1B 2957  14.719  10.531   8.891 -0.1400  0.2593  0.1182
  185loPI   C2B 2958  14.805  10.682   8.489 -0.1098 -0.1723 -0.0589
  185loPI   C3B 2959  14.562  10.724   8.202  0.0070 -0.1564 -0.0557
  185loPI   C4B 2960  14.443  10.582   7.790  0.0755  0.2281 -0.0467
  186loPI    C1 2961  12.242   0.271  10.675 -0.0352 -0.2772 -0.2610
  186loPI    C2 2962  12.637   0.211  10.657  0.0779  0.3534 -0.1257
  186loPI    C3 2963  12.443   0.157  11.002  0.0465  0.0709 -0.1853
  186loPI   PO4 2964  11.997   0.083  10.475  0.2465  0.1554  0.0014
  186loPI   GL1 2965  11.864   0.249   9.991 -0.0532 -0.3851  0.2247
  186loPI   GL2 2966  11.982   0.652  10.139 -0.0343 -0.0178 -0.1647
  186loPI   C1A 2967  12.065   0.204   9.570  0.0045  0.2613  0.0469
  186loPI   C2A 2968  11.917   0.375   9.216 -0.0115  0.1120 -0.1265
  186loPI   C3A 2969  11.687   0.310   8.836  0.1755  0.2175  0.0221
  186loPI   C4A 2970  11.602   0.317   8.388 -0.2281  0.1751  0.0426
  186loPI   C5A 2971  11.310   0.366   8.166  0.0381  0.0168 -0.0491
  186loPI   C6A 2972  10.953   0.384   8.105  0.0000  0.1224 -0.0067
  186loPI   C1B 2973  11.948   0.708   9.678 -0.1861  0.0567  0.0866
  186loPI   C2B 2974  11.972   0.904   9.278 -0.1673  0.3957  0.0482
  186loPI   C3B 2975  11.857   0.821   8.883 -0.0310  0.0183 -0.0671
  186loPI   C4B 2976  11.859   0.780   8.462 -0.2232 -0.0364  0.0821
  187loPI    C1 2977   2.457  12.735   9.907  0.0788  0.0361 -0.3068
  187loPI    C2 2978   2.213  12.482  10.097 -0.0599  0.2717 -0.1678
  187loPI    C3 2979   2.550  12.605  10.273  0.0088  0.1823 -0.2363
  187loPI   PO4 2980   2.405  12.812   9.680  0.0142 -0.0922  0.2403
  187loPI   GL1 2981   2.470  12.759   9.335  0.1405  0.2141 -0.0812
  187loPI   GL2 2982   2.627  12.994   9.290  0.1519 -0.2003 -0.0984
  187loPI   C1A 2983   2.491  12.606   8.986  0.2318  0.0097  0.0427
  187loPI   C2A 2984   2.403  12.560   8.584  0.0920 -0.2660  0.0358
  187loPI   C3A 2985   2.299  12.531   8.189  0.0252 -0.1346  0.0222
  187loPI   C4A 2986   2.290  12.330   7.710  0.1161  0.1726  0.2628
  187loPI   C5A 2987   2.299  12.148   7.229 -0.1368 -0.1697  0.0774
  187loPI   C6A 2988   2.135  11.915   6.879 -0.0803  0.2612  0.2505
  187loPI   C1B 2989   2.554  13.066   8.848  0.1724  0.2916 -0.0449
  187loPI   C2B 2990   2.532  13.103   8.443  0.0328 -0.2196 -0.0276
  187loPI   C3B 2991   2.508  13.225   8.041 -0.1469  0.0057  0.0176
  187loPI   C4B 2992   2.651  13.582   7.868  0.0403  0.2328 -0.0830
  188loPI    C1 2993  17.594   8.180   9.853  0.0631 -0.0154  0.0723
  188loPI    C2 2994  17.808   8.182  10.192 -0.1494 -0.2299  0.2103
  188loPI    C3 2995  17.441   8.021  10.187 -0.2666  0.0363 -0.0509
  188loPI   PO4 2996  17.802   8.074   9.696 -0.1657  0.4049  0.3841
  188loPI   GL1 2997  17.884   8.029   9.230  0.0911  0.0547 -0.0013
  188loPI   GL2 2998  18.180   8.050   9.276 -0.2200 -0.0284  0.1155
  188loPI   C1A 2999  17.728   8.120   8.887 -0.1164  0.0863  0.1737
  188loPI   C2A 3000  17.611   8.230   8.469  0.1982 -0.1857 -0.2092
  188loPI   C3A 3001  17.662   8.101   8.086  0.0519 -0.0190  0.6169
  188loPI   C4A 3002  17.625   8.319   7.741  0.0087  0.1196 -0.2365
  188loPI   C5A 3003  17.610   8.551   7.472  0.0984  0.2133 -0.3944
  188loPI   C6A 3004  17.545   8.436   7.061  0.2601  0.0011  0.3283
  188loPI   C1B 3005  18.262   8.116   8.944  0.0172 -0.1032  0.1592
  188loPI   C2B 3006  18.121   8.144   8.461  0.1290  0.0905 -0.0489
  188loPI   C3B 3007  18.130   8.144   8.037  0.0674  0.1001  0.0363
  188loPI   C4B 3008  18.188   8.405   7.630 -0.0654  0.1630  0.0490
  189loPI    C1 3009  11.041   7.238  10.468  0.0091 -0.2079  0.1317
  189loPI    C2 3010  11.303   7.098  10.201  0.0391 -0.0023  0.0514
  189loPI    C3 3011  11.242   6.900  10.543  0.0428 -0.2365 -0.0807
  189loPI   PO4 3012  10.793   7.246  10.326  0.0115  0.0770  0.1104
  189loPI   GL1 3013  10.947   7.256   9.882  0.0942 -0.0248  0.0435
  189loPI   GL2 3014  10.848   7.536   9.836 -0.1465 -0.1269  0.0306
  189loPI   C1A 3015  10.929   6.949   9.547 -0.3061 -0.2355  0.0718
  189loPI   C2A 3016  10.986   6.654   9.263  0.0227  0.1408  0.0894
  189loPI   C3A 3017  10.924   6.565   8.765  0.0167 -0.1623 -0.1243
  189loPI   C4A 3018  11.181   6.567   8.286 -0.1365 -0.1674 -0.4093
  189loPI   C5A 3019  11.104   6.319   8.001  0.0699 -0.0221  0.0581
  189loPI   C6A 3020  11.246   6.391   7.549 -0.2157  0.3905  0.0616
  189loPI   C1B 3021  11.020   7.504   9.459  0.2033 -0.2885 -0.1906
  189loPI   C2B 3022  11.207   7.613   9.012  0.1282  0.0348  0.1008
  189loPI   C3B 3023  11.137   7.454   8.667  0.0622 -0.0918 -0.1632
  189loPI   C4B 3024  11.081   7.443   8.232  0.1314 -0.3442 -0.5681
  190loPI    C1 3025  14.765   5.829   9.893  0.1273 -0.1657  0.2574
  190loPI    C2 3026  14.781   5.942  10.277 -0.2889 -0.1201  0.2656
  190loPI    C3 3027  14.457   5.753  10.137 -0.1218 -0.1767 -0.0544
  190loPI   PO4 3028  14.934   5.963   9.800 -0.2805 -0.0672  0.1329
  190loPI   GL1 3029  15.208   5.969   9.491  0.1353 -0.0445 -0.0896
  190loPI   GL2 3030  15.516   6.122   9.345  0.0521 -0.5282  0.0574
  190loPI   C1A 3031  14.992   6.066   9.091  0.1840 -0.1985  0.1916
  190loPI   C2A 3032  14.886   6.295   8.762  0.3845 -0.3202 -0.2081
  190loPI   C3A 3033  14.785   6.484   8.299 -0.0669 -0.0832 -0.0812
  190loPI   C4A 3034  14.567   6.659   7.959 -0.2531  0.1289  0.2417
  190loPI   C5A 3035  14.267   6.880   8.012  0.2807 -0.2119 -0.0334
  190loPI   C6A 3036  13.939   7.150   7.819  0.0805  0.2053  0.1195
  190loPI   C1B 3037  15.517   6.023   8.932  0.2248 -0.1760 -0.3950
  190loPI   C2B 3038  15.535   6.046   8.428  0.0761 -0.0638 -0.1960
  190loPI   C3B 3039  15.578   5.979   8.054  0.1481  0.1604  0.0281
  190loPI   C4B 3040  15.432   5.575   7.770 -0.0436  0.0364 -0.0390
  191loPI    C1 3041   2.020  15.555  10.012  0.1083  0.4258 -0.4282
  191loPI    C2 3042   2.350  15.363   9.893 -0.0114  0.0837 -0.2206
  191loPI    C3 3043   2.356  15.584  10.226  0.0313  0.1490 -0.2645
  191loPI   PO4 3044   1.936  15.697   9.784  0.1450 -0.0376  0.3483
  191loPI   GL1 3045   1.938  16.196   9.648  0.1624  0.1931 -0.1900
  191loPI   GL2 3046   2.153  16.040   9.394 -0.4071  0.1688 -0.2232
  191loPI   C1A 3047   1.692  16.146   9.285 -0.2897  0.1419 -0.3190
  191loPI   C2A 3048   1.471  16.119   8.932  0.0537 -0.1143  0.2380
  191loPI   C3A 3049   1.363  16.178   8.522  0.1344  0.0297 -0.1295
  191loPI   C4A 3050   1.423  15.978   8.062  0.3137  0.0568  0.0120
  191loPI   C5A 3051   1.396  15.735   7.649 -0.4182  0.2914 -0.0785
  191loPI   C6A 3052   1.274  15.900   7.196 -0.0074 -0.0566 -0.0388
  191loPI   C1B 3053   2.515  16.129   9.251 -0.0357  0.0155 -0.3206
  191loPI   C2B 3054   2.610  16.374   8.883  0.0265  0.1156 -0.0284
  191loPI   C3B 3055   2.300  16.585   8.554 -0.0299  0.3119  0.0591
  191loPI   C4B 3056   2.252  16.543   8.182 -0.1654 -0.0891 -0.0727
  192loPI    C1 3057   2.884   4.533   9.888  0.1151  0.1488  0.0674
  192loPI    C2 3058   2.968   4.280  10.185  0.0306  0.0203 -0.0172
  192loPI    C3 3059   3.168   4.255   9.840 -0.0780 -0.0260 -0.0771
  192loPI   PO4 3060   2.966   4.776   9.815  0.2182  0.1148 -0.2439
  192loPI   GL1 3061   3.025   4.971   9.454 -0.0595  0.1321 -0.0568
  192loPI   GL2 3062   2.818   4.923   9.294 -0.0358  0.3026 -0.0558
  192loPI   C1A 3063   3.302   4.850   9.123  0.3109 -0.1956 -0.2432
  192loPI   C2A 3064   3.067   4.492   8.910 -0.2743  0.0262  0.0120
  192loPI   C3A 3065   2.831   4.409   8.533  0.5072 -0.0249  0.2074
  192loPI   C4A 3066   2.943   4.434   8.089  0.0705  0.0630 -0.1712
  192loPI   C5A 3067   2.826   4.398   7.714 -0.0424  0.3040 -0.1679
  192loPI   C6A 3068   2.832   4.690   7.392  0.2787  0.2560  0.1662
  192loPI   C1B 3069   2.771   4.886   8.869  0.0343  0.0437  0.1063
  192loPI   C2B 3070   2.679   4.899   8.360 -0.0999 -0.1922 -0.0999
  192loPI   C3B 3071   2.783   4.905   7.997  0.0849 -0.0216 -0.2901
  192loPI   C4B 3072   2.853   5.138   7.544 -0.1142 -0.0353  0.0586
  193loPI    C1 3073   8.457   5.290  10.086 -0.1025 -0.1646 -0.0692
  193loPI    C2 3074   8.541   4.955   9.883  0.0428 -0.0121 -0.2648
  193loPI    C3 3075   8.781   5.076  10.179  0.0447 -0.0282 -0.2599
  193loPI   PO4 3076   8.147   5.342   9.956 -0.1089 -0.1385 -0.0108
  193loPI   GL1 3077   7.978   5.157   9.553  0.0419  0.0390  0.0638
  193loPI   GL2 3078   7.728   5.401   9.630  0.0526  0.0757 -0.1879
  193loPI   C1A 3079   8.098   5.200   9.146 -0.0432  0.1527 -0.2906
  193loPI   C2A 3080   8.093   5.243   8.690 -0.1942 -0.2261  0.2319
  193loPI   C3A 3081   8.187   5.269   8.335  0.3841 -0.0453 -0.0855
  193loPI   C4A 3082   8.590   5.217   8.148 -0.2954  0.3651 -0.0178
  193loPI   C5A 3083   8.816   4.807   8.193 -0.4174  0.2078 -0.0585
  193loPI   C6A 3084   9.041   4.481   7.992 -0.0642  0.2525 -0.0682
  193loPI   C1B 3085   7.680   5.451   9.177  0.0446  0.0182 -0.1751
  193loPI   C2B 3086   7.757   5.644   8.871 -0.4308 -0.0028  0.1513
  193loPI   C3B 3087   7.665   5.432   8.522  0.2328  0.1537  0.0588
  193loPI   C4B 3088   7.514   5.384   8.098  0.2001  0.2492  0.0709
  194loPI    C1 3089  15.780  11.742   9.872 -0.2177 -0.0877  0.2545
  194loPI    C2 3090  15.490  11.948   9.689 -0.0666 -0.0327  0.0736
  194loPI    C3 3091  15.405  11.727  10.011 -0.3644 -0.2413 -0.1431
  194loPI   PO4 3092  15.943  11.570   9.675 -0.1040  0.2251 -0.0445
  194loPI   GL1 3093  16.125  11.601   9.197 -0.2392  0.1439  0.3457
  194loPI   GL2 3094  15.945  11.819   9.256  0.2463 -0.1367 -0.0578
  194loPI   C1A 3095  16.130  11.741   8.723 -0.1047 -0.1630 -0.2400
  194loPI   C2A 3096  16.335  11.585   8.380  0.1823 -0.1270  0.2034
  194loPI   C3A 3097  16.029  11.437   8.028 -0.2154  0.2200 -0.0523
  194loPI   C4A 3098  15.621  11.335   7.790 -0.4487  0.2836  0.3516
  194loPI   C5A 3099  15.380  11.036   7.471 -0.1212 -0.0788 -0.0201
  194loPI   C6A 3100  15.182  11.197   7.060  0.0178  0.1513  0.0600
  194loPI   C1B 3101  15.640  11.711   8.928  0.1083  0.0284 -0.1160
  194loPI   C2B 3102  15.699  11.748   8.451  0.0330  0.2463 -0.0116
  194loPI   C3B 3103  15.825  11.934   8.136  0.3390  0.0470 -0.1665
  194loPI   C4B 3104  16.004  12.150   7.765 -0.0892  0.1675  0.2140
  195loPI    C1 3105   3.744   9.738  10.115  0.2501 -0.0042 -0.1141
  195loPI    C2 3106   3.912   9.405  10.261  0.0487  0.0243  0.1928
  195loPI    C3 3107   3.971   9.756  10.444  0.2304  0.1550 -0.1088
  195loPI   PO4 3108   3.523   9.748  10.023  0.2002 -0.4589 -0.1920
  195loPI   GL1 3109   3.325   9.922   9.562  0.0893  0.1528 -0.1347
  195loPI   GL2 3110   3.216   9.575   9.583  0.1923  0.2162 -0.0961
  195loPI   C1A 3111   3.411   9.961   9.133 -0.2264  0.0741  0.0690
  195loPI   C2A 3112   3.495   9.819   8.765 -0.1916  0.0513  0.0079
  195loPI   C3A 3113   3.601   9.756   8.431 -0.3095 -0.0488 -0.1984
  195loPI   C4A 3114   3.637   9.763   7.998 -0.0250 -0.1637  0.2456
  195loPI   C5A 3115   3.457  10.101   7.662  0.0751  0.0713  0.1340
  195loPI   C6A 3116   2.986  10.146   7.587  0.1031 -0.1362  0.1166
  195loPI   C1B 3117   3.211   9.446   9.093 -0.0189  0.3198 -0.0649
  195loPI   C2B 3118   3.313   9.380   8.562  0.1484  0.0730 -0.3060
  195loPI   C3B 3119   3.262   9.468   8.158  0.0414 -0.2770  0.1373
  195loPI   C4B 3120   3.174   9.554   7.739 -0.0159 -0.3038 -0.1953
  196loPI    C1 3121  18.206   7.538   9.523 -0.1247  0.3938  0.1475
  196loPI    C2 3122  18.462   7.320   9.740  0.1628  0.1820 -0.3874
  196loPI    C3 3123  18.068   7.276   9.793  0.2251 -0.0552 -0.0943
  196loPI   PO4 3124  18.250   7.565   9.343  0.0535 -0.0774  0.1889
  196loPI   GL1 3125  18.230   7.448   8.965 -0.0063 -0.0374  0.0639
  196loPI   GL2 3126  17.979   7.175   9.017 -0.0021  0.0722  0.2821
  196loPI   C1A 3127  18.093   7.602   8.548 -0.4292  0.1857  0.0812
  196loPI   C2A 3128  17.952   7.701   8.148  0.0472  0.2117 -0.2637
  196loPI   C3A 3129  17.819   7.769   7.736 -0.2016 -0.0384 -0.0517
  196loPI   C4A 3130  18.054   7.954   7.415 -0.1370 -0.2488 -0.2387
  196loPI   C5A 3131  17.907   8.133   7.099 -0.0677 -0.2404 -0.0312
  196loPI   C6A 3132  18.182   8.129   6.693 -0.2813 -0.0757 -0.0441
  196loPI   C1B 3133  17.780   7.060   8.701  0.0955 -0.0871  0.3694
  196loPI   C2B 3134  17.772   7.102   8.321  0.0798 -0.0591  0.1686
  196loPI   C3B 3135  17.821   7.277   7.873 -0.3116 -0.0069 -0.0678
  196loPI   C4B 3136  18.161   7.500   7.527  0.0582 -0.2917 -0.1858
  197loPI    C1 3137  14.926   9.339   9.984 -0.1225  0.0274 -0.0556
  197loPI    C2 3138  15.234   9.444  10.216  0.1239 -0.2607 -0.2451
  197loPI    C3 3139  14.867   9.581  10.297  0.2953  0.0706 -0.0051
  197loPI   PO4 3140  15.001   9.436   9.781  0.1004  0.0827 -0.1065
  197loPI   GL1 3141  15.017   9.310   9.331  0.1673  0.2309 -0.0189
  197loPI   GL2 3142  14.628   9.258   9.421  0.0977 -0.0189  0.1106
  197loPI   C1A 3143  15.247   9.460   9.011 -0.1719 -0.1307  0.0536
  197loPI   C2A 3144  15.340   9.685   8.650 -0.2377 -0.2455 -0.0459
  197loPI   C3A 3145  15.561   9.532   8.344 -0.2079 -0.1011  0.3489
  197loPI   C4A 3146  15.728   9.367   7.971 -0.0982 -0.3671  0.2751
  197loPI   C5A 3147  15.787   9.148   7.605 -0.2620  0.2525  0.0157
  197loPI   C6A 3148  15.994   9.106   7.254 -0.2259  0.0802  0.0129
  197loPI   C1B 3149  14.640   8.996   9.013 -0.0489 -0.0399  0.1764
  197loPI   C2B 3150  14.806   8.799   8.593 -0.2160  0.2488  0.1032
  197loPI   C3B 3151  14.926   8.876   8.133  0.0425 -0.0743 -0.1244
  197loPI   C4B 3152  14.887   8.899   7.645  0.0560  0.0628  0.0768
  198loPI    C1 3153  11.689   7.587  10.361 -0.3137 -0.1035  0.0012
  198loPI    C2 3154  11.830   7.539  10.732 -0.0592  0.2017 -0.0506
  198loPI    C3 3155  11.549   7.291  10.591 -0.0227 -0.0338  0.2760
  198loPI   PO4 3156  11.939   7.677  10.258  0.3300 -0.0942 -0.1237
  198loPI   GL1 3157  12.048   7.848   9.957 -0.2548  0.0349  0.3772
  198loPI   GL2 3158  11.898   8.027   9.666 -0.2152  0.0269 -0.0479
  198loPI   C1A 3159  11.970   7.527   9.660  0.0582  0.3273  0.0076
  198loPI   C2A 3160  11.784   7.366   9.276 -0.0105  0.1236 -0.2897
  198loPI   C3A 3161  11.589   7.301   8.969  0.0091 -0.2224  0.0987
  198loPI   C4A 3162  11.611   7.485   8.658 -0.2778 -0.2234 -0.2186
  198loPI   C5A 3163  11.777   7.810   8.333  0.2701 -0.2130 -0.0659
  198loPI   C6A 3164  11.920   7.851   7.904  0.0963 -0.2614  0.0430
  198loPI   C1B 3165  11.727   8.264   9.312  0.0050 -0.2207 -0.2266
  198loPI   C2B 3166  11.752   8.529   8.935 -0.1904 -0.1021  0.1461
  198loPI   C3B 3167  11.570   8.746   8.569 -0.0214 -0.2577  0.0177
  198loPI   C4B 3168  11.497   8.704   8.137 -0.1737 -0.0143 -0.1362
  199loPI    C1 3169  12.098  13.971  10.498 -0.0505 -0.0078  0.0896
  199loPI    C2 3170  12.238  13.710  10.767 -0.1017  0.0310  0.1542
  199loPI    C3 3171  12.276  14.103  10.831 -0.1446  0.0407  0.1210
  199loPI   PO4 3172  12.146  13.728  10.283  0.0493 -0.1252  0.2095
  199loPI   GL1 3173  12.130  13.562   9.922 -0.1078  0.2067  0.1144
  199loPI   GL2 3174  11.859  13.293   9.845 -0.0034  0.2511  0.2582
  199loPI   C1A 3175  12.380  13.428   9.698 -0.1283 -0.1574 -0.0578
  199loPI   C2A 3176  12.401  13.591   9.298  0.0450  0.1587  0.1154
  199loPI   C3A 3177  12.234  13.563   8.859  0.3365 -0.0194 -0.1436
  199loPI   C4A 3178  12.101  13.257   8.448  0.2079  0.2810  0.0410
  199loPI   C5A 3179  12.070  12.858   8.336 -0.0246 -0.1216  0.0110
  199loPI   C6A 3180  11.860  12.545   8.429  0.0165  0.0896 -0.1650
  199loPI   C1B 3181  11.658  13.156   9.508 -0.1228 -0.0108  0.4444
  199loPI   C2B 3182  11.485  13.020   9.072 -0.0448  0.0639 -0.2319
  199loPI   C3B 3183  11.213  13.209   8.893  0.5975  0.0621  0.2266
  199loPI   C4B 3184  10.858  13.223   8.488 -0.1870 -0.0343 -0.1097
  200loPI    C1 3185  10.222  11.596  10.580 -0.0230 -0.0282  0.1914
  200loPI    C2 3186  10.371  11.826  10.872  0.0196  0.1473  0.0335
  200loPI    C3 3187  10.181  11.485  10.962  0.1273  0.1456  0.2592
  200loPI   PO4 3188  10.330  11.717  10.330  0.0731  0.3434 -0.0870
  200loPI   GL1 3189  10.510  11.476   9.965  0.1486 -0.1171  0.0436
  200loPI   GL2 3190  10.537  11.773   9.870  0.0409 -0.3501  0.1877
  200loPI   C1A 3191  10.570  11.212   9.509 -0.0099 -0.1333  0.0717
  200loPI   C2A 3192  10.493  11.207   8.994 -0.3313 -0.0745 -0.2143
  200loPI   C3A 3193  10.459  11.132   8.610  0.0684  0.2483  0.2491
  200loPI   C4A 3194  10.573  10.911   8.169 -0.2569 -0.0224 -0.1946
  200loPI   C5A 3195  10.717  10.515   7.923 -0.2012  0.1152  0.1826
  200loPI   C6A 3196  11.075  10.476   7.578  0.0136  0.0275 -0.2380
  200loPI   C1B 3197  10.409  11.860   9.517  0.2230 -0.1035 -0.3608
  200loPI   C2B 3198  10.537  11.764   9.103 -0.1470 -0.1561 -0.4047
  200loPI   C3B 3199  10.673  11.690   8.660 -0.0725 -0.0373 -0.2373
  200loPI   C4B 3200  10.701  11.446   8.201  0.4079  0.1042  0.1085
  201loPI    C1 3201   5.850  14.301   9.916 -0.1230  0.1594  0.1066
  201loPI    C2 3202   5.802  14.434  10.290 -0.0837 -0.1048  0.2077
  201loPI    C3 3203   5.503  14.244  10.106 -0.1737  0.2044  0.0276
  201loPI   PO4 3204   6.121  14.249   9.903 -0.2521 -0.2717  0.3969
  201loPI   GL1 3205   6.242  14.043   9.526  0.5298  0.1168  0.1277
  201loPI   GL2 3206   5.962  14.086   9.384  0.0740  0.1721 -0.0189
  201loPI   C1A 3207   6.410  14.319   9.181 -0.1233  0.1024 -0.0620
  201loPI   C2A 3208   6.478  14.621   8.857 -0.1785 -0.0179 -0.0431
  201loPI   C3A 3209   6.486  14.857   8.533 -0.0508  0.0237 -0.1388
  201loPI   C4A 3210   6.462  15.082   8.150 -0.2037 -0.0389  0.1924
  201loPI   C5A 3211   6.630  15.429   7.898 -0.3931 -0.2729  0.0632
  201loPI   C6A 3212   6.879  15.783   7.806 -0.0677 -0.2855  0.0813
  201loPI   C1B 3213   5.959  14.047   8.959 -0.0488  0.2473 -0.1977
  201loPI   C2B 3214   5.858  13.863   8.549  0.0202  0.1719 -0.2436
  201loPI   C3B 3215   5.834  13.840   8.213  0.0027 -0.3378 -0.0724
  201loPI   C4B 3216   5.922  13.547   7.886  0.0556 -0.4298 -0.2644
  202loPI    C1 3217  16.069   5.999   9.795 -0.0538 -0.0608 -0.1367
  202loPI    C2 3218  16.224   6.323   9.619  0.0677 -0.0394  0.0075
  202loPI    C3 3219  16.301   6.249  10.004 -0.1264 -0.1313  0.0297
  202loPI   PO4 3220  16.048   5.891   9.540  0.0442 -0.3109  0.0665
  202loPI   GL1 3221  16.453   5.841   9.285  0.2553 -0.2768 -0.4569
  202loPI   GL2 3222  16.409   6.218   9.168  0.2378  0.0064  0.1898
  202loPI   C1A 3223  16.383   5.578   8.931 -0.5206 -0.1465  0.0472
  202loPI   C2A 3224  16.071   5.456   8.655  0.1416 -0.1516 -0.2203
  202loPI   C3A 3225  15.872   5.679   8.268  0.1408 -0.0787  0.3055
  202loPI   C4A 3226  15.957   5.716   7.818  0.3356 -0.3863  0.0567
  202loPI   C5A 3227  16.079   5.709   7.477  0.0161 -0.0015  0.1462
  202loPI   C6A 3228  16.468   5.758   7.032  0.1092 -0.3965  0.0096
  202loPI   C1B 3229  16.486   6.062   8.809 -0.2209 -0.2908  0.2774
  202loPI   C2B 3230  16.458   5.864   8.420 -0.2782  0.0077 -0.0309
  202loPI   C3B 3231  16.490   5.396   8.405  0.0476  0.0613 -0.0484
  202loPI   C4B 3232  16.843   5.203   8.344 -0.4031 -0.1080 -0.1219
  203loPI    C1 3233   6.853  16.036  10.214  0.4262 -0.4942  0.0122
  203loPI    C2 3234   7.068  16.252  10.473 -0.1285 -0.0241  0.0996
  203loPI    C3 3235   6.867  15.931  10.600  0.1050 -0.1642  0.1197
  203loPI   PO4 3236   6.873  16.306  10.029  0.1352 -0.1446 -0.1920
  203loPI   GL1 3237   6.793  16.250   9.654 -0.1241  0.0733 -0.0855
  203loPI   GL2 3238   7.134  16.340   9.543  0.3070 -0.0345  0.0129
  203loPI   C1A 3239   6.650  16.525   9.324 -0.0325  0.0476 -0.0718
  203loPI   C2A 3240   6.550  16.598   8.900  0.2667  0.1486 -0.1956
  203loPI   C3A 3241   6.486  16.614   8.534  0.2454 -0.1955  0.0343
  203loPI   C4A 3242   6.470  16.784   8.102  0.0740  0.3254 -0.0982
  203loPI   C5A 3243   6.367  17.062   7.810 -0.2399  0.1503 -0.1344
  203loPI   C6A 3244   6.496  17.530   7.620  0.0234  0.3216  0.1056
  203loPI   C1B 3245   7.264  16.549   9.202 -0.0139  0.0749 -0.0469
  203loPI   C2B 3246   7.346  16.678   8.757 -0.1461 -0.0975 -0.2539
  203loPI   C3B 3247   7.622  16.785   8.414  0.0104  0.0659 -0.2866
  203loPI   C4B 3248   7.496  16.660   8.002 -0.2961 -0.1177 -0.1874
  204loPI    C1 3249   5.101  16.117  10.297  0.1484  0.1177  0.0745
  204loPI    C2 3250   4.812  16.393  10.299 -0.1532 -0.1914  0.0651
  204loPI    C3 3251   5.048  16.349  10.619  0.1379  0.3172 -0.0696
  204loPI   PO4 3252   5.193  16.111  10.038  0.1638  0.0859 -0.1014
  204loPI   GL1 3253   5.248  15.983   9.571  0.0445  0.1869 -0.0694
  204loPI   GL2 3254   5.050  15.670   9.450 -0.1770 -0.2364  0.3265
  204loPI   C1A 3255   5.420  16.239   9.156  0.0698 -0.0263 -0.0288
  204loPI   C2A 3256   5.326  16.106   8.740 -0.1410 -0.1623  0.0184
  204loPI   C3A 3257   5.417  15.976   8.394 -0.2477 -0.2941 -0.3144
  204loPI   C4A 3258   5.301  15.951   7.957 -0.2310  0.0855 -0.0509
  204loPI   C5A 3259   5.270  15.987   7.521 -0.2227 -0.0059 -0.3821
  204loPI   C6A 3260   5.236  16.227   7.188  0.1167  0.0442  0.1323
  204loPI   C1B 3261   4.910  16.088   9.150  0.3106 -0.2215  0.0584
  204loPI   C2B 3262   4.880  16.078   8.738  0.0356 -0.3505  0.0944
  204loPI   C3B 3263   4.886  15.930   8.306 -0.1077  0.0771  0.0594
  204loPI   C4B 3264   4.808  15.994   7.900 -0.1576  0.0195 -0.2217
  205loPI    C1 3265  13.342   2.927  10.675  0.0192  0.1875 -0.2795
  205loPI    C2 3266  12.947   2.938  10.735  0.0395  0.0625 -0.1160
  205loPI    C3 3267  13.196   3.062  11.023  0.1208  0.0854 -0.1961
  205loPI   PO4 3268  13.380   2.730  10.464  0.0678 -0.2105  0.1848
  205loPI   GL1 3269  13.319   2.570   9.919 -0.0324 -0.0550  0.0564
  205loPI   GL2 3270  13.445   2.903   9.893 -0.0999 -0.2783 -0.2896
  205loPI   C1A 3271  13.392   2.690   9.486 -0.2112 -0.1630  0.0868
  205loPI   C2A 3272  13.326   2.701   9.160 -0.0421  0.0283 -0.0951
  205loPI   C3A 3273  13.373   2.638   8.781 -0.0902 -0.1190 -0.1764
  205loPI   C4A 3274  13.319   2.522   8.407 -0.3414 -0.3865 -0.0484
  205loPI   C5A 3275  13.554   2.181   8.228 -0.1463 -0.0642  0.0299
  205loPI   C6A 3276  13.476   1.812   8.063 -0.2303 -0.1080 -0.0827
  205loPI   C1B 3277  13.764   3.060   9.689  0.3117  0.1631  0.0596
  205loPI   C2B 3278  13.801   2.959   9.216  0.0239  0.0245  0.2882
  205loPI   C3B 3279  13.808   2.916   8.839  0.0304 -0.0383  0.1931
  205loPI   C4B 3280  13.830   2.872   8.495  0.1542 -0.1262 -0.0737
  206loPI    C1 3281  15.931   8.247  10.082 -0.1580 -0.0213 -0.2292
  206loPI    C2 3282  16.223   8.274  10.354 -0.2903 -0.2154 -0.0642
  206loPI    C3 3283  15.858   8.154  10.464 -0.4166 -0.0387 -0.2811
  206loPI   PO4 3284  16.067   8.141   9.792  0.0493 -0.0660  0.2950
  206loPI   GL1 3285  15.917   8.181   9.398 -0.0530 -0.0026  0.3043
  206loPI   GL2 3286  16.153   8.044   9.316 -0.0774 -0.0304  0.2244
  206loPI   C1A 3287  15.655   8.106   9.029  0.3206 -0.0542 -0.2247
  206loPI   C2A 3288  15.669   8.279   8.639  0.0905  0.1871  0.0859
  206loPI   C3A 3289  15.865   8.539   8.293 -0.4496  0.1166  0.2627
  206loPI   C4A 3290  15.815   8.495   7.887  0.0655 -0.2447 -0.0535
  206loPI   C5A 3291  15.946   8.504   7.461  0.1011 -0.0447  0.1460
  206loPI   C6A 3292  16.119   8.222   7.192  0.2371 -0.0864  0.1412
  206loPI   C1B 3293  16.130   8.147   8.913 -0.0273 -0.0574 -0.3005
  206loPI   C2B 3294  16.094   8.056   8.533  0.0015 -0.0303  0.1258
  206loPI   C3B 3295  15.820   8.036   8.117 -0.1098 -0.2894 -0.3868
  206loPI   C4B 3296  15.779   8.041   7.702  0.0645  0.0668 -0.0143
  207loPI    C1 3297  13.300   6.909  10.315  0.0470  0.0448 -0.2100
  207loPI    C2 3298  13.004   7.021  10.070 -0.1919  0.2123  0.1474
  207loPI    C3 3299  13.009   6.651  10.221 -0.2031  0.2004  0.1188
  207loPI   PO4 3300  13.547   6.946  10.126 -0.2613 -0.0845  0.0566
  207loPI   GL1 3301  13.597   7.049   9.730  0.0220 -0.0613  0.0487
  207loPI   GL2 3302  13.304   6.809   9.686  0.0206  0.2246  0.0333
  207loPI   C1A 3303  13.817   7.021   9.314 -0.2603 -0.0674  0.1179
  207loPI   C2A 3304  13.858   7.015   8.882 -0.0719  0.1524 -0.1717
  207loPI   C3A 3305  13.535   7.110   8.587  0.0193  0.0237 -0.1373
  207loPI   C4A 3306  13.359   6.945   8.179  0.0013 -0.0129 -0.1091
  207loPI   C5A 3307  13.445   7.025   7.801  0.0720  0.0711 -0.2633
  207loPI   C6A 3308  13.170   7.117   7.467 -0.2818  0.1750  0.0191
  207loPI   C1B 3309  13.320   7.069   9.294  0.0628 -0.0116 -0.0284
  207loPI   C2B 3310  13.182   6.984   8.871 -0.1029  0.1598 -0.2270
  207loPI   C3B 3311  12.995   6.942   8.509 -0.0339  0.2474 -0.1007
  207loPI   C4B 3312  12.658   6.794   8.284  0.3344  0.0812 -0.1807
  208loPI    C1 3313  14.354  11.093  10.467 -0.1371  0.0185 -0.1191
  208loPI    C2 3314  14.701  11.013  10.284 -0.0124  0.0061  0.1178
  208loPI    C3 3315  14.681  11.305  10.557 -0.2308  0.1228 -0.0197
  208loPI   PO4 3316  14.179  11.100  10.217 -0.0628 -0.0658 -0.0646
  208loPI   GL1 3317  14.108  10.973   9.763 -0.0505  0.0908 -0.2085
  208loPI   GL2 3318  14.193  11.286   9.623 -0.0462  0.0357 -0.1572
  208loPI   C1A 3319  14.072  10.828   9.270 -0.3270  0.1989  0.0042
  208loPI   C2A 3320  14.198  10.549   8.937 -0.0086  0.0634 -0.0927
  208loPI   C3A 3321  14.289  10.234   8.579 -0.0252 -0.1690  0.1585
  208loPI   C4A 3322  14.356  10.263   8.173  0.0419 -0.0143 -0.0942
  208loPI   C5A 3323  14.338  10.015   7.762 -0.0907 -0.0568 -0.2839
  208loPI   C6A 3324  14.273   9.701   7.430  0.0892 -0.1113  0.0594
  208loPI   C1B 3325  14.275  11.308   9.138 -0.2096  0.1543 -0.0505
  208loPI   C2B 3326  14.122  11.339   8.674  0.3398  0.5265 -0.1997
  208loPI   C3B 3327  13.998  11.194   8.214  0.1729  0.0973  0.2560
  208loPI   C4B 3328  14.160  11.036   7.906 -0.1225 -0.0818 -0.2355
  209loPI    C1 3329  11.067  16.586  10.640 -0.2592 -0.0743  0.0806
  209loPI    C2 3330  11.038  16.259  10.868 -0.0419 -0.2114 -0.0842
  209loPI    C3 3331  11.332  16.523  10.933 -0.1663 -0.0906 -0.0063
  209loPI   PO4 3332  11.048  16.417  10.360 -0.3317  0.0454 -0.2831
  209loPI   GL1 3333  10.806  16.471  10.025 -0.0454 -0.1435 -0.0376
  209loPI   GL2 3334  10.770  16.759   9.943  0.0715 -0.3703 -0.2831
  209loPI   C1A 3335  11.060  16.406   9.545  0.3273  0.1165 -0.1672
  209loPI   C2A 3336  11.023  16.513   9.152  0.1228  0.2379  0.0311
  209loPI   C3A 3337  11.225  16.434   8.727  0.3174 -0.0057  0.0983
  209loPI   C4A 3338  11.496  16.457   8.389  0.2023  0.3195 -0.0119
  209loPI   C5A 3339  11.894  16.368   8.169 -0.0681  0.1193  0.0850
  209loPI   C6A 3340  12.243  16.001   8.198 -0.2391  0.2909 -0.0996
  209loPI   C1B 3341  10.828  16.916   9.575 -0.1403  0.0407  0.2075
  209loPI   C2B 3342  10.809  16.955   9.141  0.0985  0.0055  0.0554
  209loPI   C3B 3343  10.884  16.783   8.743 -0.1495  0.0486 -0.1733
  209loPI   C4B 3344  11.042  16.670   8.276  0.1276 -0.2556  0.2628
  210loPI    C1 3345   7.693   5.729  10.050  0.1567  0.2665 -0.0852
  210loPI    C2 3346   7.650   5.579  10.419 -0.0335 -0.1935 -0.2866
  210loPI    C3 3347   7.336   5.741  10.231  0.0762  0.0913 -0.2285
  210loPI   PO4 3348   7.920   5.798   9.935  0.2083  0.0560 -0.0091
  210loPI   GL1 3349   7.958   5.885   9.534  0.0145  0.0077  0.2780
  210loPI   GL2 3350   8.109   5.639   9.367 -0.2150  0.1063 -0.1452
  210loPI   C1A 3351   7.787   6.089   9.176  0.2153  0.0721  0.2186
  210loPI   C2A 3352   7.811   6.208   8.812  0.1001  0.1092 -0.1513
  210loPI   C3A 3353   8.054   6.512   8.558 -0.1429 -0.1010 -0.2110
  210loPI   C4A 3354   8.082   6.910   8.364  0.0737  0.1995  0.1373
  210loPI   C5A 3355   8.347   7.044   7.953  0.0080  0.2731 -0.1570
  210loPI   C6A 3356   8.490   7.205   7.548 -0.0057 -0.1785  0.2231
  210loPI   C1B 3357   8.279   5.640   8.929  0.2267 -0.1569  0.0197
  210loPI   C2B 3358   8.079   5.772   8.544 -0.0426 -0.1038 -0.0323
  210loPI   C3B 3359   8.004   6.058   8.261 -0.2582 -0.2694 -0.0999
  210loPI   C4B 3360   8.253   6.491   8.057 -0.2304 -0.1163 -0.0096
  211loPI    C1 3361  10.938  14.897  10.211  0.1095  0.1601  0.0230
  211loPI    C2 3362  11.089  14.596  10.427 -0.0724 -0.1280 -0.2418
  211loPI    C3 3363  10.944  14.921  10.611  0.2253 -0.1500  0.0422
  211loPI   PO4 3364  11.109  15.009  10.068  0.1791 -0.0631  0.2546
  211loPI   GL1 3365  11.367  15.107   9.754 -0.1629 -0.0889  0.2862
  211loPI   GL2 3366  11.324  14.782   9.682 -0.0597 -0.1139  0.2016
  211loPI   C1A 3367  11.201  15.305   9.363 -0.1192  0.0004  0.0630
  211loPI   C2A 3368  11.088  15.458   8.987  0.0607  0.1036  0.1062
  211loPI   C3A 3369  11.156  15.443   8.652  0.0712  0.1993 -0.0542
  211loPI   C4A 3370  11.155  15.721   8.205 -0.2024 -0.0723 -0.1335
  211loPI   C5A 3371  11.334  16.113   8.023  0.1126 -0.0739 -0.1130
  211loPI   C6A 3372  11.541  16.506   7.881  0.0412  0.2119  0.0835
  211loPI   C1B 3373  11.483  14.848   9.202 -0.1770  0.2097 -0.0477
  211loPI   C2B 3374  11.444  15.002   8.781  0.3062 -0.1939 -0.1566
  211loPI   C3B 3375  11.377  14.990   8.367  0.3556  0.0119 -0.4961
  211loPI   C4B 3376  11.202  14.945   7.982 -0.2756  0.1355 -0.3318
  212loPI    C1 3377   4.650   0.214  10.500 -0.0043  0.0341 -0.0758
  212loPI    C2 3378   4.445  -0.018  10.754 -0.1144  0.1781 -0.0312
  212loPI    C3 3379   4.820   0.091  10.840 -0.1423  0.2047  0.0574
  212loPI   PO4 3380   4.501   0.074  10.235  0.3061  0.1221  0.1793
  212loPI   GL1 3381   4.541   0.288   9.785  0.0283 -0.1796 -0.1018
  212loPI   GL2 3382   4.209   0.340   9.887 -0.1882  0.1509 -0.0696
  212loPI   C1A 3383   4.479   0.626   9.475  0.2066  0.1467  0.1954
  212loPI   C2A 3384   4.560   0.881   9.073 -0.1051  0.0455 -0.1133
  212loPI   C3A 3385   4.596   0.908   8.697 -0.1114  0.0693 -0.1892
  212loPI   C4A 3386   4.696   0.825   8.253  0.0441 -0.2131 -0.1858
  212loPI   C5A 3387   4.590   0.939   7.858 -0.0156  0.0291 -0.1820
  212loPI   C6A 3388   4.525   1.030   7.413  0.2026  0.2396  0.0247
  212loPI   C1B 3389   4.217   0.194   9.424 -0.0416 -0.1574  0.0370
  212loPI   C2B 3390   4.197  -0.119   9.151 -0.1787 -0.2591 -0.1589
  212loPI   C3B 3391   4.372  -0.212   8.740 -0.2147 -0.0066 -0.3891
  212loPI   C4B 3392   4.734  -0.125   8.319 -0.1400 -0.1591 -0.1917
  213loPI    C1 3393  13.499  13.707  10.570  0.1225  0.0497  0.1171
  213loPI    C2 3394  13.457  13.748  10.966  0.2133  0.0064  0.1316
  213loPI    C3 3395  13.753  13.523  10.819 -0.0144 -0.2426  0.0454
  213loPI   PO4 3396  13.443  13.937  10.436 -0.3515 -0.1210  0.2220
  213loPI   GL1 3397  13.405  14.157  10.095 -0.1841  0.1462 -0.1167
  213loPI   GL2 3398  13.521  14.298   9.805 -0.0133  0.2216 -0.1603
  213loPI   C1A 3399  12.980  13.966   9.896 -0.0826  0.0160 -0.1545
  213loPI   C2A 3400  12.802  14.018   9.461 -0.0394 -0.0985 -0.0223
  213loPI   C3A 3401  12.597  13.959   9.082  0.1026 -0.2417  0.2598
  213loPI   C4A 3402  12.487  13.927   8.606  0.1083 -0.1024 -0.0143
  213loPI   C5A 3403  12.301  14.161   8.269  0.0059 -0.5944  0.4386
  213loPI   C6A 3404  12.431  14.197   7.818  0.0992  0.0511  0.1557
  213loPI   C1B 3405  13.479  14.377   9.420 -0.2851 -0.0857  0.0784
  213loPI   C2B 3406  13.776  14.459   9.083 -0.2199 -0.3098 -0.1240
  213loPI   C3B 3407  13.774  14.424   8.704 -0.4626 -0.1597 -0.1014
  213loPI   C4B 3408  13.662  14.425   8.273 -0.1904  0.2164 -0.0705
  214loPI    C1 3409   5.495   3.886  10.155 -0.1433  0.1034  0.1446
  214loPI    C2 3410   5.793   3.959  10.412  0.0361 -0.0408 -0.0193
  214loPI    C3 3411   5.478   4.206  10.395  0.1515  0.1205  0.1461
  214loPI   PO4 3412   5.587   3.842   9.957 -0.0507 -0.0783  0.2056
  214loPI   GL1 3413   5.855   3.678   9.688 -0.1777  0.0025 -0.1595
  214loPI   GL2 3414   5.535   3.540   9.552 -0.2608  0.2429 -0.3274
  214loPI   C1A 3415   5.761   3.892   9.257  0.3622  0.1498 -0.2067
  214loPI   C2A 3416   5.788   3.833   8.793  0.0303 -0.2480 -0.1754
  214loPI   C3A 3417   5.954   3.852   8.478  0.0009  0.0259 -0.0063
  214loPI   C4A 3418   6.102   3.830   8.137 -0.0595  0.0408  0.1658
  214loPI   C5A 3419   6.352   3.694   7.790 -0.5063  0.1674  0.0868
  214loPI   C6A 3420   6.312   3.537   7.335 -0.0671 -0.0244 -0.0987
  214loPI   C1B 3421   5.438   3.501   9.120 -0.2867  0.1796 -0.3037
  214loPI   C2B 3422   5.465   3.492   8.669 -0.0988  0.0642 -0.0011
  214loPI   C3B 3423   5.511   3.708   8.255  0.0286  0.0949 -0.0545
  214loPI   C4B 3424   5.449   3.846   7.865  0.2061  0.1957 -0.0251
  215loPI    C1 3425  16.914  18.648   9.841 -0.0510 -0.0664  0.2271
  215loPI    C2 3426  16.974  18.439  10.176  0.1210 -0.1458  0.1484
  215loPI    C3 3427  17.223  18.736  10.079 -0.1201  0.0973  0.2581
  215loPI   PO4 3428  16.922  18.476   9.672  0.1282 -0.1454 -0.0065
  215loPI   GL1 3429  16.942  18.061   9.549 -0.1227 -0.0750  0.0140
  215loPI   GL2 3430  17.202  18.174   9.363  0.0313 -0.1276  0.2633
  215loPI   C1A 3431  16.832  17.696   9.342 -0.1310  0.0765  0.0374
  215loPI   C2A 3432  16.761  17.741   8.944  0.2714 -0.2314  0.3530
  215loPI   C3A 3433  16.683  17.872   8.551 -0.0219  0.0489  0.2062
  215loPI   C4A 3434  16.454  17.848   8.161 -0.1797  0.2132 -0.2426
  215loPI   C5A 3435  16.466  17.553   7.776  0.1188  0.3233 -0.0494
  215loPI   C6A 3436  16.383  17.348   7.388 -0.0600  0.2350 -0.2346
  215loPI   C1B 3437  16.961  18.196   9.044  0.2526  0.0949 -0.3194
  215loPI   C2B 3438  16.711  18.315   8.724  0.1190  0.0368  0.2523
  215loPI   C3B 3439  16.690  18.319   8.236 -0.1091 -0.2285 -0.0311
  215loPI   C4B 3440  16.751  18.523   7.879 -0.2522 -0.1058  0.0508
  216loPI    C1 3441   8.543  17.163  10.360  0.1085 -0.2704 -0.0101
  216loPI    C2 3442   8.697  16.850  10.557 -0.1515 -0.2550  0.2229
  216loPI    C3 3443   8.335  16.990  10.654 -0.2095 -0.1342 -0.1512
  216loPI   PO4 3444   8.604  17.109  10.113  0.0456  0.3398 -0.2230
  216loPI   GL1 3445   8.334  17.109   9.753  0.2205  0.0558 -0.0240
  216loPI   GL2 3446   8.277  17.354   9.890 -0.0795 -0.0145 -0.0977
  216loPI   C1A 3447   8.495  17.030   9.444  0.0217  0.1869  0.0293
  216loPI   C2A 3448   8.654  17.153   9.029 -0.2377  0.1828 -0.2816
  216loPI   C3A 3449   9.014  17.325   8.878 -0.1227 -0.3677  0.3053
  216loPI   C4A 3450   9.181  17.524   8.505 -0.0465  0.0245 -0.2592
  216loPI   C5A 3451   9.617  17.453   8.322  0.2578 -0.1434  0.1719
  216loPI   C6A 3452   9.843  17.752   8.114  0.1874  0.1438 -0.0883
  216loPI   C1B 3453   8.274  17.444   9.388 -0.0952 -0.0947 -0.2112
  216loPI   C2B 3454   8.209  17.278   9.052  0.0622 -0.4034 -0.1254
  216loPI   C3B 3455   8.364  17.352   8.670  0.1250 -0.3076 -0.1419
  216loPI   C4B 3456   8.427  17.302   8.182 -0.2083 -0.0117 -0.1652
  217loPI    C1 3457   1.935   4.351   9.840 -0.0357  0.0389  0.1688
  217loPI    C2 3458   1.653   4.260   9.571 -0.0493  0.2018  0.1270
  217loPI    C3 3459   1.556   4.303   9.957  0.0312 -0.3936  0.2220
  217loPI   PO4 3460   2.146   4.239   9.757  0.2318 -0.0112 -0.2025
  217loPI   GL1 3461   2.464   4.208   9.313  0.1298 -0.2531 -0.1006
  217loPI   GL2 3462   2.504   4.573   9.127 -0.1830  0.0741  0.1615
  217loPI   C1A 3463   2.372   4.149   8.795 -0.1555  0.0408 -0.1436
  217loPI   C2A 3464   2.511   4.038   8.414  0.0995 -0.5190  0.1404
  217loPI   C3A 3465   2.598   4.053   7.949 -0.0622 -0.1146 -0.1154
  217loPI   C4A 3466   2.494   3.854   7.447 -0.0951 -0.2655  0.0614
  217loPI   C5A 3467   2.065   3.707   7.195  0.3005 -0.1055 -0.0075
  217loPI   C6A 3468   1.995   3.448   6.805  0.0467  0.0235  0.1377
  217loPI   C1B 3469   2.436   4.594   8.644  0.3020  0.2552  0.1015
  217loPI   C2B 3470   2.395   4.460   8.182  0.0968 -0.1199 -0.0510
  217loPI   C3B 3471   2.114   4.492   7.824  0.0154  0.2442  0.0616
  217loPI   C4B 3472   2.009   4.097   7.551  0.0887  0.2627  0.0828
  218loPI    C1 3473   0.416  14.593  10.238  0.0286  0.1708 -0.2103
  218loPI    C2 3474   0.509  14.872  10.509 -0.0725  0.2629 -0.2694
  218loPI    C3 3475   0.762  14.571  10.436 -0.0631  0.2146 -0.0432
  218loPI   PO4 3476   0.329  14.700  10.068 -0.1504 -0.0837 -0.0731
  218loPI   GL1 3477   0.117  14.461   9.729 -0.2519  0.1365  0.0551
  218loPI   GL2 3478  -0.117  14.542   9.551 -0.1955 -0.0217  0.2153
  218loPI   C1A 3479   0.246  14.558   9.217 -0.0950  0.0162  0.2568
  218loPI   C2A 3480   0.488  14.464   8.938  0.2185  0.1053 -0.3301
  218loPI   C3A 3481   0.524  14.449   8.481 -0.0089 -0.0005 -0.0259
  218loPI   C4A 3482   0.866  14.439   8.241 -0.0239 -0.0849  0.1388
  218loPI   C5A 3483   0.910  14.206   7.840 -0.5900 -0.0651 -0.0466
  218loPI   C6A 3484   0.596  14.181   7.652 -0.2750  0.0521 -0.3882
  218loPI   C1B 3485  -0.215  14.451   9.009 -0.4908  0.1573  0.0653
  218loPI   C2B 3486  -0.008  14.613   8.678 -0.1696 -0.0461 -0.1063
  218loPI   C3B 3487   0.004  14.798   8.255 -0.0851  0.2181 -0.2271
  218loPI   C4B 3488   0.123  14.769   7.804  0.0605  0.1483  0.0925
  219loPI    C1 3489   9.518  12.801  10.333 -0.0534  0.0930 -0.1126
  219loPI    C2 3490   9.179  12.965  10.469 -0.0109 -0.0569  0.1818
  219loPI    C3 3491   9.458  12.837  10.726  0.1298 -0.2292 -0.0514
  219loPI   PO4 3492   9.669  12.899  10.211 -0.1092  0.2042  0.2745
  219loPI   GL1 3493   9.659  12.969   9.751  0.0679  0.0092 -0.1321
  219loPI   GL2 3494   9.658  12.639   9.770 -0.0452  0.3382 -0.1681
  219loPI   C1A 3495   9.488  12.997   9.347 -0.1476  0.0909  0.0255
  219loPI   C2A 3496   9.506  13.058   8.858  0.3770 -0.0823 -0.3834
  219loPI   C3A 3497   9.554  13.052   8.441  0.1634  0.1695 -0.2446
  219loPI   C4A 3498   9.677  13.038   8.026 -0.0160 -0.2568 -0.1999
  219loPI   C5A 3499   9.922  13.035   7.646 -0.2269 -0.2441  0.3337
  219loPI   C6A 3500   9.964  13.087   7.313 -0.0940  0.0452  0.0525
  219loPI   C1B 3501   9.875  12.628   9.450  0.1936 -0.3613  0.1093
  219loPI   C2B 3502   9.850  12.671   9.043  0.0731 -0.0015  0.3598
  219loPI   C3B 3503  10.028  12.664   8.655  0.0266  0.0552  0.2438
  219loPI   C4B 3504  10.182  12.741   8.179  0.1848 -0.0387  0.0438
  220loPI    C1 3505   7.402  11.527   9.870 -0.1689  0.0636  0.0877
  220loPI    C2 3506   7.307  11.144   9.935 -0.0187  0.0281  0.1017
  220loPI    C3 3507   7.623  11.306  10.119 -0.1226  0.1790  0.1499
  220loPI   PO4 3508   7.195  11.707   9.906 -0.0846 -0.0629  0.1470
  220loPI   GL1 3509   7.241  11.934   9.537  0.1021 -0.2080  0.0708
  220loPI   GL2 3510   7.528  11.884   9.540 -0.1092  0.2242  0.3444
  220loPI   C1A 3511   7.408  11.524   9.257  0.0378 -0.0741  0.0209
  220loPI   C2A 3512   7.675  11.361   8.925 -0.1309  0.0829  0.1911
  220loPI   C3A 3513   7.799  11.527   8.494  0.1229 -0.0453  0.0274
  220loPI   C4A 3514   7.892  11.329   8.050 -0.0695  0.2023 -0.3846
  220loPI   C5A 3515   8.066  11.313   7.552 -0.1162  0.2668 -0.1920
  220loPI   C6A 3516   8.215  11.328   7.120  0.0325 -0.1096 -0.1894
  220loPI   C1B 3517   7.543  12.043   9.159 -0.0106 -0.0387 -0.0381
  220loPI   C2B 3518   7.350  12.369   8.876 -0.3176  0.1918 -0.3025
  220loPI   C3B 3519   7.076  12.525   8.558  0.0088 -0.0342  0.1669
  220loPI   C4B 3520   7.233  12.311   8.088  0.1134  0.0313  0.3639
  221loPI    C1 3521   1.819   3.829  10.031  0.0642 -0.1100  0.1011
  221loPI    C2 3522   1.661   3.545  10.263 -0.1229 -0.0144  0.0925
  221loPI    C3 3523   1.582   3.930  10.337 -0.1530  0.0184 -0.1057
  221loPI   PO4 3524   1.797   3.850   9.793  0.1808 -0.1517  0.0385
  221loPI   GL1 3525   2.053   3.971   9.402 -0.0281 -0.0504  0.1576
  221loPI   GL2 3526   2.273   3.754   9.635  0.3219 -0.0046 -0.5433
  221loPI   C1A 3527   2.041   3.742   9.054 -0.1192 -0.2273 -0.2414
  221loPI   C2A 3528   2.042   3.769   8.582 -0.1918 -0.2719  0.2116
  221loPI   C3A 3529   1.672   3.953   8.448  0.3444  0.0875  0.1366
  221loPI   C4A 3530   1.644   4.198   7.974  0.0451 -0.1586 -0.0122
  221loPI   C5A 3531   1.571   4.538   7.672 -0.0151 -0.1781  0.2541
  221loPI   C6A 3532   1.584   4.549   7.238  0.1371  0.1975  0.1351
  221loPI   C1B 3533   2.514   3.720   9.175 -0.0472  0.3420  0.2227
  221loPI   C2B 3534   2.526   3.661   8.764 -0.3126  0.0031 -0.0022
  221loPI   C3B 3535   2.653   3.601   8.299 -0.2379 -0.0727  0.1591
  221loPI   C4B 3536   2.771   3.540   7.865 -0.0496  0.0689 -0.3237
  222loPI    C1 3537   6.802  17.684  10.492  0.1483  0.2545 -0.0412
  222loPI    C2 3538   6.467  17.885  10.574  0.0401  0.1464 -0.2123
  222loPI    C3 3539   6.790  17.933  10.804 -0.1421  0.1278  0.0524
  222loPI   PO4 3540   6.855  17.778  10.222 -0.0729 -0.0022  0.0257
  222loPI   GL1 3541   6.758  17.984   9.789 -0.3170 -0.2921  0.0313
  222loPI   GL2 3542   6.835  17.711   9.751 -0.2203  0.4429  0.0008
  222loPI   C1A 3543   6.955  18.131   9.241  0.1361  0.0258 -0.3849
  222loPI   C2A 3544   6.948  18.046   8.867  0.0956  0.0759  0.3410
  222loPI   C3A 3545   7.068  18.042   8.429  0.0489 -0.0187  0.2486
  222loPI   C4A 3546   6.965  17.957   8.087 -0.4907  0.3205  0.1050
  222loPI   C5A 3547   6.665  17.998   7.860 -0.2693 -0.2104 -0.0871
  222loPI   C6A 3548   6.452  18.013   7.448  0.2694 -0.2053  0.0288
  222loPI   C1B 3549   6.666  17.435   9.440  0.0446  0.2878  0.2779
  222loPI   C2B 3550   6.640  17.452   9.044 -0.1352 -0.3877 -0.1307
  222loPI   C3B 3551   6.569  17.525   8.715  0.3978 -0.0569 -0.0872
  222loPI   C4B 3552   6.610  17.670   8.311 -0.1881 -0.1804  0.3469
  223loPI    C1 3553  13.807  14.308  10.447  0.0869  0.1687 -0.2258
  223loPI    C2 3554  13.822  14.137  10.808 -0.0229  0.0946 -0.2561
  223loPI    C3 3555  13.939  14.516  10.762  0.1385  0.0556 -0.1721
  223loPI   PO4 3556  13.893  14.262  10.171  0.1481 -0.4440  0.1477
  223loPI   GL1 3557  13.909  13.947   9.880 -0.0687 -0.3058  0.2008
  223loPI   GL2 3558  13.695  13.650  10.045 -0.2058 -0.2863 -0.0002
  223loPI   C1A 3559  13.912  14.091   9.482  0.0744 -0.0105 -0.2176
  223loPI   C2A 3560  14.120  13.997   9.116 -0.2402  0.1291  0.2732
  223loPI   C3A 3561  14.003  13.949   8.671 -0.0426 -0.3785  0.4252
  223loPI   C4A 3562  14.190  14.014   8.240  0.1270 -0.0911 -0.0579
  223loPI   C5A 3563  14.242  14.376   7.994  0.1987  0.0249 -0.1026
  223loPI   C6A 3564  14.489  14.761   8.148  0.2201  0.0273 -0.1428
  223loPI   C1B 3565  13.530  13.721   9.669 -0.0828 -0.0965 -0.2014
  223loPI   C2B 3566  13.283  13.860   9.440  0.1655  0.1093 -0.0560
  223loPI   C3B 3567  13.236  14.034   9.109 -0.1174 -0.2812 -0.1161
  223loPI   C4B 3568  12.980  14.011   8.722 -0.1770 -0.3206 -0.0215
  224loPI    C1 3569   4.907   9.994  10.430 -0.0770  0.1730 -0.1862
  224loPI    C2 3570   4.732   9.805  10.736 -0.1751  0.1301 -0.2682
  224loPI    C3 3571   4.810  10.196  10.761  0.3835  0.0090  0.0571
  224loPI   PO4 3572   4.810   9.922  10.159  0.3099 -0.0412  0.0201
  224loPI   GL1 3573   4.746   9.712   9.733  0.2020 -0.3301  0.0269
  224loPI   GL2 3574   4.573   9.953   9.485 -0.0539 -0.1228  0.0554
  224loPI   C1A 3575   5.066   9.911   9.355 -0.2096 -0.2686  0.0094
  224loPI   C2A 3576   5.081   9.948   8.943 -0.3080  0.2309 -0.0847
  224loPI   C3A 3577   5.021   9.816   8.659  0.2211 -0.4993 -0.3231
  224loPI   C4A 3578   4.971   9.679   8.174 -0.2900 -0.0856  0.0991
  224loPI   C5A 3579   4.690   9.518   7.790 -0.0927 -0.2709 -0.1325
  224loPI   C6A 3580   4.326   9.608   7.601  0.4440  0.0477 -0.0665
  224loPI   C1B 3581   4.541   9.958   9.104  0.0138 -0.0162  0.1129
  224loPI   C2B 3582   4.599  10.012   8.669  0.0527  0.2604 -0.0816
  224loPI   C3B 3583   4.447  10.202   8.375  0.1723 -0.1333  0.1166
  224loPI   C4B 3584   4.205  10.434   8.060 -0.2175  0.0571  0.0540
  225loPI    C1 3585   3.499  11.268  10.078 -0.2684  0.1171 -0.0600
  225loPI    C2 3586   3.346  11.451  10.400 -0.1078 -0.0122  0.0919
  225loPI    C3 3587   3.688  11.582  10.238  0.1503 -0.3340  0.3632
  225loPI   PO4 3588   3.293  11.224   9.911 -0.2241 -0.0470 -0.2511
  225loPI   GL1 3589   3.452  11.004   9.549  0.0258 -0.1999 -0.1441
  225loPI   GL2 3590   3.317  10.694   9.588 -0.1376  0.0336  0.3631
  225loPI   C1A 3591   3.640  11.096   9.149  0.1465  0.3466  0.0982
  225loPI   C2A 3592   4.023  11.158   8.864 -0.0923 -0.3875  0.2654
  225loPI   C3A 3593   4.061  11.192   8.419  0.0231 -0.0792 -0.5557
  225loPI   C4A 3594   4.176  11.288   7.945 -0.0027  0.0647 -0.0833
  225loPI   C5A 3595   4.509  11.248   7.660 -0.0347  0.2052  0.1781
  225loPI   C6A 3596   4.984  11.512   7.687 -0.2600 -0.0564 -0.1818
  225loPI   C1B 3597   3.462  10.552   9.131 -0.0209  0.0029  0.0644
  225loPI   C2B 3598   3.738  10.274   8.863  0.2059 -0.0724  0.0993
  225loPI   C3B 3599   3.943  10.201   8.422 -0.0206  0.0013  0.1711
  225loPI   C4B 3600   4.134   9.922   7.997  0.0943  0.1896 -0.0306
  226loPI    C1 3601   8.089  15.075  10.036 -0.0662  0.1384 -0.0881
  226loPI    C2 3602   7.986  15.126  10.419  0.0159 -0.1123 -0.0305
  226loPI    C3 3603   8.165  14.788  10.304  0.0603 -0.0071 -0.2772
  226loPI   PO4 3604   7.935  15.253   9.938  0.2761 -0.1062  0.2826
  226loPI   GL1 3605   8.101  15.523   9.598  0.0506 -0.1087  0.1194
  226loPI   GL2 3606   7.808  15.446   9.496  0.3215  0.1333  0.0907
  226loPI   C1A 3607   8.316  15.737   9.246  0.0953  0.1505  0.1456
  226loPI   C2A 3608   8.365  15.771   8.811 -0.0908  0.0306  0.0711
  226loPI   C3A 3609   8.403  15.687   8.446 -0.1775 -0.2340 -0.2747
  226loPI   C4A 3610   8.545  15.655   8.134 -0.0602 -0.0370 -0.2264
  226loPI   C5A 3611   8.586  15.620   7.658  0.2881 -0.0365 -0.0933
  226loPI   C6A 3612   8.557  15.502   7.225 -0.2180  0.0725  0.1982
  226loPI   C1B 3613   7.851  15.453   9.035 -0.1289 -0.2455  0.0892
  226loPI   C2B 3614   7.851  15.454   8.607  0.1984  0.1082  0.0285
  226loPI   C3B 3615   7.838  15.286   8.238  0.1437  0.0603  0.0183
  226loPI   C4B 3616   7.997  14.898   8.046 -0.4264 -0.0819 -0.0325
  227loPI    C1 3617   2.041   9.151  10.293 -0.0374 -0.1602 -0.0976
  227loPI    C2 3618   2.276   8.846  10.400 -0.0220 -0.0514  0.1896
  227loPI    C3 3619   1.880   8.819  10.448 -0.0182 -0.0156  0.2420
  227loPI   PO4 3620   2.085   9.188  10.045 -0.1846  0.0507  0.2444
  227loPI   GL1 3621   2.060   9.117   9.629  0.1912  0.0149 -0.0232
  227loPI   GL2 3622   1.872   8.872   9.490  0.0361  0.1276 -0.0877
  227loPI   C1A 3623   2.225   9.095   9.219  0.2462  0.1919  0.1399
  227loPI   C2A 3624   2.262   9.117   8.764 -0.1030  0.1980 -0.0400
  227loPI   C3A 3625   2.329   9.207   8.322  0.0621  0.0829  0.1334
  227loPI   C4A 3626   2.121   9.195   7.934 -0.1559  0.2917 -0.3155
  227loPI   C5A 3627   2.012   9.101   7.488 -0.0157 -0.1223  0.4584
  227loPI   C6A 3628   1.568   8.881   7.433 -0.1737 -0.0605 -0.0762
  227loPI   C1B 3629   1.781   8.876   9.073  0.3153 -0.3227 -0.0517
  227loPI   C2B 3630   1.841   8.980   8.622  0.2108  0.2712 -0.3972
  227loPI   C3B 3631   1.781   8.966   8.217  0.3744 -0.3116  0.2892
  227loPI   C4B 3632   1.536   9.102   7.943  0.0867 -0.0276  0.1752
  228loPI    C1 3633  11.321  18.522  10.932  0.3229  0.2974 -0.0776
  228loPI    C2 3634  11.212  18.265  11.219 -0.0253  0.2493 -0.2473
  228loPI    C3 3635  11.597  18.294  11.111  0.0305 -0.1393 -0.1671
  228loPI   PO4 3636  11.138  18.448  10.582 -0.2764 -0.1132  0.2214
  228loPI   GL1 3637  10.902  18.474  10.217  0.4064 -0.0112 -0.3305
  228loPI   GL2 3638  11.045  18.757  10.134 -0.0852  0.0563  0.0544
  228loPI   C1A 3639  10.756  18.499   9.789 -0.3467 -0.0281 -0.2515
  228loPI   C2A 3640  10.862  18.591   9.423 -0.1301 -0.0906 -0.0674
  228loPI   C3A 3641  10.708  18.649   9.087  0.0936  0.3656 -0.2033
  228loPI   C4A 3642  10.610  18.713   8.679 -0.0017 -0.1736 -0.2590
  228loPI   C5A 3643  10.870  18.537   8.338  0.0149 -0.0553 -0.1845
  228loPI   C6A 3644  11.046  18.464   8.001  0.2215 -0.1102  0.3345
  228loPI   C1B 3645  10.982  18.951   9.770 -0.0114  0.3091 -0.1128
  228loPI   C2B 3646  10.866  19.084   9.363 -0.1704  0.2601  0.0522
  228loPI   C3B 3647  10.773  19.132   8.964 -0.1896  0.1160 -0.0981
  228loPI   C4B 3648  10.641  19.242   8.483  0.1393  0.0063 -0.1605
  229loPI    C1 3649  13.436   5.451  10.386 -0.1477 -0.0775  0.1786
  229loPI    C2 3650  13.761   5.602  10.563 -0.0502 -0.0900  0.0123
  229loPI    C3 3651  13.402   5.645  10.735  0.0647 -0.2580  0.3024
  229loPI   PO4 3652  13.581   5.516  10.117 -0.0982  0.0155  0.0227
  229loPI   GL1 3653  13.532   5.630   9.727  0.2465  0.0139  0.0401
  229loPI   GL2 3654  13.490   5.949   9.817  0.1661 -0.0976 -0.2825
  229loPI   C1A 3655  13.555   5.547   9.399 -0.1664  0.2171  0.1350
  229loPI   C2A 3656  13.605   5.559   9.019 -0.2449  0.0811 -0.2365
  229loPI   C3A 3657  13.988   5.498   8.768 -0.2018 -0.2884 -0.1521
  229loPI   C4A 3658  14.077   5.734   8.399  0.0106  0.2070  0.0108
  229loPI   C5A 3659  13.988   5.767   8.024  0.1007 -0.0946  0.0612
  229loPI   C6A 3660  13.901   5.664   7.695  0.1015 -0.0694 -0.0065
  229loPI   C1B 3661  13.427   6.036   9.433 -0.2762  0.0209 -0.1384
  229loPI   C2B 3662  13.307   6.084   8.956  0.1573  0.0979 -0.0999
  229loPI   C3B 3663  13.317   6.031   8.565  0.0065 -0.1674  0.0712
  229loPI   C4B 3664  13.283   5.939   8.121  0.1133 -0.0502 -0.0531
  230loPI    C1 3665   4.270   7.965  10.143 -0.0150  0.1370  0.0381
  230loPI    C2 3666   3.876   7.898  10.158  0.0346 -0.2243 -0.1564
  230loPI    C3 3667   4.124   7.682  10.385  0.1181  0.0497  0.0175
  230loPI   PO4 3668   4.288   7.925   9.865 -0.0264 -0.4099  0.2776
  230loPI   GL1 3669   4.174   8.201   9.459  0.0131  0.0153  0.1045
  230loPI   GL2 3670   4.501   8.361   9.342  0.0122 -0.3052 -0.1771
  230loPI   C1A 3671   3.944   8.317   9.105 -0.1245  0.0479 -0.2391
  230loPI   C2A 3672   3.980   8.286   8.665 -0.2149  0.0799 -0.1349
  230loPI   C3A 3673   4.032   8.223   8.256  0.1081  0.0306 -0.0714
  230loPI   C4A 3674   3.741   8.359   7.933 -0.0566 -0.0765  0.0454
  230loPI   C5A 3675   3.451   8.580   7.611  0.2903  0.1529 -0.0897
  230loPI   C6A 3676   3.054   8.610   7.664 -0.0370  0.0083 -0.1003
  230loPI   C1B 3677   4.367   8.210   8.922  0.1069 -0.0677  0.0725
  230loPI   C2B 3678   4.455   8.202   8.558  0.1449  0.0528 -0.0200
  230loPI   C3B 3679   4.731   8.209   8.211  0.1523 -0.4679 -0.0023
  230loPI   C4B 3680   4.846   8.010   7.950  0.0671  0.1767  0.1645
  231loPI    C1 3681   7.093   8.440  10.292 -0.1499 -0.1231  0.2192
  231loPI    C2 3682   7.340   8.695  10.475 -0.1208 -0.0534  0.0847
  231loPI    C3 3683   7.467   8.328  10.377 -0.0920 -0.0414  0.0768
  231loPI   PO4 3684   7.039   8.618  10.075  0.1273 -0.0487 -0.0721
  231loPI   GL1 3685   7.246   8.607   9.703  0.2147  0.0416  0.1705
  231loPI   GL2 3686   7.513   8.616   9.543 -0.4073  0.2440  0.0171
  231loPI   C1A 3687   7.051   8.827   9.383 -0.4588 -0.1052 -0.1904
  231loPI   C2A 3688   6.763   9.053   9.046  0.3313 -0.0837  0.2209
  231loPI   C3A 3689   6.598   9.004   8.654 -0.0316  0.0165 -0.0178
  231loPI   C4A 3690   6.896   9.084   8.278 -0.1460  0.2939  0.0648
  231loPI   C5A 3691   6.880   9.015   7.855 -0.1720 -0.1726 -0.1493
  231loPI   C6A 3692   6.675   9.245   7.550  0.1471  0.4674 -0.3326
  231loPI   C1B 3693   7.780   8.563   9.243 -0.1976  0.1034  0.1477
  231loPI   C2B 3694   7.975   8.422   8.818  0.1076 -0.1310  0.1036
  231loPI   C3B 3695   7.909   8.498   8.291 -0.0306  0.2607  0.0736
  231loPI   C4B 3696   7.993   8.454   7.892 -0.1385  0.1063  0.1971
  232loPI    C1 3697  17.170  12.605   9.635 -0.3738 -0.2318  0.0725
  232loPI    C2 3698  17.210  12.889   9.914 -0.0739 -0.0946 -0.1054
  232loPI    C3 3699  17.158  12.507  10.023 -0.1095 -0.0224  0.1361
  232loPI   PO4 3700  17.322  12.678   9.441  0.0171  0.1420  0.0399
  232loPI   GL1 3701  17.481  13.024   9.085  0.4013 -0.0675 -0.0199
  232loPI   GL2 3702  17.692  12.867   8.884  0.0098  0.0397 -0.0152
  232loPI   C1A 3703  17.304  13.108   8.772  0.2301 -0.2214 -0.2226
  232loPI   C2A 3704  17.283  13.247   8.266  0.0834  0.0117  0.2928
  232loPI   C3A 3705  17.343  13.335   7.814  0.0475 -0.0935 -0.0139
  232loPI   C4A 3706  17.581  13.292   7.439  0.0793  0.4219 -0.2583
  232loPI   C5A 3707  17.955  13.491   7.246 -0.1283 -0.0665  0.0801
  232loPI   C6A 3708  18.034  13.510   6.829  0.2977  0.0384  0.0598
  232loPI   C1B 3709  17.666  12.937   8.427 -0.2351  0.0369  0.0114
  232loPI   C2B 3710  17.686  13.049   8.047 -0.1164  0.1230  0.0534
  232loPI   C3B 3711  17.931  13.053   7.706 -0.0081  0.0237  0.0942
  232loPI   C4B 3712  18.260  13.098   7.349  0.0040  0.2476  0.0775
  233loPI    C1 3713   5.386   4.539  10.005 -0.1764  0.1108  0.1736
  233loPI    C2 3714   5.044   4.575  10.209 -0.1616 -0.0004  0.2186
  233loPI    C3 3715   5.107   4.254   9.978 -0.1268  0.0654  0.1361
  233loPI   PO4 3716   5.379   4.827   9.906 -0.3685  0.4023 -0.2895
  233loPI   GL1 3717   5.273   5.020   9.611  0.1953 -0.0435 -0.2483
  233loPI   GL2 3718   5.349   5.334   9.576  0.0152 -0.2401 -0.0118
  233loPI   C1A 3719   5.482   4.858   9.221 -0.1831 -0.3086  0.0217
  233loPI   C2A 3720   5.576   4.750   8.845 -0.2670  0.0806  0.1429
  233loPI   C3A 3721   5.373   4.672   8.461 -0.0476  0.0275 -0.3503
  233loPI   C4A 3722   5.311   4.665   8.095  0.1102  0.0685 -0.0093
  233loPI   C5A 3723   5.256   4.331   7.718 -0.0227 -0.0272 -0.2084
  233loPI   C6A 3724   4.887   4.095   7.550  0.1063  0.2106  0.0039
  233loPI   C1B 3725   5.266   5.275   9.156  0.0146  0.0078  0.0462
  233loPI   C2B 3726   5.285   5.151   8.757  0.0109 -0.1157  0.2208
  233loPI   C3B 3727   5.279   5.228   8.375 -0.1924  0.1477 -0.1403
  233loPI   C4B 3728   5.200   5.227   7.994 -0.0564  0.0593  0.1614
  234loPI    C1 3729   1.278  11.385   9.532 -0.0604  0.2400 -0.1126
  234loPI    C2 3730   1.643  11.233   9.475 -0.2137 -0.1331 -0.1295
  234loPI    C3 3731   1.330  10.988   9.520 -0.3991  0.1750  0.3248
  234loPI   PO4 3732   1.243  11.555   9.312 -0.0235  0.0887 -0.0482
  234loPI   GL1 3733   1.386  11.572   8.973  0.1420  0.2383  0.2991
  234loPI   GL2 3734   1.662  11.391   8.966  0.0870  0.0451  0.1647
  234loPI   C1A 3735   1.252  11.733   8.537 -0.1311  0.0017  0.0038
  234loPI   C2A 3736   0.807  11.663   8.456 -0.1909  0.2525 -0.0292
  234loPI   C3A 3737   0.688  11.764   8.056 -0.1606  0.1127 -0.1334
  234loPI   C4A 3738   0.462  12.110   7.800  0.3388 -0.1432  0.2305
  234loPI   C5A 3739   0.283  12.458   7.667  0.0245 -0.2033  0.0691
  234loPI   C6A 3740   0.135  12.933   7.509  0.1455  0.0278 -0.0102
  234loPI   C1B 3741   1.598  11.375   8.507 -0.1074 -0.2435 -0.0853
  234loPI   C2B 3742   1.359  11.342   8.157 -0.2846 -0.1357 -0.4884
  234loPI   C3B 3743   1.273  11.747   7.920 -0.2730  0.0760 -0.1975
  234loPI   C4B 3744   1.044  12.082   7.920 -0.1747  0.3648 -0.2977
  235loPI    C1 3745   6.991   7.522  10.106 -0.0215 -0.0192  0.0158
  235loPI    C2 3746   6.637   7.344  10.161  0.0148 -0.1018 -0.0174
  235loPI    C3 3747   6.891   7.383  10.468  0.1319 -0.3781 -0.0751
  235loPI   PO4 3748   7.205   7.673   9.974  0.1854  0.3606  0.2790
  235loPI   GL1 3749   7.412   7.713   9.606 -0.1935  0.1279 -0.0386
  235loPI   GL2 3750   7.635   7.580   9.402 -0.0194  0.0249  0.2215
  235loPI   C1A 3751   7.260   7.810   9.113  0.0865 -0.0699 -0.1830
  235loPI   C2A 3752   7.141   7.792   8.684  0.1521 -0.1744  0.0516
  235loPI   C3A 3753   7.130   7.766   8.220  0.0058 -0.2409  0.1859
  235loPI   C4A 3754   7.037   8.040   7.902  0.0890  0.3290 -0.2203
  235loPI   C5A 3755   6.892   8.473   7.743 -0.0819 -0.0630 -0.2604
  235loPI   C6A 3756   6.508   8.772   7.512  0.0026  0.0994  0.0718
  235loPI   C1B 3757   7.682   7.618   8.846  0.1619 -0.0719 -0.2309
  235loPI   C2B 3758   7.583   7.677   8.483  0.1072 -0.0529  0.0190
  235loPI   C3B 3759   7.442   7.410   8.136 -0.0676 -0.1211 -0.2772
  235loPI   C4B 3760   7.098   7.441   7.809 -0.4751 -0.2644 -0.0542
  236loPI    C1 3761   2.435  13.796   9.860  0.0072 -0.0650 -0.1733
  236loPI    C2 3762   2.086  13.930   9.720 -0.0563 -0.0190  0.0252
  236loPI    C3 3763   2.157  13.933  10.113  0.2191  0.0953 -0.0236
  236loPI   PO4 3764   2.618  13.843   9.643  0.1527 -0.2101  0.0063
  236loPI   GL1 3765   2.631  13.978   9.213 -0.0643  0.1709  0.0587
  236loPI   GL2 3766   2.347  13.797   9.196 -0.6263  0.0698 -0.1104
  236loPI   C1A 3767   3.001  13.905   8.903  0.1539 -0.1829 -0.4373
  236loPI   C2A 3768   3.004  13.946   8.614 -0.1887  0.2606  0.0951
  236loPI   C3A 3769   2.999  14.115   8.222  0.3134 -0.1126  0.0389
  236loPI   C4A 3770   2.757  14.179   7.851  0.3419  0.1794  0.0107
  236loPI   C5A 3771   2.528  13.937   7.477 -0.0348 -0.2252 -0.1574
  236loPI   C6A 3772   2.722  13.660   7.260 -0.2201  0.0838 -0.0184
  236loPI   C1B 3773   2.260  13.867   8.840  0.2204 -0.1418  0.3276
  236loPI   C2B 3774   2.129  13.964   8.582 -0.2211  0.1529  0.1972
  236loPI   C3B 3775   2.141  14.298   8.341 -0.0703  0.0329 -0.1799
  236loPI   C4B 3776   1.797  14.663   8.258  0.2762 -0.0667 -0.1161
  237loPI    C1 3777  14.988  11.390  10.114  0.0096  0.0550 -0.0405
  237loPI    C2 3778  15.084  11.584  10.450 -0.0375 -0.1130  0.0717
  237loPI    C3 3779  15.235  11.221  10.379  0.0886 -0.0175 -0.1598
  237loPI   PO4 3780  15.005  11.419   9.900  0.1865 -0.1518 -0.0081
  237loPI   GL1 3781  14.645  11.596   9.631  0.0481  0.0700 -0.0340
  237loPI   GL2 3782  15.010  11.707   9.519  0.1921  0.0752  0.2516
  237loPI   C1A 3783  14.628  11.763   9.194 -0.0065  0.2679 -0.1870
  237loPI   C2A 3784  14.545  11.570   8.861  0.1487  0.2182  0.1012
  237loPI   C3A 3785  14.370  11.755   8.439  0.0318 -0.1829 -0.0037
  237loPI   C4A 3786  13.895  11.670   8.208 -0.1476 -0.0107 -0.2728
  237loPI   C5A 3787  13.633  11.936   7.879  0.2227 -0.1267  0.1215
  237loPI   C6A 3788  13.211  12.047   7.849  0.2783  0.1896 -0.0084
  237loPI   C1B 3789  15.151  11.688   9.127  0.1266  0.2276  0.1301
  237loPI   C2B 3790  14.962  11.824   8.808 -0.3009  0.1892 -0.0974
  237loPI   C3B 3791  14.866  11.780   8.376 -0.0499  0.1390  0.0292
  237loPI   C4B 3792  14.761  11.758   7.969  0.2737 -0.0063  0.0693
  238loPI    C1 3793   5.584  10.451  10.231  0.0831 -0.1552  0.0433
  238loPI    C2 3794   5.936  10.529  10.404  0.0610  0.1314 -0.0357
  238loPI    C3 3795   5.602  10.528  10.623  0.0636  0.2459 -0.0308
  238loPI   PO4 3796   5.610  10.696  10.028  0.0584  0.0967 -0.2709
  238loPI   GL1 3797   5.428  10.692   9.669  0.0405  0.0271 -0.0832
  238loPI   GL2 3798   5.212  11.039   9.614 -0.0078  0.1800  0.2298
  238loPI   C1A 3799   5.383  10.426   9.394 -0.0747  0.1549  0.1320
  238loPI   C2A 3800   5.337  10.454   8.890  0.2367  0.1636 -0.0501
  238loPI   C3A 3801   5.181  10.318   8.572  0.1504 -0.1519  0.0395
  238loPI   C4A 3802   5.261  10.110   8.169 -0.1647 -0.1331  0.0905
  238loPI   C5A 3803   5.348   9.826   7.785  0.0044 -0.1841 -0.1144
  238loPI   C6A 3804   5.291   9.603   7.447 -0.0943 -0.1846  0.1760
  238loPI   C1B 3805   5.136  10.812   9.162 -0.2483 -0.4128 -0.0941
  238loPI   C2B 3806   5.039  10.930   8.794 -0.0584  0.3689  0.1179
  238loPI   C3B 3807   4.959  11.138   8.437  0.0104 -0.2052  0.4256
  238loPI   C4B 3808   4.798  11.058   8.048 -0.0602 -0.1318  0.1101
  239loPI    C1 3809   9.766  16.415  10.751 -0.0271 -0.0285 -0.0851
  239loPI    C2 3810   9.379  16.407  10.853 -0.0462 -0.2087 -0.1673
  239loPI    C3 3811   9.649  16.218  11.079 -0.0084 -0.1007 -0.1217
  239loPI   PO4 3812   9.696  16.608  10.539 -0.2504  0.1499 -0.3805
  239loPI   GL1 3813   9.819  16.682  10.035  0.2409  0.1467 -0.2160
  239loPI   GL2 3814   9.496  16.485   9.921  0.1632 -0.3816 -0.1195
  239loPI   C1A 3815   9.879  16.327   9.707  0.0845 -0.0887 -0.3392
  239loPI   C2A 3816   9.799  16.343   9.351  0.0571  0.2173 -0.1650
  239loPI   C3A 3817   9.770  16.357   8.905 -0.0793 -0.4044  0.0830
  239loPI   C4A 3818   9.945  16.443   8.607  0.0517 -0.1457 -0.1780
  239loPI   C5A 3819   9.994  16.346   8.157  0.2263  0.0662  0.1624
  239loPI   C6A 3820  10.177  16.249   7.869  0.0998  0.0078 -0.0868
  239loPI   C1B 3821   9.227  16.229   9.602  0.1768  0.1376  0.0833
  239loPI   C2B 3822   9.329  16.191   9.102  0.2080  0.0643 -0.0949
  239loPI   C3B 3823   9.288  16.296   8.695 -0.1327  0.0061 -0.0226
  239loPI   C4B 3824   9.484  16.564   8.253 -0.1396  0.0398  0.0757
  240loPI    C1 3825  17.289   7.366   9.654 -0.2733 -0.2602  0.0904
  240loPI    C2 3826  17.222   7.745   9.765 -0.0738 -0.1497 -0.1557
  240loPI    C3 3827  17.105   7.443  10.001 -0.0197  0.0688  0.1566
  240loPI   PO4 3828  17.221   7.371   9.351  0.0731 -0.0403  0.1291
  240loPI   GL1 3829  17.451   7.196   9.056 -0.5394 -0.1974 -0.0909
  240loPI   GL2 3830  17.535   7.566   8.973 -0.0326  0.1382  0.3216
  240loPI   C1A 3831  17.370   7.259   8.588 -0.0481 -0.1079  0.0612
  240loPI   C2A 3832  17.275   7.104   8.140  0.2468 -0.1621  0.0995
  240loPI   C3A 3833  17.412   7.140   7.680  0.0885 -0.1649 -0.0309
  240loPI   C4A 3834  17.606   7.351   7.367  0.0372  0.0505 -0.0783
  240loPI   C5A 3835  17.679   7.641   7.090 -0.2477  0.0935  0.0084
  240loPI   C6A 3836  17.527   7.962   7.364 -0.0509 -0.2343  0.1821
  240loPI   C1B 3837  17.524   7.734   8.516 -0.0113  0.0175 -0.2769
  240loPI   C2B 3838  17.449   7.546   8.076  0.0250  0.4573 -0.0271
  240loPI   C3B 3839  17.349   7.642   7.685 -0.3807  0.0747 -0.1189
  240loPI   C4B 3840  17.135   7.619   7.298 -0.1544 -0.1846  0.0534
  241loPI    C1 3841  17.826  18.383  10.103 -0.0438  0.1833 -0.2178
  241loPI    C2 3842  17.654  18.603  10.389  0.0299 -0.1233  0.0683
  241loPI    C3 3843  18.050  18.622  10.333  0.0285 -0.1368  0.0525
  241loPI   PO4 3844  17.729  18.451   9.912 -0.0128  0.2378 -0.0199
  241loPI   GL1 3845  17.650  18.435   9.495 -0.4827 -0.0470 -0.0436
  241loPI   GL2 3846  18.006  18.277   9.552 -0.0506 -0.1122  0.3079
  241loPI   C1A 3847  17.493  18.369   9.063 -0.1376  0.2168  0.0859
  241loPI   C2A 3848  17.575  18.483   8.553 -0.0946  0.0899  0.1943
  241loPI   C3A 3849  17.707  18.355   8.135 -0.3107  0.1975 -0.0013
  241loPI   C4A 3850  18.141  18.465   7.938  0.0866  0.2712  0.0138
  241loPI   C5A 3851  18.503  18.603   7.810 -0.3048 -0.0179 -0.1283
  241loPI   C6A 3852  18.911  18.828   7.664 -0.0180  0.2654 -0.4127
  241loPI   C1B 3853  18.005  18.520   9.171  0.1685  0.3375 -0.0528
  241loPI   C2B 3854  18.060  18.535   8.727  0.2950  0.4664 -0.1042
  241loPI   C3B 3855  18.139  18.255   8.372  0.4061  0.0822 -0.0217
  241loPI   C4B 3856  18.086  17.978   8.036 -0.1973 -0.0811  0.2133
  242loPI    C1 3857   4.439  18.063  10.048 -0.1073 -0.0283  0.0325
  242loPI    C2 3858   4.233  18.405  10.020  0.0179  0.0374 -0.0991
  242loPI    C3 3859   4.400  18.299  10.368  0.0867  0.1737 -0.0899
  242loPI   PO4 3860   4.317  17.912   9.947  0.0968  0.4857 -0.0302
  242loPI   GL1 3861   4.148  17.983   9.585 -0.1520 -0.1236 -0.1699
  242loPI   GL2 3862   4.051  18.293   9.565  0.1043 -0.1744 -0.0735
  242loPI   C1A 3863   4.149  18.060   9.145  0.4635  0.2049 -0.0413
  242loPI   C2A 3864   4.263  17.952   8.754 -0.1400 -0.0814 -0.0176
  242loPI   C3A 3865   4.552  18.082   8.502 -0.0959  0.5797 -0.0517
  242loPI   C4A 3866   4.972  18.091   8.297  0.2411  0.3536 -0.0060
  242loPI   C5A 3867   5.306  17.973   7.994  0.1578 -0.2860 -0.0379
  242loPI   C6A 3868   5.671  17.767   7.825 -0.0951 -0.4213 -0.1168
  242loPI   C1B 3869   4.448  18.397   9.547 -0.0873  0.2458  0.0306
  242loPI   C2B 3870   4.622  18.266   9.161  0.3005  0.1952 -0.1067
  242loPI   C3B 3871   4.883  17.998   8.948  0.3500 -0.1027  0.2132
  242loPI   C4B 3872   5.061  17.772   8.803 -0.1454  0.1584 -0.0647
  243loPI    C1 3873   0.687   5.960   9.684  0.0423 -0.0643  0.1864
  243loPI    C2 3874   0.518   6.285   9.844 -0.0641 -0.1166  0.1813
  243loPI    C3 3875   0.295   5.963   9.762  0.0135 -0.1375  0.0489
  243loPI   PO4 3876   0.821   5.990   9.440  0.1944 -0.2908  0.0474
  243loPI   GL1 3877   0.817   6.119   9.100  0.1136 -0.0924 -0.1200
  243loPI   GL2 3878   1.112   6.106   9.049  0.2746  0.2364 -0.4467
  243loPI   C1A 3879   0.855   6.087   8.593  0.1321 -0.4006 -0.1533
  243loPI   C2A 3880   0.503   6.100   8.280 -0.0707  0.1308  0.3229
  243loPI   C3A 3881   0.498   5.885   7.913 -0.2245  0.0555  0.0268
  243loPI   C4A 3882   0.745   5.772   7.561 -0.2343  0.2099 -0.5928
  243loPI   C5A 3883   1.117   5.899   7.303 -0.0791 -0.1140  0.0323
  243loPI   C6A 3884   1.249   6.347   7.168  0.2350  0.2056 -0.3568
  243loPI   C1B 3885   1.358   6.113   8.628 -0.1000  0.2443 -0.2193
  243loPI   C2B 3886   1.370   6.082   8.150 -0.2581  0.4068 -0.1176
  243loPI   C3B 3887   1.463   6.248   7.781 -0.0176  0.0313 -0.2234
  243loPI   C4B 3888   1.714   6.545   7.848 -0.0211 -0.1528  0.0696
  244loPI    C1 3889   7.881   9.912  10.458 -0.0019  0.2558  0.0362
  244loPI    C2 3890   7.519   9.897  10.629 -0.1479  0.1204 -0.2778
  244loPI    C3 3891   7.817  10.096  10.808 -0.2891 -0.0343  0.1406
  244loPI   PO4 3892   7.854   9.987  10.203  0.0249 -0.1790 -0.2163
  244loPI   GL1 3893   7.837  10.404   9.904  0.0746  0.2357  0.0718
  244loPI   GL2 3894   7.647  10.324   9.773  0.2059  0.0239  0.0321
  244loPI   C1A 3895   7.894  10.724   9.627 -0.2530 -0.0519  0.1197
  244loPI   C2A 3896   7.676  10.906   9.183 -0.1378 -0.0773 -0.0051
  244loPI   C3A 3897   7.470  10.937   8.811 -0.1839  0.0262 -0.1316
  244loPI   C4A 3898   7.137  11.071   8.582 -0.3751 -0.0091 -0.1074
  244loPI   C5A 3899   6.909  11.205   8.200 -0.2418  0.0755 -0.2135
  244loPI   C6A 3900   6.783  11.174   7.887  0.0206 -0.1142  0.2004
  244loPI   C1B 3901   7.596  10.418   9.406 -0.1438 -0.1624  0.0294
  244loPI   C2B 3902   7.394  10.424   9.007  0.1852  0.2625  0.1599
  244loPI   C3B 3903   7.432  10.231   8.713 -0.3607  0.2826 -0.1135
  244loPI   C4B 3904   7.456  10.140   8.268 -0.0686 -0.1387 -0.0624
  245loPI    C1 3905   8.178   6.170  10.164  0.1715  0.0626  0.0504
  245loPI    C2 3906   7.779   6.182  10.201  0.1136 -0.1927 -0.4165
  245loPI    C3 3907   7.995   5.948  10.443 -0.0328 -0.1675 -0.2596
  245loPI   PO4 3908   8.189   6.289   9.910 -0.2192  0.1104 -0.1331
  245loPI   GL1 3909   8.481   6.226   9.528  0.1164 -0.0251 -0.0213
  245loPI   GL2 3910   8.509   5.916   9.232  0.2022  0.1411 -0.1882
  245loPI   C1A 3911   8.659   6.516   9.258 -0.2306  0.1254 -0.1959
  245loPI   C2A 3912   8.583   6.578   8.839 -0.2149 -0.3812 -0.0496
  245loPI   C3A 3913   8.601   6.649   8.454  0.1584 -0.1448 -0.0425
  245loPI   C4A 3914   8.830   6.855   7.999 -0.0359  0.2221 -0.0783
  245loPI   C5A 3915   9.001   7.160   7.714  0.4922  0.0779  0.1838
  245loPI   C6A 3916   9.357   7.338   7.444  0.1817 -0.0983  0.2872
  245loPI   C1B 3917   8.822   6.063   8.955 -0.0282  0.0543  0.0531
  245loPI   C2B 3918   8.988   6.330   8.611 -0.0057 -0.0681 -0.0737
  245loPI   C3B 3919   9.101   6.583   8.251  0.1884 -0.0060  0.2136
  245loPI   C4B 3920   9.405   6.673   7.867 -0.2786 -0.3247  0.1564
  246loPI    C1 3921   8.363  11.006  10.290  0.0422 -0.2263 -0.0269
  246loPI    C2 3922   8.375  11.105  10.677 -0.2574 -0.3820  0.0257
  246loPI    C3 3923   8.051  11.190  10.459  0.0623  0.0614 -0.2951
  246loPI   PO4 3924   8.376  10.759  10.293 -0.2378 -0.2320 -0.4560
  246loPI   GL1 3925   8.475  10.428   9.988  0.2850 -0.0698  0.0587
  246loPI   GL2 3926   8.779  10.498   9.756 -0.1160  0.3098 -0.1427
  246loPI   C1A 3927   8.243  10.396   9.584 -0.2561 -0.1198  0.1979
  246loPI   C2A 3928   8.042  10.557   9.173 -0.1201 -0.0075  0.1623
  246loPI   C3A 3929   7.833  10.535   8.772  0.0931 -0.1726 -0.1234
  246loPI   C4A 3930   7.645  10.587   8.433  0.1181  0.0443 -0.0837
  246loPI   C5A 3931   7.604  10.473   7.915 -0.2156 -0.0941  0.0905
  246loPI   C6A 3932   7.582  10.224   7.627  0.2764  0.3414  0.1811
  246loPI   C1B 3933   8.605  10.632   9.329 -0.0694  0.0872  0.1102
  246loPI   C2B 3934   8.546  10.628   8.875 -0.0600 -0.4305 -0.0750
  246loPI   C3B 3935   8.281  10.641   8.449  0.2310 -0.3792 -0.1388
  246loPI   C4B 3936   7.954  10.766   8.090 -0.0049 -0.2668 -0.2069
  247loPI    C1 3937   2.935  16.471  10.145 -0.0749  0.3252  0.1844
  247loPI    C2 3938   2.789  16.808  10.303  0.1014  0.4749  0.0321
  247loPI    C3 3939   3.099  16.625  10.476 -0.2382  0.1731  0.3389
  247loPI   PO4 3940   2.870  16.528   9.895 -0.1063 -0.1449  0.0320
  247loPI   GL1 3941   2.883  16.503   9.487  0.0814  0.0709  0.0428
  247loPI   GL2 3942   2.634  16.698   9.298 -0.3102  0.4351 -0.1576
  247loPI   C1A 3943   3.046  16.166   9.229  0.0861  0.1645  0.5495
  247loPI   C2A 3944   3.090  16.190   8.808 -0.0054 -0.2216  0.0305
  247loPI   C3A 3945   3.263  16.049   8.412  0.1588  0.0786  0.2714
  247loPI   C4A 3946   3.452  16.328   8.101  0.3554 -0.1210  0.2085
  247loPI   C5A 3947   3.755  16.545   7.763 -0.2095  0.0162 -0.0356
  247loPI   C6A 3948   3.733  17.077   7.739 -0.0015  0.1482 -0.0955
  247loPI   C1B 3949   2.520  16.853   8.871 -0.1152  0.2073  0.1539
  247loPI   C2B 3950   2.455  17.095   8.510  0.3194 -0.1579  0.0525
  247loPI   C3B 3951   2.726  17.145   8.107  0.3405  0.0616 -0.3535
  247loPI   C4B 3952   2.898  17.007   7.832 -0.1053 -0.0016 -0.1546
  248loPI    C1 3953   3.101   0.401  10.302  0.0404 -0.1201 -0.1317
  248loPI    C2 3954   3.296   0.129  10.521 -0.0156  0.2667  0.4211
  248loPI    C3 3955   2.899   0.162  10.552 -0.0510  0.1861  0.0936
  248loPI   PO4 3956   3.203   0.297  10.045 -0.0649 -0.0056 -0.0011
  248loPI   GL1 3957   3.368   0.190   9.628  0.0587 -0.1445 -0.0022
  248loPI   GL2 3958   3.708   0.096   9.587 -0.0528  0.0117  0.1853
  248loPI   C1A 3959   3.337   0.078   9.258  0.3314  0.0277 -0.1292
  248loPI   C2A 3960   3.460   0.130   8.805 -0.0551 -0.0539  0.0494
  248loPI   C3A 3961   3.618   0.042   8.370 -0.3074 -0.0725 -0.1373
  248loPI   C4A 3962   3.715  -0.101   7.973 -0.2096 -0.2230  0.0343
  248loPI   C5A 3963   3.782  -0.327   7.545 -0.3526 -0.1935 -0.0486
  248loPI   C6A 3964   3.912  -0.687   7.224 -0.0618  0.1819 -0.4043
  248loPI   C1B 3965   3.728   0.289   9.161  0.0709  0.0282  0.0685
  248loPI   C2B 3966   4.003   0.297   8.738  0.0585  0.2202 -0.1702
  248loPI   C3B 3967   4.101   0.183   8.341 -0.1169 -0.0086  0.2622
  248loPI   C4B 3968   4.334  -0.153   8.060 -0.0329  0.0324  0.0065
  249loPI    C1 3969   5.908   5.730  10.156  0.2035 -0.1114  0.1538
  249loPI    C2 3970   6.093   5.676  10.506  0.2563 -0.3123  0.0962
  249loPI    C3 3971   5.745   5.492  10.433  0.1468 -0.1167  0.1162
  249loPI   PO4 3972   6.107   6.011  10.061 -0.0241  0.1390  0.0620
  249loPI   GL1 3973   5.974   6.119   9.713 -0.1420 -0.1296 -0.1747
  249loPI   GL2 3974   5.605   6.285   9.637 -0.3079  0.0029 -0.3586
  249loPI   C1A 3975   5.983   5.862   9.293  0.1738 -0.0878  0.3096
  249loPI   C2A 3976   5.918   5.808   8.917 -0.4625  0.3070  0.2928
  249loPI   C3A 3977   5.752   5.618   8.521  0.1347 -0.0157 -0.3483
  249loPI   C4A 3978   5.645   5.448   8.099 -0.0088 -0.0911  0.0575
  249loPI   C5A 3979   5.739   5.186   7.771 -0.1182 -0.3558 -0.3819
  249loPI   C6A 3980   5.541   4.760   7.594 -0.2395  0.2879  0.1145
  249loPI   C1B 3981   5.785   6.332   9.238 -0.0151 -0.0864 -0.2056
  249loPI   C2B 3982   6.013   6.323   8.879  0.0225 -0.1467  0.2576
  249loPI   C3B 3983   6.165   6.667   8.588  0.1175  0.0062 -0.2461
  249loPI   C4B 3984   6.125   6.871   8.218 -0.3346 -0.0558 -0.0533
  250loPI    C1 3985   9.675   5.634  10.286 -0.0031 -0.1779 -0.1609
  250loPI    C2 3986   9.334   5.646  10.494  0.0361 -0.0086 -0.1046
  250loPI    C3 3987   9.658   5.472  10.651  0.0235 -0.0163 -0.0870
  250loPI   PO4 3988   9.636   5.556   9.973 -0.0443 -0.0566  0.0037
  250loPI   GL1 3989   9.753   5.590   9.593  0.0252  0.2368 -0.2580
  250loPI   GL2 3990   9.600   5.230   9.486 -0.0762 -0.4948 -0.1221
  250loPI   C1A 3991   9.449   5.599   9.218  0.0725 -0.0247 -0.2508
  250loPI   C2A 3992   9.351   5.485   8.846  0.0709 -0.0174  0.4165
  250loPI   C3A 3993   9.440   5.617   8.398 -0.0012  0.2586 -0.2268
  250loPI   C4A 3994   9.474   5.633   7.971 -0.2450 -0.1910  0.1062
  250loPI   C5A 3995   9.618   5.886   7.564 -0.0448  0.1246  0.1228
  250loPI   C6A 3996   9.872   6.095   7.243  0.1778 -0.0204 -0.2026
  250loPI   C1B 3997   9.579   5.107   9.085  0.3188 -0.0633 -0.2446
  250loPI   C2B 3998   9.535   5.055   8.640 -0.1556  0.1765  0.0876
  250loPI   C3B 3999   9.394   4.774   8.309 -0.0380  0.0882  0.1184
  250loPI   C4B 4000   9.403   4.735   7.772 -0.1478 -0.0187  0.5139
  251loPI    C1 4001  18.249   1.261  10.193  0.3199 -0.1216  0.1200
  251loPI    C2 4002  18.343   1.629  10.318 -0.0757  0.0502 -0.0718
  251loPI    C3 4003  18.304   1.332  10.582 -0.0358  0.2105  0.1164
  251loPI   PO4 4004  18.161   1.286  10.011  0.1757 -0.1310 -0.3524
  251loPI   GL1 4005  18.022   1.381   9.648  0.1573  0.0381  0.0527
  251loPI   GL2 4006  17.908   1.114   9.611  0.0948  0.2840 -0.1379
  251loPI   C1A 4007  18.150   1.505   9.227  0.0881 -0.2159 -0.2930
  251loPI   C2A 4008  18.121   1.686   8.839  0.1094 -0.3620  0.1430
  251loPI   C3A 4009  18.062   1.755   8.434  0.1898 -0.0003 -0.1159
  251loPI   C4A 4010  17.894   1.897   8.092  0.2515  0.0487 -0.0023
  251loPI   C5A 4011  18.075   2.140   7.757 -0.1735 -0.0136  0.1335
  251loPI   C6A 4012  18.256   2.073   7.474  0.0927  0.1943 -0.0331
  251loPI   C1B 4013  17.849   1.033   9.221  0.2824  0.1643 -0.1696
  251loPI   C2B 4014  17.802   1.257   8.965  0.1985 -0.3103 -0.0385
  251loPI   C3B 4015  17.839   1.316   8.527  0.1033  0.0797 -0.0928
  251loPI   C4B 4016  17.805   1.382   8.112 -0.4063 -0.1244 -0.0655
  252loPI    C1 4017  11.865  16.524  10.780  0.1438 -0.1940 -0.0783
  252loPI    C2 4018  12.160  16.331  10.969  0.1409  0.0165  0.1452
  252loPI    C3 4019  11.848  16.473  11.176  0.0113  0.0260 -0.0541
  252loPI   PO4 4020  11.978  16.612  10.613  0.1097 -0.2243  0.2398
  252loPI   GL1 4021  11.918  16.771  10.243  0.3206  0.0082 -0.0568
  252loPI   GL2 4022  11.966  17.014  10.038  0.2422 -0.1500 -0.2234
  252loPI   C1A 4023  11.736  16.391  10.000 -0.2945 -0.2981 -0.1724
  252loPI   C2A 4024  11.561  16.374   9.573  0.1660 -0.1476  0.0701
  252loPI   C3A 4025  11.581  16.353   9.130  0.3002 -0.1586 -0.1295
  252loPI   C4A 4026  11.598  16.117   8.771  0.3531 -0.0794 -0.0233
  252loPI   C5A 4027  11.682  15.859   8.376  0.0963 -0.0861 -0.2932
  252loPI   C6A 4028  11.815  15.905   7.958  0.0827 -0.4753 -0.5574
  252loPI   C1B 4029  11.753  16.832   9.671  0.1004 -0.0911 -0.1193
  252loPI   C2B 4030  11.789  16.852   9.186  0.4451 -0.0501 -0.2730
  252loPI   C3B 4031  11.812  16.586   8.742 -0.3837 -0.0064 -0.1143
  252loPI   C4B 4032  12.064  16.211   8.582  0.1672 -0.0130  0.0911
  253loPI    C1 4033   8.382   9.970  10.319  0.1136 -0.0415  0.0955
  253loPI    C2 4034   8.320   9.654  10.556 -0.0275  0.0296  0.1543
  253loPI    C3 4035   8.312  10.024  10.709 -0.1239  0.0760  0.0382
  253loPI   PO4 4036   8.545   9.868  10.153 -0.0836 -0.2862 -0.0934
  253loPI   GL1 4037   8.590   9.934   9.750 -0.1313 -0.1131  0.0429
  253loPI   GL2 4038   8.193   9.913   9.798 -0.2262  0.0512 -0.0325
  253loPI   C1A 4039   8.698  10.135   9.432  0.0522 -0.3235  0.1549
  253loPI   C2A 4040   8.456  10.152   9.114  0.1548  0.0334 -0.1985
  253loPI   C3A 4041   8.188  10.211   8.804  0.0083 -0.2343  0.2991
  253loPI   C4A 4042   7.996  10.246   8.257 -0.0580  0.0079 -0.2376
  253loPI   C5A 4043   8.017  10.064   7.880 -0.0257  0.1123  0.1447
  253loPI   C6A 4044   8.072   9.632   7.737 -0.1717  0.1463 -0.1029
  253loPI   C1B 4045   7.979  10.005   9.433 -0.3774  0.1469 -0.2237
  253loPI   C2B 4046   7.749   9.999   9.004  0.0365  0.0880  0.0203
  253loPI   C3B 4047   7.798   9.893   8.614  0.1976 -0.3131 -0.1833
  253loPI   C4B 4048   7.741   9.745   8.333  0.1271  0.0168 -0.1096
  254loPI    C1 4049   6.474   9.721  10.193 -0.2017 -0.0335  0.0168
  254loPI    C2 4050   6.733  10.003  10.078 -0.1915 -0.0429  0.0167
  254loPI    C3 4051   6.639   9.964  10.465 -0.1457 -0.0796  0.0243
  254loPI   PO4 4052   6.559   9.532  10.010  0.2411  0.1447  0.0076
  254loPI   GL1 4053   6.653   9.587   9.613  0.1303 -0.0401  0.0182
  254loPI   GL2 4054   6.659   9.254   9.523 -0.0739  0.1569 -0.0175
  254loPI   C1A 4055   6.816   9.710   9.300  0.0617  0.1621  0.0259
  254loPI   C2A 4056   6.825   9.592   8.903  0.0742 -0.1211  0.0863
  254loPI   C3A 4057   6.868   9.444   8.591  0.0283  0.2287  0.0842
  254loPI   C4A 4058   6.677   9.742   8.358  0.2046  0.1748  0.0839
  254loPI   C5A 4059   6.515   9.952   8.012 -0.2327  0.2583 -0.0425
  254loPI   C6A 4060   6.542  10.220   7.608 -0.0587  0.0915  0.2291
  254loPI   C1B 4061   6.301   9.450   9.291 -0.0158  0.2107 -0.2149
  254loPI   C2B 4062   6.285   9.527   8.887  0.0782  0.0587 -0.0111
  254loPI   C3B 4063   6.275   9.462   8.444  0.0852 -0.1031 -0.2926
  254loPI   C4B 4064   6.081   9.536   8.103 -0.2617  0.1007  0.1654
  255loPI    C1 4065  13.359  16.523  10.542  0.1240 -0.0064  0.2792
  255loPI    C2 4066  13.636  16.311  10.345  0.0971  0.0734  0.1542
  255loPI    C3 4067  13.635  16.317  10.745  0.1111 -0.1447  0.1588
  255loPI   PO4 4068  13.355  16.811  10.401 -0.1618 -0.4525 -0.0219
  255loPI   GL1 4069  13.158  16.822  10.008  0.0687  0.2834 -0.0934
  255loPI   GL2 4070  13.232  16.434  10.043 -0.2711  0.4685  0.0774
  255loPI   C1A 4071  13.043  16.766   9.624 -0.1445 -0.1637 -0.0260
  255loPI   C2A 4072  12.998  16.533   9.294 -0.2033 -0.1586 -0.2321
  255loPI   C3A 4073  13.088  16.472   8.869  0.1871  0.1704 -0.0688
  255loPI   C4A 4074  13.480  16.455   8.634 -0.1812 -0.0063 -0.0046
  255loPI   C5A 4075  13.475  16.582   8.250  0.1259  0.2876  0.0899
  255loPI   C6A 4076  13.487  16.680   7.750  0.1960 -0.0052 -0.0690
  255loPI   C1B 4077  13.402  16.450   9.640 -0.0119  0.0494 -0.3411
  255loPI   C2B 4078  13.517  16.444   9.216  0.2784  0.3488 -0.0593
  255loPI   C3B 4079  13.842  16.549   8.958 -0.2075  0.2522 -0.1592
  255loPI   C4B 4080  14.055  16.158   8.706  0.0982 -0.0564  0.1931
  256loPI    C1 4081   4.518   4.205  10.236  0.1087  0.2512 -0.0057
  256loPI    C2 4082   4.533   4.403   9.889 -0.0623  0.0198 -0.1485
  256loPI    C3 4083   4.509   4.605  10.234  0.1973  0.2535 -0.2628
  256loPI   PO4 4084   4.688   3.995  10.171 -0.1035 -0.1093  0.3176
  256loPI   GL1 4085   4.594   3.762   9.817  0.0692 -0.2175 -0.0722
  256loPI   GL2 4086   4.407   3.760   9.652  0.0500  0.2603  0.0119
  256loPI   C1A 4087   4.846   3.640   9.473  0.0584 -0.1397 -0.0142
  256loPI   C2A 4088   4.888   3.467   9.086  0.0252  0.0762  0.2758
  256loPI   C3A 4089   4.653   3.483   8.737 -0.0676  0.0911 -0.1592
  256loPI   C4A 4090   4.680   3.516   8.273  0.0927  0.0445 -0.1422
  256loPI   C5A 4091   4.989   3.468   7.950 -0.0951 -0.0522  0.0027
  256loPI   C6A 4092   5.274   3.377   7.646 -0.3512 -0.2686 -0.3073
  256loPI   C1B 4093   4.334   3.745   9.255 -0.0608 -0.2838  0.0671
  256loPI   C2B 4094   4.449   3.976   8.969 -0.0806  0.1362  0.0851
  256loPI   C3B 4095   4.573   4.084   8.618 -0.5435  0.0463  0.1318
  256loPI   C4B 4096   4.381   4.047   8.173 -0.1841  0.6166 -0.2885
  257loPI    C1 4097  15.044   9.964  10.030  0.1574  0.0751  0.3234
  257loPI    C2 4098  15.136  10.340   9.933  0.0141  0.0475  0.0725
  257loPI    C3 4099  14.788  10.183   9.815  0.1356 -0.2103  0.0519
  257loPI   PO4 4100  15.200   9.866   9.894  0.0129 -0.0622 -0.1745
  257loPI   GL1 4101  15.261  10.134   9.483  0.3214 -0.0690  0.1835
  257loPI   GL2 4102  15.168   9.785   9.432 -0.1306  0.0241 -0.1202
  257loPI   C1A 4103  15.358  10.393   9.126 -0.0580 -0.1894 -0.4347
  257loPI   C2A 4104  15.284  10.515   8.807 -0.1842  0.1778  0.1654
  257loPI   C3A 4105  15.268  10.416   8.400  0.0837 -0.0753 -0.0097
  257loPI   C4A 4106  15.343  10.323   8.035 -0.0949  0.0683  0.0238
  257loPI   C5A 4107  15.677  10.360   7.775 -0.2180 -0.4585 -0.1389
  257loPI   C6A 4108  15.834  10.604   7.379 -0.2257  0.3507 -0.0083
  257loPI   C1B 4109  15.099   9.909   9.034 -0.0794  0.2988 -0.1339
  257loPI   C2B 4110  15.037  10.108   8.757  0.1627  0.3684 -0.2941
  257loPI   C3B 4111  14.836  10.184   8.302  0.0444  0.0375 -0.1494
  257loPI   C4B 4112  14.814  10.209   7.908  0.2176 -0.0447 -0.2486
  258loPI    C1 4113   1.655   5.740   9.871  0.0208 -0.0538 -0.0257
  258loPI    C2 4114   1.826   5.457  10.096 -0.0972 -0.1800 -0.0929
  258loPI    C3 4115   1.434   5.530  10.129 -0.0356  0.0998  0.0520
  258loPI   PO4 4116   1.825   5.715   9.640  0.3110  0.2614  0.1584
  258loPI   GL1 4117   1.749   5.575   9.260 -0.0044  0.6949 -0.0165
  258loPI   GL2 4118   1.545   5.755   9.008 -0.3531 -0.0049  0.3566
  258loPI   C1A 4119   1.941   5.352   8.993 -0.0506  0.0800 -0.2177
  258loPI   C2A 4120   1.891   5.252   8.668  0.0116  0.0100  0.2983
  258loPI   C3A 4121   1.916   5.247   8.244 -0.2488 -0.0549 -0.1753
  258loPI   C4A 4122   2.098   5.293   7.764 -0.1398 -0.1060 -0.2544
  258loPI   C5A 4123   1.914   5.560   7.396  0.2142  0.2575 -0.0892
  258loPI   C6A 4124   1.495   5.524   7.135 -0.1675 -0.0119 -0.2260
  258loPI   C1B 4125   1.651   5.679   8.643 -0.1032  0.0241 -0.0553
  258loPI   C2B 4126   1.487   5.609   8.234 -0.2614 -0.0387  0.0636
  258loPI   C3B 4127   1.512   5.309   7.887 -0.3143  0.0513 -0.2011
  258loPI   C4B 4128   1.545   5.170   7.550 -0.0365  0.2531 -0.0377
  259loPI    C1 4129   7.039   3.585  10.398 -0.2418  0.1330  0.0989
  259loPI    C2 4130   6.961   3.271  10.633  0.0692 -0.1113 -0.1159
  259loPI    C3 4131   7.061   3.622  10.796  0.0024 -0.1997  0.1205
  259loPI   PO4 4132   6.925   3.474  10.202  0.0229 -0.0693 -0.0722
  259loPI   GL1 4133   6.993   3.069   9.878 -0.0283 -0.0484  0.2852
  259loPI   GL2 4134   6.842   3.253   9.706 -0.2157 -0.0439 -0.0304
  259loPI   C1A 4135   6.922   2.779   9.518  0.1320  0.0173  0.2190
  259loPI   C2A 4136   6.969   2.660   9.030  0.0959 -0.0962 -0.0141
  259loPI   C3A 4137   7.006   2.367   8.752 -0.2660 -0.1900  0.1067
  259loPI   C4A 4138   6.933   1.999   8.436  0.2853 -0.0921  0.0296
  259loPI   C5A 4139   6.544   1.929   8.199 -0.1847  0.0355 -0.2372
  259loPI   C6A 4140   6.411   1.609   7.993  0.0536  0.0639 -0.0491
  259loPI   C1B 4141   6.949   3.227   9.366  0.0183 -0.3376  0.4345
  259loPI   C2B 4142   7.058   3.199   8.968 -0.1218 -0.1016  0.1971
  259loPI   C3B 4143   6.882   2.845   8.519 -0.3355  0.1967  0.0522
  259loPI   C4B 4144   7.019   2.965   8.186  0.0330 -0.1621 -0.2886
  260loPI    C1 4145   0.802  17.695   9.990 -0.1437  0.1460 -0.0996
  260loPI    C2 4146   0.727  17.768  10.376 -0.0402 -0.0199 -0.0474
  260loPI    C3 4147   0.446  17.599  10.147 -0.0391 -0.0867  0.0000
  260loPI   PO4 4148   1.034  17.576  10.020  0.0710 -0.2891 -0.0119
  260loPI   GL1 4149   1.357  17.454   9.759  0.2485  0.1361  0.1316
  260loPI   GL2 4150   1.397  17.124   9.596  0.0580  0.2542  0.0757
  260loPI   C1A 4151   1.531  17.802   9.431  0.0910  0.1146  0.2128
  260loPI   C2A 4152   1.657  18.050   9.115  0.2358  0.0161  0.2757
  260loPI   C3A 4153   1.709  17.853   8.695 -0.1074 -0.0361 -0.1358
  260loPI   C4A 4154   1.811  17.814   8.259  0.1142  0.0186 -0.0846
  260loPI   C5A 4155   2.004  17.597   7.996  0.0401 -0.0411 -0.0129
  260loPI   C6A 4156   2.314  17.441   8.160 -0.0442 -0.0247 -0.1129
  260loPI   C1B 4157   1.484  17.199   9.196  0.1776  0.2205  0.1836
  260loPI   C2B 4158   1.420  17.016   8.741  0.1515  0.0771 -0.2141
  260loPI   C3B 4159   1.515  16.756   8.355  0.1364 -0.1796  0.1901
  260loPI   C4B 4160   1.283  16.540   7.943 -0.2456  0.0129  0.2981
  261loPI    C1 4161  10.993   5.569  10.178 -0.1610 -0.0902 -0.3068
  261loPI    C2 4162  10.985   5.961  10.102 -0.1469 -0.0684 -0.1960
  261loPI    C3 4163  11.306   5.798  10.275 -0.1944 -0.1111 -0.1477
  261loPI   PO4 4164  10.949   5.439   9.947 -0.0906 -0.1266 -0.0810
  261loPI   GL1 4165  10.913   5.536   9.587 -0.0777  0.1690  0.1192
  261loPI   GL2 4166  10.701   5.888   9.653  0.0884 -0.1780 -0.3423
  261loPI   C1A 4167  10.533   5.387   9.292 -0.2958  0.1474 -0.2098
  261loPI   C2A 4168  10.567   5.161   8.928 -0.1306 -0.0978 -0.1459
  261loPI   C3A 4169  10.614   5.108   8.556  0.1266 -0.0101  0.3346
  261loPI   C4A 4170  10.780   4.783   8.230  0.1671  0.2487  0.0218
  261loPI   C5A 4171  10.562   4.446   8.070 -0.0324 -0.1653  0.0030
  261loPI   C6A 4172  10.529   4.196   7.743  0.1535  0.0691 -0.0078
  261loPI   C1B 4173  10.988   5.995   9.277 -0.0391  0.0228  0.2885
  261loPI   C2B 4174  11.144   5.978   8.827  0.2966  0.2477  0.1309
  261loPI   C3B 4175  11.421   6.267   8.620  0.0709 -0.0198 -0.4279
  261loPI   C4B 4176  11.519   6.147   8.236 -0.0836 -0.0383  0.1148
  262loPI    C1 4177  14.550   7.128  10.444  0.1503  0.0843  0.1264
  262loPI    C2 4178  14.845   6.994  10.209 -0.0234 -0.1088  0.0145
  262loPI    C3 4179  14.931   7.187  10.548  0.2308  0.2002 -0.2191
  262loPI   PO4 4180  14.412   7.278  10.089  0.1688  0.0380 -0.0963
  262loPI   GL1 4181  14.328   7.393   9.574  0.1556  0.1585  0.0123
  262loPI   GL2 4182  14.172   7.048   9.700  0.2179 -0.2496  0.0357
  262loPI   C1A 4183  14.596   7.552   9.086 -0.0418 -0.1396  0.3254
  262loPI   C2A 4184  14.573   7.250   8.753  0.0315  0.0947  0.3228
  262loPI   C3A 4185  14.604   7.249   8.325 -0.3331  0.2901  0.1873
  262loPI   C4A 4186  14.534   7.281   7.891 -0.1957 -0.1349  0.2750
  262loPI   C5A 4187  14.465   7.010   7.443 -0.2439 -0.0929 -0.2073
  262loPI   C6A 4188  14.637   6.888   7.064  0.3022  0.3105 -0.0070
  262loPI   C1B 4189  14.176   6.628   9.505 -0.1416 -0.1987 -0.1610
  262loPI   C2B 4190  14.131   6.579   8.974  0.1522  0.0817 -0.0362
  262loPI   C3B 4191  13.831   6.625   8.532  0.1332  0.0051  0.2683
  262loPI   C4B 4192  13.774   6.628   8.015 -0.2047 -0.0068  0.0177
  263loPI    C1 4193   9.966  14.085  10.029 -0.3406 -0.0627  0.0053
  263loPI    C2 4194  10.072  13.704  10.087  0.0187  0.0266 -0.0404
  263loPI    C3 4195   9.796  13.873  10.323  0.2084 -0.1203  0.2948
  263loPI   PO4 4196   9.942  14.148   9.742 -0.0182  0.0866  0.1375
  263loPI   GL1 4197   9.761  14.050   9.462 -0.0426 -0.0359 -0.4259
  263loPI   GL2 4198  10.024  13.952   9.335  0.3836 -0.1021  0.1930
  263loPI   C1A 4199   9.536  14.206   9.193 -0.0824 -0.0631  0.0711
  263loPI   C2A 4200   9.535  14.306   8.851  0.1288 -0.1589 -0.0111
  263loPI   C3A 4201   9.525  14.433   8.404  0.0105 -0.2765 -0.2392
  263loPI   C4A 4202   9.460  14.622   8.014 -0.0073 -0.0706 -0.1786
  263loPI   C5A 4203   9.121  14.877   7.754 -0.0416  0.2336 -0.1486
  263loPI   C6A 4204   8.817  15.166   7.681 -0.1344 -0.1950  0.0504
  263loPI   C1B 4205   9.947  13.925   8.917  0.0068  0.1346 -0.1034
  263loPI   C2B 4206   9.712  13.994   8.536  0.0704 -0.1403 -0.1092
  263loPI   C3B 4207   9.541  13.997   8.123 -0.1455 -0.3826 -0.2983
  263loPI   C4B 4208   9.253  14.165   7.954  0.1964  0.1216 -0.1619
  264loPI    C1 4209   3.594   1.195  10.504 -0.1659  0.1006  0.2957
  264loPI    C2 4210   3.960   1.339  10.429 -0.1383 -0.1397 -0.0565
  264loPI    C3 4211   3.817   1.340  10.803  0.1487  0.1205  0.0567
  264loPI   PO4 4212   3.444   1.350  10.336 -0.1294 -0.1123 -0.1681
  264loPI   GL1 4213   3.486   1.230   9.877 -0.3931 -0.3188  0.1070
  264loPI   GL2 4214   3.738   1.463   9.926 -0.1091  0.0517  0.2773
  264loPI   C1A 4215   3.680   1.304   9.398 -0.2460  0.0097 -0.1665
  264loPI   C2A 4216   3.728   0.949   9.090  0.0059  0.0316  0.0721
  264loPI   C3A 4217   3.619   0.702   8.817 -0.1626 -0.0215  0.0522
  264loPI   C4A 4218   3.634   0.541   8.437  0.2194 -0.2246  0.0133
  264loPI   C5A 4219   3.778   0.407   8.031  0.0986 -0.0146 -0.0451
  264loPI   C6A 4220   3.638   0.560   7.713  0.1417 -0.0290  0.1179
  264loPI   C1B 4221   4.107   1.487   9.514 -0.0596 -0.3507 -0.4044
  264loPI   C2B 4222   4.367   1.472   9.182 -0.0403  0.1043  0.0946
  264loPI   C3B 4223   4.474   1.427   8.716 -0.1023  0.0937  0.1693
  264loPI   C4B 4224   4.334   1.283   8.331 -0.1460 -0.2303 -0.1190
  265loPI    C1 4225   9.108   7.398   9.977 -0.1868 -0.1333  0.0079
  265loPI    C2 4226   8.899   7.697   9.814 -0.0024  0.0180  0.0458
  265loPI    C3 4227   8.871   7.626  10.206 -0.1156 -0.0729  0.0218
  265loPI   PO4 4228   9.369   7.463   9.872 -0.0712  0.2065  0.0851
  265loPI   GL1 4229   9.563   7.521   9.588  0.0854  0.1603  0.0180
  265loPI   GL2 4230   9.884   7.421   9.542  0.1772  0.0748 -0.2626
  265loPI   C1A 4231   9.609   7.811   9.123 -0.2132  0.0592  0.0213
  265loPI   C2A 4232   9.591   7.974   8.717  0.0235  0.1345 -0.1122
  265loPI   C3A 4233   9.757   8.199   8.389  0.1733  0.1742  0.2412
  265loPI   C4A 4234   9.723   8.357   7.981  0.0652  0.1521  0.6038
  265loPI   C5A 4235   9.773   8.521   7.495 -0.0315 -0.3088 -0.0318
  265loPI   C6A 4236   9.791   8.623   7.035 -0.0237 -0.2936  0.1478
  265loPI   C1B 4237  10.095   7.264   9.168 -0.1561  0.0692 -0.0396
  265loPI   C2B 4238  10.306   7.246   8.744  0.3169  0.1887 -0.1730
  265loPI   C3B 4239  10.419   7.351   8.397  0.0437 -0.0846  0.0469
  265loPI   C4B 4240  10.656   7.248   7.983 -0.0020 -0.0933  0.4036
  266loPI    C1 4241   0.129   1.824  10.006 -0.1803 -0.1325  0.2099
  266loPI    C2 4242   0.369   2.141   9.971 -0.0587 -0.2647 -0.2041
  266loPI    C3 4243   0.334   1.956  10.323  0.1649 -0.0258 -0.0523
  266loPI   PO4 4244   0.213   1.724   9.787  0.0778 -0.0386 -0.0800
  266loPI   GL1 4245   0.109   1.705   9.394 -0.2226 -0.2999  0.0719
  266loPI   GL2 4246  -0.160   1.866   9.342 -0.2803  0.0685  0.3091
  266loPI   C1A 4247   0.352   1.887   9.112  0.0570 -0.0828 -0.1007
  266loPI   C2A 4248   0.277   1.913   8.726  0.1638  0.1737 -0.0910
  266loPI   C3A 4249   0.170   1.917   8.220  0.1500 -0.1841 -0.0742
  266loPI   C4A 4250  -0.000   1.807   7.858 -0.0934 -0.0239  0.0967
  266loPI   C5A 4251  -0.432   1.677   7.787  0.1766  0.0723  0.0853
  266loPI   C6A 4252  -0.754   1.641   7.574  0.0255  0.2432  0.2891
  266loPI   C1B 4253  -0.087   1.590   8.963  0.0401 -0.3319 -0.0754
  266loPI   C2B 4254  -0.116   1.685   8.546  0.0900 -0.0687 -0.0152
  266loPI   C3B 4255  -0.190   1.578   8.232  0.4121 -0.1263  0.0162
  266loPI   C4B 4256  -0.372   1.259   8.066  0.0762  0.1706 -0.1711
  267loPI    C1 4257   1.270   6.062   9.695 -0.1673 -0.1648  0.1127
  267loPI    C2 4258   1.308   5.776   9.419 -0.0593  0.1624 -0.2194
  267loPI    C3 4259   1.086   5.711   9.745  0.1868 -0.3952 -0.1517
  267loPI   PO4 4260   1.518   6.194   9.589 -0.1189 -0.0103 -0.2865
  267loPI   GL1 4261   1.744   6.136   9.238  0.1163 -0.1818 -0.2923
  267loPI   GL2 4262   2.085   6.009   9.291 -0.0022 -0.1944 -0.0326
  267loPI   C1A 4263   1.874   6.099   8.853  0.1070  0.0271  0.0183
  267loPI   C2A 4264   1.914   6.080   8.391  0.0813 -0.0164 -0.0630
  267loPI   C3A 4265   2.053   6.149   7.849 -0.1359 -0.0436 -0.3221
  267loPI   C4A 4266   2.202   6.133   7.412  0.0593 -0.1135  0.0980
  267loPI   C5A 4267   2.702   5.973   7.304 -0.0707 -0.0906 -0.0378
  267loPI   C6A 4268   2.817   5.603   7.118  0.2610  0.0155 -0.2560
  267loPI   C1B 4269   2.399   6.196   8.964 -0.0641 -0.1284  0.1483
  267loPI   C2B 4270   2.409   6.172   8.530 -0.0544 -0.1693 -0.1216
  267loPI   C3B 4271   2.432   6.234   8.132  0.0718 -0.0515 -0.0799
  267loPI   C4B 4272   2.559   6.226   7.745 -0.0904 -0.1186 -0.0362
  268loPI    C1 4273  10.204   6.082  10.016  0.0398 -0.0092  0.3311
  268loPI    C2 4274  10.496   5.872  10.190 -0.0480 -0.1782  0.2764
  268loPI    C3 4275  10.113   5.779  10.261 -0.0854 -0.3197 -0.0882
  268loPI   PO4 4276  10.038   6.040   9.773 -0.2840  0.0514 -0.1948
  268loPI   GL1 4277   9.954   6.290   9.505 -0.1869  0.0226 -0.3351
  268loPI   GL2 4278   9.801   6.041   9.292  0.4296 -0.1988  0.0576
  268loPI   C1A 4279  10.113   6.321   9.049  0.0881  0.0309 -0.0470
  268loPI   C2A 4280  10.154   6.363   8.615  0.1382 -0.0032 -0.2050
  268loPI   C3A 4281  10.256   6.171   8.300 -0.0786 -0.1236 -0.1622
  268loPI   C4A 4282  10.644   5.978   8.020 -0.1807  0.0228 -0.1597
  268loPI   C5A 4283  10.685   5.609   7.695 -0.2758  0.1048  0.2025
  268loPI   C6A 4284  10.471   5.441   7.310  0.0818  0.4834 -0.1347
  268loPI   C1B 4285   9.835   5.890   8.948 -0.0085 -0.0120 -0.1083
  268loPI   C2B 4286   9.845   5.928   8.499 -0.0659 -0.0504 -0.2967
  268loPI   C3B 4287   9.824   6.065   8.077  0.0758  0.1585 -0.1185
  268loPI   C4B 4288   9.814   6.411   7.677  0.3619  0.2368 -0.0883
  269loPI    C1 4289   6.047  16.376  10.077  0.2086  0.1122  0.0670
  269loPI    C2 4290   6.420  16.397   9.933  0.1627 -0.0976 -0.0867
  269loPI    C3 4291   6.305  16.079  10.147  0.0977  0.0076  0.0360
  269loPI   PO4 4292   5.929  16.424   9.821 -0.1909 -0.0427 -0.2818
  269loPI   GL1 4293   5.860  16.500   9.379  0.2196  0.3193 -0.2110
  269loPI   GL2 4294   6.139  16.537   9.230  0.3821 -0.0232  0.0194
  269loPI   C1A 4295   5.587  16.693   9.038  0.4349  0.1856  0.1145
  269loPI   C2A 4296   5.502  16.635   8.705  0.0174 -0.2647 -0.1090
  269loPI   C3A 4297   5.521  16.844   8.390 -0.0493  0.2493  0.0851
  269loPI   C4A 4298   5.512  17.129   8.078 -0.1021 -0.0674  0.0978
  269loPI   C5A 4299   5.894  17.352   7.972  0.0416  0.1473 -0.1674
  269loPI   C6A 4300   6.181  17.715   7.926 -0.0203  0.0275 -0.0691
  269loPI   C1B 4301   5.994  16.502   8.776  0.0316  0.1392 -0.5815
  269loPI   C2B 4302   5.798  16.376   8.419  0.3453  0.1410 -0.0394
  269loPI   C3B 4303   5.633  16.371   8.027 -0.0154  0.1634  0.0891
  269loPI   C4B 4304   5.702  16.330   7.625  0.1005  0.4275  0.1880
  270loPI    C1 4305   7.262   6.303  10.224  0.1965 -0.0411 -0.1058
  270loPI    C2 4306   6.960   6.564  10.207  0.2855  0.0561 -0.2107
  270loPI    C3 4307   7.103   6.446  10.562 -0.0309 -0.1732 -0.1552
  270loPI   PO4 4308   7.171   6.140  10.007 -0.2718  0.1914  0.1718
  270loPI   GL1 4309   6.860   6.173   9.674 -0.1831 -0.1474 -0.3568
  270loPI   GL2 4310   7.179   6.273   9.501 -0.1465  0.1093 -0.0048
  270loPI   C1A 4311   6.878   5.839   9.293  0.2741  0.0298 -0.3288
  270loPI   C2A 4312   6.859   5.794   8.833  0.0051 -0.3638 -0.0084
  270loPI   C3A 4313   6.673   5.648   8.601 -0.1836 -0.0792 -0.0752
  270loPI   C4A 4314   6.710   5.591   8.190  0.2127 -0.0763 -0.0208
  270loPI   C5A 4315   6.702   5.370   7.820 -0.2356  0.1090 -0.0179
  270loPI   C6A 4316   6.738   5.261   7.294 -0.0012 -0.1730  0.0225
  270loPI   C1B 4317   7.349   5.877   9.205 -0.1511  0.2459  0.2002
  270loPI   C2B 4318   7.355   5.969   8.792  0.1379 -0.2065  0.1135
  270loPI   C3B 4319   7.505   5.906   8.497  0.2262  0.1819  0.0241
  270loPI   C4B 4320   7.292   6.289   8.178  0.0779 -0.0611 -0.1498
  271loPI    C1 4321   5.381   9.767  10.202 -0.0433  0.2545 -0.0382
  271loPI    C2 4322   5.234   9.763   9.830 -0.2396  0.1576  0.0386
  271loPI    C3 4323   5.066   9.536  10.113 -0.0470  0.1771  0.1705
  271loPI   PO4 4324   5.612   9.893  10.121  0.1013 -0.0042  0.0747
  271loPI   GL1 4325   5.619  10.227   9.762  0.1281  0.0115 -0.0047
  271loPI   GL2 4326   5.992  10.409   9.808  0.1493  0.2818 -0.0214
  271loPI   C1A 4327   5.547   9.937   9.451 -0.2033  0.0638  0.2219
  271loPI   C2A 4328   5.699  10.214   9.039  0.2926 -0.1441  0.0754
  271loPI   C3A 4329   5.697  10.369   8.550  0.1203 -0.0248  0.4576
  271loPI   C4A 4330   5.703  10.347   8.122 -0.2044 -0.0537  0.0603
  271loPI   C5A 4331   5.626  10.330   7.735  0.3025 -0.1978  0.0275
  271loPI   C6A 4332   5.258  10.187   7.505 -0.0256 -0.0308 -0.0328
  271loPI   C1B 4333   5.904  10.477   9.381 -0.1095 -0.1042  0.0888
  271loPI   C2B 4334   5.986  10.586   8.926 -0.1917 -0.1142 -0.0300
  271loPI   C3B 4335   6.101  10.571   8.407  0.0534 -0.0401  0.3206
  271loPI   C4B 4336   6.212  10.391   7.972  0.0843 -0.0655 -0.2879
  272loPI    C1 4337  16.042  15.932  10.272 -0.0009 -0.1360 -0.0741
  272loPI    C2 4338  15.744  15.670  10.320 -0.0924  0.0038  0.1409
  272loPI    C3 4339  15.714  16.037  10.476  0.1892  0.0225  0.1565
  272loPI   PO4 4340  16.140  15.827   9.992 -0.1203  0.1317 -0.1115
  272loPI   GL1 4341  16.404  15.670   9.631 -0.1559  0.0737 -0.0950
  272loPI   GL2 4342  16.436  15.289   9.606  0.0490 -0.0420  0.2339
  272loPI   C1A 4343  16.272  15.829   9.225  0.1308  0.0945  0.1074
  272loPI   C2A 4344  16.222  15.928   8.761  0.2402 -0.0760  0.1647
  272loPI   C3A 4345  16.138  16.014   8.291 -0.1171  0.2338 -0.0695
  272loPI   C4A 4346  16.082  15.888   7.864 -0.0982 -0.0602  0.3996
  272loPI   C5A 4347  16.243  15.525   7.507  0.1819 -0.0358  0.0941
  272loPI   C6A 4348  16.364  15.425   7.113  0.2413 -0.2196 -0.0698
  272loPI   C1B 4349  16.323  15.243   9.155  0.0426 -0.0660  0.0545
  272loPI   C2B 4350  16.381  15.471   8.860 -0.1407 -0.2608 -0.0168
  272loPI   C3B 4351  16.114  15.545   8.454  0.0254 -0.2829  0.2717
  272loPI   C4B 4352  16.126  15.366   8.053  0.1203  0.3679 -0.0968
  273loPI    C1 4353  12.607   7.144  10.432  0.0736 -0.1655  0.1221
  273loPI    C2 4354  12.349   7.447  10.477  0.0557 -0.1403 -0.1334
  273loPI    C3 4355  12.553   7.309  10.792  0.0310  0.1078 -0.0063
  273loPI   PO4 4356  12.520   6.946  10.325  0.0923  0.0041 -0.2163
  273loPI   GL1 4357  12.559   6.853   9.956  0.1567 -0.1242 -0.2421
  273loPI   GL2 4358  12.816   6.681   9.746  0.0750 -0.1821  0.1197
  273loPI   C1A 4359  12.328   7.071   9.680  0.2665  0.3697 -0.3620
  273loPI   C2A 4360  12.199   7.042   9.258 -0.4378  0.0472 -0.0850
  273loPI   C3A 4361  12.121   7.448   8.980  0.0586 -0.1690 -0.0418
  273loPI   C4A 4362  12.167   7.612   8.554 -0.2637  0.1603 -0.3324
  273loPI   C5A 4363  12.333   7.854   8.217  0.0621  0.3712 -0.1566
  273loPI   C6A 4364  12.691   8.021   7.993 -0.1617  0.1220  0.0333
  273loPI   C1B 4365  12.600   6.729   9.382 -0.0724 -0.0790  0.0009
  273loPI   C2B 4366  12.410   6.597   9.016 -0.1733 -0.1974 -0.0219
  273loPI   C3B 4367  12.220   6.660   8.580  0.2520 -0.1402  0.0515
  273loPI   C4B 4368  11.787   6.649   8.388  0.2520 -0.1116  0.1491
  274loPI    C1 4369  16.695  13.342   9.818 -0.1480  0.1287  0.0757
  274loPI    C2 4370  16.330  13.488   9.744 -0.0474  0.2622 -0.1708
  274loPI    C3 4371  16.491  13.529  10.108 -0.2899  0.1719 -0.0504
  274loPI   PO4 4372  16.925  13.455   9.576  0.2105  0.2661 -0.2810
  274loPI   GL1 4373  16.997  13.267   9.207 -0.1803  0.1432  0.0725
  274loPI   GL2 4374  16.986  12.977   9.281 -0.0003 -0.1984  0.0901
  274loPI   C1A 4375  16.871  13.347   8.855 -0.1274  0.0553  0.2390
  274loPI   C2A 4376  16.600  13.156   8.452 -0.2434  0.0267  0.3138
  274loPI   C3A 4377  16.481  12.990   8.042  0.2960 -0.2041 -0.1734
  274loPI   C4A 4378  16.505  13.227   7.666 -0.0549 -0.1439  0.1081
  274loPI   C5A 4379  16.732  13.450   7.453  0.0194 -0.1476  0.0997
  274loPI   C6A 4380  16.880  13.790   7.331  0.1374  0.2258 -0.0771
  274loPI   C1B 4381  16.740  12.701   8.988  0.1988 -0.1437  0.2589
  274loPI   C2B 4382  16.519  12.598   8.648 -0.4234 -0.2393 -0.1058
  274loPI   C3B 4383  16.427  12.568   8.294  0.2581  0.1874 -0.0744
  274loPI   C4B 4384  16.227  12.555   7.936 -0.0314  0.5007  0.2185
  275loPI    C1 4385   2.914  18.371  10.276 -0.1235  0.1510 -0.0265
  275loPI    C2 4386   3.249  18.265  10.466 -0.0570  0.1024 -0.1700
  275loPI    C3 4387   2.919  18.350  10.675  0.1210  0.4222 -0.0120
  275loPI   PO4 4388   2.930  18.543  10.127  0.2465 -0.0971  0.1488
  275loPI   GL1 4389   2.890  18.684   9.787 -0.2471 -0.1960  0.3182
  275loPI   GL2 4390   2.898  19.024   9.548 -0.2066  0.1611  0.0742
  275loPI   C1A 4391   2.491  18.700   9.521 -0.0138 -0.3258 -0.0442
  275loPI   C2A 4392   2.403  18.569   9.060 -0.1818 -0.1223 -0.1955
  275loPI   C3A 4393   2.455  18.424   8.667  0.1321 -0.2844  0.0701
  275loPI   C4A 4394   2.431  18.527   8.281  0.2184 -0.0095  0.1614
  275loPI   C5A 4395   2.390  18.559   7.877  0.0676  0.3663  0.1206
  275loPI   C6A 4396   2.234  18.840   7.521 -0.2493 -0.1001  0.2118
  275loPI   C1B 4397   2.880  18.836   9.119  0.1289  0.2184 -0.0658
  275loPI   C2B 4398   2.891  18.667   8.675 -0.4416 -0.1503  0.1694
  275loPI   C3B 4399   3.130  18.606   8.406 -0.0380 -0.0218 -0.5035
  275loPI   C4B 4400   3.177  18.711   7.958  0.0279  0.1001  0.1864
  276loPI    C1 4401   8.846   5.617  10.309 -0.0257  0.2379 -0.1000
  276loPI    C2 4402   8.480   5.764  10.377 -0.2077 -0.1832 -0.1411
  276loPI    C3 4403   8.731   5.702  10.683 -0.2079  0.0064 -0.1015
  276loPI   PO4 4404   8.792   5.650  10.021  0.2624  0.2515 -0.0717
  276loPI   GL1 4405   8.759   5.396   9.632 -0.0438  0.0523  0.0334
  276loPI   GL2 4406   8.480   5.350   9.578  0.0547 -0.1789 -0.0315
  276loPI   C1A 4407   9.170   5.215   9.342  0.2161  0.0332  0.3507
  276loPI   C2A 4408   9.126   5.041   9.013 -0.1063 -0.0870  0.2399
  276loPI   C3A 4409   9.051   4.982   8.610  0.2018  0.0805 -0.0543
  276loPI   C4A 4410   9.119   5.204   8.327  0.0935 -0.0825  0.0889
  276loPI   C5A 4411   9.137   5.215   7.954  0.0672 -0.1257  0.0522
  276loPI   C6A 4412   8.776   4.972   7.754 -0.0862  0.2271  0.0695
  276loPI   C1B 4413   8.631   5.153   9.196 -0.0821  0.1669  0.1175
  276loPI   C2B 4414   8.658   5.240   8.710 -0.1809 -0.1237  0.0990
  276loPI   C3B 4415   8.532   5.615   8.474 -0.0221 -0.1211  0.0310
  276loPI   C4B 4416   8.414   5.701   7.999  0.1147  0.1163 -0.1986
  277loPI    C1 4417   6.778  14.179  10.301  0.0178  0.0998  0.1947
  277loPI    C2 4418   6.962  13.846  10.178  0.1440  0.2199  0.0536
  277loPI    C3 4419   6.659  13.823  10.439 -0.0261 -0.0264 -0.1604
  277loPI   PO4 4420   6.810  14.347  10.051 -0.0517 -0.0563 -0.0179
  277loPI   GL1 4421   7.015  14.557   9.777 -0.3923  0.1726  0.0892
  277loPI   GL2 4422   7.343  14.639   9.708  0.3293 -0.1384  0.1045
  277loPI   C1A 4423   6.939  14.556   9.382  0.0493 -0.0498 -0.1776
  277loPI   C2A 4424   7.034  14.759   9.071  0.1257 -0.1546  0.0043
  277loPI   C3A 4425   7.239  14.803   8.693 -0.1453  0.0467 -0.2271
  277loPI   C4A 4426   6.966  14.910   8.297 -0.0406 -0.2890  0.0152
  277loPI   C5A 4427   7.086  14.983   7.911 -0.0738 -0.1293  0.0320
  277loPI   C6A 4428   6.828  15.038   7.558 -0.1409 -0.2183 -0.0745
  277loPI   C1B 4429   7.500  14.618   9.257 -0.1126  0.1246 -0.0689
  277loPI   C2B 4430   7.467  14.391   8.857  0.1955  0.2998 -0.2703
  277loPI   C3B 4431   7.350  14.328   8.462  0.0073  0.0089 -0.3001
  277loPI   C4B 4432   7.528  14.202   8.137  0.1976  0.1720  0.0743
  278loPI    C1 4433  12.531  17.863  10.676 -0.2311 -0.0823  0.1754
  278loPI    C2 4434  12.820  18.136  10.633 -0.2709 -0.0662  0.0034
  278loPI    C3 4435  12.537  18.187  10.911 -0.1403 -0.0548  0.1356
  278loPI   PO4 4436  12.399  17.819  10.358 -0.1229  0.0666  0.0146
  278loPI   GL1 4437  12.563  17.637   9.986  0.1128 -0.0837  0.2526
  278loPI   GL2 4438  12.319  17.372  10.086 -0.1518  0.2002 -0.0342
  278loPI   C1A 4439  12.548  17.454   9.513  0.0866 -0.3392  0.0309
  278loPI   C2A 4440  12.623  17.436   9.124  0.0171 -0.0030  0.1188
  278loPI   C3A 4441  12.501  17.315   8.744  0.0290 -0.4292 -0.2550
  278loPI   C4A 4442  12.218  17.151   8.463 -0.0797 -0.1072  0.0278
  278loPI   C5A 4443  11.883  16.833   8.293 -0.3250 -0.0531  0.1037
  278loPI   C6A 4444  11.565  16.901   8.122  0.1296 -0.1228 -0.0262
  278loPI   C1B 4445  12.153  17.595   9.752  0.3426 -0.3544 -0.2593
  278loPI   C2B 4446  12.109  17.599   9.246  0.0395  0.0832  0.0674
  278loPI   C3B 4447  11.987  17.610   8.777 -0.0896 -0.0083  0.3174
  278loPI   C4B 4448  11.874  17.743   8.355  0.0466  0.1987 -0.2183
  279loPI    C1 4449   4.749  10.446  10.310  0.1052 -0.1286 -0.0554
  279loPI    C2 4450   4.792  10.774  10.535  0.1223 -0.2000  0.0458
  279loPI    C3 4451   5.096  10.517  10.495  0.1824 -0.0917 -0.2122
  279loPI   PO4 4452   4.613  10.618  10.013  0.1529 -0.1330  0.2100
  279loPI   GL1 4453   4.899  10.668   9.599 -0.0317  0.1052 -0.1658
  279loPI   GL2 4454   4.838  10.318   9.719 -0.1271  0.2726  0.3213
  279loPI   C1A 4455   4.694  10.889   9.379  0.0897  0.0774 -0.1262
  279loPI   C2A 4456   4.496  10.900   8.999 -0.0234  0.2362  0.0701
  279loPI   C3A 4457   4.530  11.194   8.621 -0.2462 -0.1094 -0.0816
  279loPI   C4A 4458   4.534  11.439   8.256 -0.0741 -0.2135 -0.1709
  279loPI   C5A 4459   4.528  11.685   7.920  0.0926  0.0531 -0.0335
  279loPI   C6A 4460   4.532  12.144   7.662  0.0743 -0.3160  0.2453
  279loPI   C1B 4461   4.830  10.315   9.235  0.0303  0.1044 -0.3038
  279loPI   C2B 4462   4.742  10.447   8.856 -0.1233  0.0770 -0.0243
  279loPI   C3B 4463   4.725  10.599   8.454  0.0353  0.0563  0.0194
  279loPI   C4B 4464   4.791  10.546   7.997  0.0358  0.1915 -0.1464
  280loPI    C1 4465   0.295  18.104  10.080  0.2136  0.0713 -0.0735
  280loPI    C2 4466   0.223  17.976  10.452 -0.0520  0.1813 -0.0852
  280loPI    C3 4467   0.416  18.321  10.393 -0.1419  0.2385 -0.0472
  280loPI   PO4 4468   0.092  18.137   9.984 -0.1930  0.1862  0.2616
  280loPI   GL1 4469  -0.167  18.158   9.607  0.0224  0.2227 -0.4380
  280loPI   GL2 4470  -0.120  18.465   9.450  0.0749  0.0124 -0.0826
  280loPI   C1A 4471   0.056  17.967   9.292 -0.0676  0.0356 -0.3140
  280loPI   C2A 4472   0.153  17.892   8.882  0.1802  0.0922  0.0741
  280loPI   C3A 4473   0.355  17.840   8.600 -0.2857 -0.0542  0.2630
  280loPI   C4A 4474   0.500  17.898   8.204  0.1912 -0.2475  0.0769
  280loPI   C5A 4475   0.841  18.053   8.063 -0.0174  0.0474  0.0768
  280loPI   C6A 4476   1.110  17.923   7.720 -0.3245  0.2220 -0.1109
  280loPI   C1B 4477   0.058  18.372   9.070 -0.0906 -0.0238 -0.1362
  280loPI   C2B 4478  -0.107  18.359   8.741 -0.3572  0.0429 -0.0593
  280loPI   C3B 4479  -0.179  18.586   8.395  0.0193 -0.0277  0.0845
  280loPI   C4B 4480  -0.186  18.962   8.196 -0.0489  0.1557  0.1684
  281loPI    C1 4481  18.078  15.948  10.186 -0.0252 -0.0854 -0.0535
  281loPI    C2 4482  18.380  15.882   9.932  0.0176  0.0229 -0.0310
  281loPI    C3 4483  18.427  15.809  10.323  0.1254  0.3506  0.0211
  281loPI   PO4 4484  17.825  15.893  10.049 -0.0611 -0.0705 -0.1275
  281loPI   GL1 4485  17.667  15.548   9.777  0.0955  0.0279  0.0640
  281loPI   GL2 4486  17.382  15.365   9.603  0.1649  0.1355  0.0550
  281loPI   C1A 4487  17.584  15.699   9.283 -0.0243  0.0368 -0.1613
  281loPI   C2A 4488  17.231  15.601   9.029 -0.0590 -0.1932  0.1391
  281loPI   C3A 4489  17.005  15.555   8.624  0.3425  0.1491  0.1373
  281loPI   C4A 4490  17.084  15.579   8.322  0.0410  0.0706 -0.1971
  281loPI   C5A 4491  16.889  15.641   7.918  0.0176 -0.1287 -0.0632
  281loPI   C6A 4492  16.727  15.739   7.485  0.1649 -0.2295 -0.3714
  281loPI   C1B 4493  17.466  15.180   9.235  0.1750 -0.0384 -0.1754
  281loPI   C2B 4494  17.481  15.218   8.761  0.3599 -0.1028 -0.1906
  281loPI   C3B 4495  17.585  15.511   8.575 -0.0298 -0.2722  0.0569
  281loPI   C4B 4496  17.649  15.836   8.319 -0.0108 -0.0915  0.0370
  282loPI    C1 4497  16.413  12.962  10.065 -0.0854 -0.0826 -0.0889
  282loPI    C2 4498  16.742  12.760   9.957 -0.0102 -0.0821  0.1326
  282loPI    C3 4499  16.770  13.066  10.213 -0.1597  0.0389  0.0069
  282loPI   PO4 4500  16.315  12.995   9.827 -0.0130  0.1325  0.1610
  282loPI   GL1 4501  16.298  12.876   9.395 -0.2072  0.1416 -0.0180
  282loPI   GL2 4502  16.507  13.111   9.401  0.0114  0.1583  0.2341
  282loPI   C1A 4503  16.177  12.757   9.019 -0.4696 -0.2805  0.0529
  282loPI   C2A 4504  16.095  12.876   8.598  0.1730 -0.0208  0.0414
  282loPI   C3A 4505  15.944  12.870   8.181 -0.3551  0.1239 -0.0276
  282loPI   C4A 4506  15.936  12.951   7.828  0.1182 -0.1071  0.1634
  282loPI   C5A 4507  16.107  13.012   7.351 -0.1943 -0.0740  0.2695
  282loPI   C6A 4508  16.150  13.281   7.045  0.0568  0.1278 -0.0976
  282loPI   C1B 4509  16.459  13.143   8.971 -0.0615 -0.0648 -0.0655
  282loPI   C2B 4510  16.237  13.315   8.770 -0.0715  0.0747  0.3065
  282loPI   C3B 4511  16.160  13.327   8.242 -0.0199 -0.3543  0.1158
  282loPI   C4B 4512  16.006  13.604   8.014  0.2562 -0.0445 -0.2344
  283loPI    C1 4513  11.096   2.776  10.711 -0.1016 -0.1362  0.1224
  283loPI    C2 4514  10.717   2.665  10.648 -0.0740 -0.2475  0.1499
  283loPI    C3 4515  10.810   2.891  10.965 -0.1348 -0.1213  0.0785
  283loPI   PO4 4516  11.218   2.583  10.668  0.2730  0.1024 -0.0628
  283loPI   GL1 4517  11.372   2.317  10.265  0.0814  0.2290  0.3182
  283loPI   GL2 4518  11.053   2.172  10.366  0.0112 -0.1136  0.0158
  283loPI   C1A 4519  11.423   2.591   9.826 -0.2099  0.0602  0.1529
  283loPI   C2A 4520  11.596   2.725   9.476  0.0898 -0.0344 -0.1177
  283loPI   C3A 4521  11.628   2.542   9.066  0.1007 -0.0385  0.2257
  283loPI   C4A 4522  11.435   2.095   8.943 -0.0080  0.3415  0.2136
  283loPI   C5A 4523  11.101   1.908   9.025  0.2487  0.0892 -0.0080
  283loPI   C6A 4524  10.727   1.933   8.769  0.0677  0.1636  0.0237
  283loPI   C1B 4525  11.306   1.911   9.992  0.0501  0.0141  0.1952
  283loPI   C2B 4526  11.571   1.653   9.697 -0.0366  0.0873  0.0592
  283loPI   C3B 4527  11.627   1.694   9.230 -0.0707  0.1100  0.2033
  283loPI   C4B 4528  11.902   1.742   8.825 -0.1095 -0.0727 -0.1407
  284loPI    C1 4529  18.361  16.323  10.282  0.1336  0.1527  0.0386
  284loPI    C2 4530  18.648  16.317  10.561 -0.0040  0.0008  0.1788
  284loPI    C3 4531  18.380  16.613  10.557 -0.0955 -0.0794  0.3046
  284loPI   PO4 4532  18.566  16.342  10.019 -0.2756 -0.0078 -0.1692
  284loPI   GL1 4533  18.581  16.178   9.590 -0.2145  0.1583  0.2023
  284loPI   GL2 4534  18.870  16.130   9.414  0.0332  0.0563 -0.1023
  284loPI   C1A 4535  18.360  16.341   9.291  0.0158  0.0263 -0.1898
  284loPI   C2A 4536  18.445  16.320   8.925 -0.1946  0.2939  0.0073
  284loPI   C3A 4537  18.514  16.194   8.560 -0.1071 -0.3557  0.0345
  284loPI   C4A 4538  18.564  15.979   8.227 -0.1946 -0.3649  0.3448
  284loPI   C5A 4539  18.300  15.870   7.836  0.4614  0.7394 -0.1443
  284loPI   C6A 4540  17.837  15.850   7.758 -0.1368  0.2271 -0.1260
  284loPI   C1B 4541  18.906  16.458   9.159 -0.0847 -0.0624  0.1156
  284loPI   C2B 4542  18.900  16.413   8.747  0.2692 -0.0473 -0.1476
  284loPI   C3B 4543  19.074  16.290   8.407 -0.1532 -0.4004 -0.1520
  284loPI   C4B 4544  18.966  16.265   7.972 -0.1271 -0.1436 -0.0363
  285loPI    C1 4545   7.729   3.645  10.219 -0.0967  0.0287 -0.0301
  285loPI    C2 4546   8.000   3.940  10.220  0.0186 -0.0760  0.1260
  285loPI    C3 4547   8.103   3.573  10.341 -0.1298 -0.1763 -0.0465
  285loPI   PO4 4548   7.525   3.740  10.304 -0.1293  0.1044 -0.0668
  285loPI   GL1 4549   7.300   3.851   9.996 -0.0103 -0.0720  0.0426
  285loPI   GL2 4550   7.296   3.520   9.906  0.1310  0.1465 -0.0236
  285loPI   C1A 4551   7.131   3.706   9.501 -0.2226 -0.1831 -0.3333
  285loPI   C2A 4552   7.406   3.517   9.140  0.0510 -0.2797  0.2475
  285loPI   C3A 4553   7.423   3.512   8.688 -0.2175 -0.2773  0.2143
  285loPI   C4A 4554   7.374   3.629   8.232 -0.0447 -0.1552 -0.0147
  285loPI   C5A 4555   7.028   3.650   7.831 -0.2115 -0.4305 -0.0300
  285loPI   C6A 4556   6.731   3.335   7.516  0.0777  0.1583 -0.1750
  285loPI   C1B 4557   7.484   3.265   9.593  0.1992  0.0681  0.2452
  285loPI   C2B 4558   7.375   2.942   9.372  0.0273 -0.0963  0.3779
  285loPI   C3B 4559   7.452   2.937   8.921  0.0139  0.1222 -0.1503
  285loPI   C4B 4560   7.348   3.074   8.530 -0.0285  0.1838  0.3237
  286loPI    C1 4561   0.222   8.936   9.821  0.0698 -0.0293  0.0563
  286loPI    C2 4562  -0.163   8.828   9.820  0.0896 -0.0997  0.0055
  286loPI    C3 4563   0.110   8.596   9.998  0.1210 -0.0945 -0.0357
  286loPI   PO4 4564   0.139   9.188   9.671 -0.2009 -0.1969  0.2592
  286loPI   GL1 4565   0.142   9.265   9.269 -0.0908 -0.0667  0.2059
  286loPI   GL2 4566   0.204   9.641   9.151 -0.1774 -0.2743 -0.1233
  286loPI   C1A 4567   0.033   8.993   8.943 -0.0555 -0.2432  0.4153
  286loPI   C2A 4568   0.054   8.885   8.458 -0.4581  0.1933 -0.2223
  286loPI   C3A 4569   0.129   8.784   8.083 -0.1290 -0.2889  0.1458
  286loPI   C4A 4570   0.199   8.687   7.611  0.1174  0.0164  0.1440
  286loPI   C5A 4571   0.003   8.926   7.281 -0.1224 -0.2744 -0.1019
  286loPI   C6A 4572  -0.307   9.007   6.935 -0.0274 -0.0541  0.0784
  286loPI   C1B 4573  -0.044   9.708   8.853 -0.0399 -0.1548 -0.1685
  286loPI   C2B 4574  -0.200   9.522   8.460 -0.0262  0.2285  0.0484
  286loPI   C3B 4575  -0.389   9.225   8.350 -0.2982 -0.2532  0.0332
  286loPI   C4B 4576  -0.507   9.020   8.541  0.0775 -0.0506 -0.3736
  287loPI    C1 4577   9.642  10.261  10.619 -0.3606  0.1502 -0.0065
  287loPI    C2 4578   9.810  10.120  10.954  0.0041  0.0250 -0.2356
  287loPI    C3 4579   9.513  10.388  10.976  0.1129  0.1187  0.1834
  287loPI   PO4 4580   9.737   9.995  10.460 -0.1704 -0.0916 -0.0843
  287loPI   GL1 4581   9.587  10.028  10.016 -0.0539 -0.1214  0.0811
  287loPI   GL2 4582   9.495   9.709   9.824 -0.0222  0.3915 -0.2605
  287loPI   C1A 4583   9.520  10.149   9.525  0.3152 -0.3824  0.1059
  287loPI   C2A 4584   9.565  10.144   9.110  0.0722 -0.0794  0.1906
  287loPI   C3A 4585   9.481  10.265   8.642 -0.0377 -0.0609  0.0374
  287loPI   C4A 4586   9.192  10.171   8.243 -0.0697  0.2904  0.0704
  287loPI   C5A 4587   8.965  10.320   7.984 -0.0484  0.0814 -0.0920
  287loPI   C6A 4588   8.768  10.375   7.619 -0.0006  0.2774  0.0487
  287loPI   C1B 4589   9.177   9.763   9.533 -0.1037  0.2091 -0.0232
  287loPI   C2B 4590   8.755   9.656   9.379  0.1611  0.1948  0.3259
  287loPI   C3B 4591   8.711   9.721   8.990  0.5212 -0.1082 -0.2960
  287loPI   C4B 4592   8.523   9.953   8.635  0.2386 -0.1315  0.1424
  288loPI    C1 4593  16.520   0.295  10.024 -0.1594  0.0619  0.3511
  288loPI    C2 4594  16.736   0.140  10.323 -0.0665  0.1701  0.3407
  288loPI    C3 4595  16.885   0.439  10.102 -0.0628 -0.0267  0.0726
  288loPI   PO4 4596  16.432   0.069   9.755 -0.0449 -0.0221 -0.2424
  288loPI   GL1 4597  16.644   0.065   9.305 -0.2361  0.1300 -0.2185
  288loPI   GL2 4598  16.969  -0.013   9.161  0.1230  0.0568 -0.0202
  288loPI   C1A 4599  16.566   0.097   8.904  0.1793 -0.1372  0.0650
  288loPI   C2A 4600  16.574   0.142   8.577 -0.0383  0.4020 -0.0804
  288loPI   C3A 4601  16.625   0.251   8.141 -0.1157  0.3231  0.0543
  288loPI   C4A 4602  16.682   0.543   7.923 -0.0198 -0.0541  0.3521
  288loPI   C5A 4603  16.686   0.945   7.727 -0.2743  0.1042 -0.1900
  288loPI   C6A 4604  16.756   1.350   7.488  0.1687 -0.0420  0.0950
  288loPI   C1B 4605  17.076  -0.012   8.741  0.2289  0.2002 -0.2432
  288loPI   C2B 4606  17.151  -0.058   8.256  0.0161  0.0193 -0.1024
  288loPI   C3B 4607  17.269  -0.332   7.843 -0.1649  0.1289 -0.1174
  288loPI   C4B 4608  17.598  -0.391   7.648 -0.2144  0.1538 -0.3147
  289loPI    C1 4609   0.399   1.232   9.937 -0.0059 -0.0348  0.1308
  289loPI    C2 4610   0.188   0.938  10.107 -0.0498 -0.0121  0.1156
  289loPI    C3 4611   0.082   1.320  10.164 -0.0559 -0.0037  0.0496
  289loPI   PO4 4612   0.374   1.253   9.654  0.0725 -0.0647 -0.2756
  289loPI   GL1 4613   0.432   1.111   9.263  0.0109 -0.0054 -0.0518
  289loPI   GL2 4614   0.215   1.256   9.199  0.1320 -0.0677  0.2292
  289loPI   C1A 4615   0.589   0.983   8.906  0.0580  0.2468  0.2127
  289loPI   C2A 4616   0.518   1.002   8.457  0.0759  0.0684 -0.0410
  289loPI   C3A 4617   0.613   0.952   8.053 -0.1566  0.1142  0.0086
  289loPI   C4A 4618   1.013   1.084   7.807  0.2367 -0.0928  0.1187
  289loPI   C5A 4619   1.068   1.311   7.494 -0.0106 -0.0085  0.0505
  289loPI   C6A 4620   0.820   1.557   7.375 -0.1018  0.0052 -0.1446
  289loPI   C1B 4621   0.246   1.328   8.771  0.2665  0.1005  0.0394
  289loPI   C2B 4622   0.421   1.496   8.455  0.4690  0.2108  0.3183
  289loPI   C3B 4623   0.362   1.514   8.038 -0.1207 -0.0690  0.0484
  289loPI   C4B 4624   0.473   1.810   7.694  0.0378  0.2216  0.0028
  290loPI    C1 4625  16.250   7.213   9.802  0.0339 -0.2645 -0.0274
  290loPI    C2 4626  16.596   7.216  10.004  0.0390 -0.2113 -0.0368
  290loPI    C3 4627  16.248   7.200  10.202  0.0349  0.1211 -0.0114
  290loPI   PO4 4628  16.277   7.236   9.536 -0.0448  0.0441  0.0592
  290loPI   GL1 4629  16.252   7.084   9.146 -0.1446  0.1600  0.2318
  290loPI   GL2 4630  16.573   7.202   9.128 -0.1478 -0.1329 -0.0404
  290loPI   C1A 4631  16.143   7.173   8.778  0.2701  0.0381  0.0347
  290loPI   C2A 4632  16.006   7.239   8.312  0.0163  0.2477 -0.1005
  290loPI   C3A 4633  15.908   6.992   7.910 -0.0791 -0.3752  0.0773
  290loPI   C4A 4634  16.145   6.785   7.720  0.0648 -0.0074  0.1698
  290loPI   C5A 4635  16.451   6.971   7.260 -0.1168  0.1147  0.0679
  290loPI   C6A 4636  16.717   7.313   7.068 -0.1020 -0.0258 -0.0848
  290loPI   C1B 4637  16.538   7.451   8.720  0.0145 -0.2747 -0.3281
  290loPI   C2B 4638  16.343   7.560   8.259 -0.3685  0.2095  0.0278
  290loPI   C3B 4639  16.037   7.635   7.951 -0.0337 -0.0320 -0.0284
  290loPI   C4B 4640  15.738   7.407   7.685  0.3093 -0.3016  0.0637
  291loPI    C1 4641   1.489   7.708   9.942 -0.1381  0.0718 -0.2340
  291loPI    C2 4642   1.274   7.379   9.870 -0.0225 -0.0641  0.0297
  291loPI    C3 4643   1.486   7.410  10.208 -0.2140  0.3780  0.1169
  291loPI   PO4 4644   1.631   7.693   9.680  0.2386  0.0423  0.0971
  291loPI   GL1 4645   1.669   7.934   9.419 -0.1787  0.0264 -0.1335
  291loPI   GL2 4646   1.418   7.857   9.169 -0.1771  0.4058 -0.2347
  291loPI   C1A 4647   2.100   7.964   9.227 -0.0788 -0.3677  0.2688
  291loPI   C2A 4648   2.152   8.094   8.786 -0.1018 -0.4510  0.1805
  291loPI   C3A 4649   2.174   8.059   8.438  0.0713 -0.1106 -0.1229
  291loPI   C4A 4650   2.189   8.113   7.990  0.4266 -0.1228 -0.1847
  291loPI   C5A 4651   2.374   8.464   7.681 -0.0909 -0.3850 -0.0919
  291loPI   C6A 4652   2.677   8.614   7.326  0.2813  0.0641  0.0003
  291loPI   C1B 4653   1.727   7.759   8.914 -0.0562  0.1379  0.3042
  291loPI   C2B 4654   1.766   7.789   8.519 -0.1978  0.2297 -0.1569
  291loPI   C3B 4655   1.747   7.841   8.101 -0.0482  0.0087  0.1302
  291loPI   C4B 4656   1.764   8.096   7.719  0.1725 -0.0511 -0.2141
  292loPI    C1 4657   0.579  11.067   9.749 -0.0703  0.3061  0.1411
  292loPI    C2 4658   0.902  11.208   9.938  0.1984 -0.1052  0.0030
  292loPI    C3 4659   0.659  10.950  10.123  0.0510  0.0578  0.0396
  292loPI   PO4 4660   0.712  11.021   9.452 -0.0868 -0.0995  0.0889
  292loPI   GL1 4661   0.940  11.182   9.131 -0.2952  0.0663 -0.1282
  292loPI   GL2 4662   1.266  11.126   9.081  0.1380 -0.0387 -0.0046
  292loPI   C1A 4663   1.006  11.208   8.604 -0.2360 -0.1445 -0.0029
  292loPI   C2A 4664   0.853  11.257   8.176  0.0821 -0.0701 -0.0389
  292loPI   C3A 4665   0.959  11.376   7.785  0.0307  0.1720 -0.1234
  292loPI   C4A 4666   1.108  11.396   7.408 -0.1616 -0.1530  0.0477
  292loPI   C5A 4667   0.924  11.157   7.056  0.2231  0.2487  0.4323
  292loPI   C6A 4668   1.075  10.962   6.751 -0.0267 -0.0502 -0.0291
  292loPI   C1B 4669   1.443  10.961   8.728  0.2398 -0.0127  0.0199
  292loPI   C2B 4670   1.450  10.821   8.367 -0.2068 -0.0243 -0.1763
  292loPI   C3B 4671   1.700  10.960   8.105  0.2271  0.0683  0.5804
  292loPI   C4B 4672   1.948  10.862   7.748 -0.0955 -0.1115  0.1869
  293loPI    C1 4673  14.264  17.952  10.355 -0.1321 -0.1002 -0.0420
  293loPI    C2 4674  13.893  18.102  10.340 -0.0304  0.1550 -0.0509
  293loPI    C3 4675  14.100  18.111  10.683  0.0368  0.1846 -0.0920
  293loPI   PO4 4676  14.358  17.988  10.153 -0.0495  0.0569  0.1049
  293loPI   GL1 4677  14.272  17.918   9.748 -0.3531  0.2680  0.1284
  293loPI   GL2 4678  14.407  17.735   9.495  0.1948 -0.0318 -0.1903
  293loPI   C1A 4679  14.303  18.275   9.462 -0.1054  0.0860 -0.3987
  293loPI   C2A 4680  14.247  18.549   9.127  0.2616  0.3178  0.0508
  293loPI   C3A 4681  14.415  18.607   8.751  0.0432 -0.1785  0.0317
  293loPI   C4A 4682  14.705  18.744   8.478 -0.0917  0.0874 -0.0649
  293loPI   C5A 4683  14.710  18.771   8.089  0.1560  0.0855  0.2013
  293loPI   C6A 4684  14.782  19.186   7.987 -0.0150  0.5054 -0.2822
  293loPI   C1B 4685  14.614  17.783   9.075 -0.0933  0.0129  0.1855
  293loPI   C2B 4686  15.121  17.836   8.928 -0.0981 -0.1946 -0.2188
  293loPI   C3B 4687  15.262  17.926   8.537 -0.1185 -0.1136 -0.0371
  293loPI   C4B 4688  15.373  18.262   8.350  0.1418 -0.0652  0.0199
  294loPI    C1 4689   3.169   0.940  10.179  0.2350  0.0019  0.1761
  294loPI    C2 4690   2.965   1.265  10.291  0.0576 -0.0965  0.1430
  294loPI    C3 4691   3.112   1.016  10.568 -0.0126 -0.1141  0.1649
  294loPI   PO4 4692   2.936   0.788  10.011 -0.1432  0.0527 -0.3929
  294loPI   GL1 4693   2.891   0.895   9.528  0.0517 -0.0597 -0.2840
  294loPI   GL2 4694   3.170   1.076   9.447  0.2041  0.0407  0.0247
  294loPI   C1A 4695   2.851   0.713   9.146  0.1081  0.1156  0.0485
  294loPI   C2A 4696   2.834   0.785   8.690 -0.1963  0.0415 -0.1163
  294loPI   C3A 4697   2.663   0.688   8.366 -0.4124 -0.1453  0.0228
  294loPI   C4A 4698   2.859   0.880   7.963  0.0867 -0.0005 -0.0841
  294loPI   C5A 4699   2.852   0.886   7.507  0.2127  0.0815  0.0326
  294loPI   C6A 4700   2.787   0.615   7.123 -0.0536  0.0470  0.2497
  294loPI   C1B 4701   3.262   1.083   8.996 -0.5396  0.2827 -0.0983
  294loPI   C2B 4702   3.327   0.969   8.487  0.1393  0.1581 -0.0146
  294loPI   C3B 4703   3.415   0.913   8.073  0.2009  0.0036  0.0160
  294loPI   C4B 4704   3.254   1.100   7.730  0.1498  0.2457 -0.2722
  295loPI    C1 4705  17.612   2.146  10.145 -0.0128 -0.1053 -0.0483
  295loPI    C2 4706  17.510   1.827  10.363  0.0735 -0.1454 -0.0662
  295loPI    C3 4707  17.424   2.194  10.495  0.0118 -0.1742 -0.0255
  295loPI   PO4 4708  17.456   2.056   9.923  0.1584  0.3353 -0.2493
  295loPI   GL1 4709  17.551   1.633   9.665 -0.2602 -0.2401 -0.2994
  295loPI   GL2 4710  17.280   1.725   9.602  0.1334 -0.0431  0.0853
  295loPI   C1A 4711  17.687   1.549   9.356  0.0531  0.3215  0.0961
  295loPI   C2A 4712  17.607   1.676   8.959 -0.1344  0.0161  0.1793
  295loPI   C3A 4713  17.555   1.732   8.470  0.0123  0.1006  0.1353
  295loPI   C4A 4714  17.404   1.748   8.054  0.1060  0.1437  0.1434
  295loPI   C5A 4715  17.551   2.052   7.614 -0.4834 -0.1454 -0.1969
  295loPI   C6A 4716  17.618   1.967   7.235  0.2551 -0.2337  0.1610
  295loPI   C1B 4717  17.169   1.778   9.132  0.1572  0.1297  0.1130
  295loPI   C2B 4718  17.024   1.869   8.651  0.2784 -0.1708  0.1319
  295loPI   C3B 4719  16.940   1.837   8.226 -0.0632  0.3008  0.0807
  295loPI   C4B 4720  16.939   1.799   7.728  0.1904  0.1817 -0.1780
  296loPI    C1 4721  11.614   3.716  10.557  0.0356 -0.2071 -0.0246
  296loPI    C2 4722  11.816   3.371  10.545  0.3029 -0.0625  0.1941
  296loPI    C3 4723  11.610   3.471  10.873  0.2713  0.0110  0.1523
  296loPI   PO4 4724  11.718   3.871  10.260 -0.2145  0.0494  0.1440
  296loPI   GL1 4725  11.658   4.102   9.838 -0.2288  0.0270 -0.2907
  296loPI   GL2 4726  11.818   4.407   9.752  0.0257 -0.0062 -0.1619
  296loPI   C1A 4727  11.939   4.102   9.380 -0.3410 -0.2351 -0.0740
  296loPI   C2A 4728  11.968   3.956   8.989 -0.2479 -0.0559 -0.0167
  296loPI   C3A 4729  11.821   3.576   8.730 -0.0067 -0.1259  0.0316
  296loPI   C4A 4730  11.761   3.191   8.478  0.1566  0.0701 -0.5207
  296loPI   C5A 4731  11.863   3.025   8.092  0.2438 -0.0445  0.0093
  296loPI   C6A 4732  12.208   3.108   7.741 -0.3024 -0.0711 -0.2394
  296loPI   C1B 4733  11.703   4.517   9.296  0.2175  0.0191 -0.1406
  296loPI   C2B 4734  11.859   4.477   8.889  0.0813  0.1718 -0.0484
  296loPI   C3B 4735  11.968   4.548   8.536 -0.2890  0.1284  0.5090
  296loPI   C4B 4736  12.104   4.828   8.250 -0.0037 -0.2310  0.1735
  297loPI    C1 4737  11.573   6.675  10.279  0.0815  0.1084  0.1633
  297loPI    C2 4738  11.772   6.351  10.404  0.2176  0.2352  0.2794
  297loPI    C3 4739  11.836   6.705  10.579 -0.0564  0.2926  0.2680
  297loPI   PO4 4740  11.616   6.681   9.976  0.0450 -0.0009 -0.0605
  297loPI   GL1 4741  11.398   6.707   9.663  0.0957 -0.1668  0.0681
  297loPI   GL2 4742  11.586   6.406   9.574 -0.1950  0.0826  0.1340
  297loPI   C1A 4743  11.666   6.814   9.259 -0.1719 -0.2783 -0.1309
  297loPI   C2A 4744  11.948   6.890   8.880  0.2552 -0.1188 -0.1100
  297loPI   C3A 4745  12.002   7.143   8.522 -0.0380  0.1218 -0.1104
  297loPI   C4A 4746  11.776   7.340   8.225  0.0469  0.0933 -0.3457
  297loPI   C5A 4747  11.583   7.389   7.857  0.1215  0.1084 -0.0240
  297loPI   C6A 4748  11.105   7.276   7.690 -0.1173  0.0102  0.4981
  297loPI   C1B 4749  11.389   6.439   9.075  0.0310 -0.0333 -0.4790
  297loPI   C2B 4750  11.362   6.734   8.816  0.0526 -0.0238 -0.0793
  297loPI   C3B 4751  11.408   7.003   8.460 -0.0943  0.0671  0.1246
  297loPI   C4B 4752  11.372   6.945   8.037  0.1529  0.1257  0.1224
  298loPI    C1 4753   1.247  12.685   9.915  0.2729  0.1000  0.1674
  298loPI    C2 4754   0.993  12.748  10.218  0.1476  0.0594  0.0715
  298loPI    C3 4755   1.337  12.554  10.283  0.0324 -0.1217  0.1503
  298loPI   PO4 4756   1.110  12.576   9.759  0.1249  0.1457 -0.1107
  298loPI   GL1 4757   1.020  12.409   9.329  0.2141 -0.1032 -0.0520
  298loPI   GL2 4758   0.776  12.316   9.183  0.0748  0.1621  0.1254
  298loPI   C1A 4759   0.924  12.710   8.999  0.0086  0.0397 -0.3277
  298loPI   C2A 4760   0.879  12.855   8.600  0.4993  0.1299 -0.0526
  298loPI   C3A 4761   0.831  12.977   8.210 -0.1329 -0.1586 -0.0733
  298loPI   C4A 4762   0.923  13.260   7.947  0.1611 -0.0924 -0.3387
  298loPI   C5A 4763   1.311  13.286   7.700 -0.0375 -0.0644 -0.1778
  298loPI   C6A 4764   1.619  13.599   7.730 -0.1205 -0.0236 -0.0282
  298loPI   C1B 4765   0.668  12.072   8.816 -0.0710 -0.0871 -0.0137
  298loPI   C2B 4766   0.699  12.196   8.416  0.0247  0.0175  0.2240
  298loPI   C3B 4767   0.752  12.482   8.091  0.0940 -0.4745 -0.1543
  298loPI   C4B 4768   0.904  12.542   7.769 -0.0719  0.1632 -0.2233
  299loPI    C1 4769  12.089   5.578  10.465  0.0669 -0.1255 -0.1191
  299loPI    C2 4770  11.970   5.209  10.564  0.0559 -0.1460 -0.2070
  299loPI    C3 4771  11.709   5.512  10.571  0.1630 -0.0552  0.2860
  299loPI   PO4 4772  12.198   5.502  10.187  0.0395  0.1131 -0.3738
  299loPI   GL1 4773  12.210   5.676   9.803  0.1530  0.1110 -0.1115
  299loPI   GL2 4774  12.390   6.002   9.827  0.0048 -0.2393 -0.1437
  299loPI   C1A 4775  12.049   5.912   9.437 -0.0225 -0.0721  0.1655
  299loPI   C2A 4776  12.077   5.963   9.056  0.0118 -0.0294 -0.1290
  299loPI   C3A 4777  12.389   6.190   8.777 -0.1418 -0.1001 -0.0706
  299loPI   C4A 4778  12.429   6.237   8.310  0.0626 -0.1403 -0.1927
  299loPI   C5A 4779  12.300   6.564   7.975 -0.0720 -0.1508 -0.3424
  299loPI   C6A 4780  11.918   6.967   7.963 -0.1822 -0.3058 -0.3236
  299loPI   C1B 4781  12.484   5.738   9.416  0.3790  0.2140  0.2559
  299loPI   C2B 4782  12.499   5.708   8.953 -0.1265  0.1606  0.1909
  299loPI   C3B 4783  12.264   5.767   8.556 -0.0164 -0.5287 -0.2345
  299loPI   C4B 4784  11.891   5.761   8.366 -0.4056  0.0153  0.0077
  300loPI    C1 4785   9.413  13.275  10.070  0.0677  0.1200 -0.0942
  300loPI    C2 4786   9.220  13.268   9.719 -0.1593 -0.1512  0.0327
  300loPI    C3 4787   9.209  12.949   9.961  0.1521 -0.0362  0.2047
  300loPI   PO4 4788   9.620  13.455   9.962 -0.1533 -0.1244 -0.3111
  300loPI   GL1 4789   9.674  13.414   9.499  0.1479  0.0004 -0.2812
  300loPI   GL2 4790   9.423  13.670   9.491 -0.2139 -0.0567  0.1739
  300loPI   C1A 4791   9.684  13.554   9.074  0.1632  0.0229 -0.1559
  300loPI   C2A 4792   9.660  13.500   8.647 -0.4048  0.0787  0.0914
  300loPI   C3A 4793   9.696  13.520   8.297  0.0879  0.2505  0.4397
  300loPI   C4A 4794  10.076  13.583   7.992  0.5792  0.1297  0.0052
  300loPI   C5A 4795  10.338  13.111   7.910  0.0174 -0.0162 -0.0980
  300loPI   C6A 4796  10.759  13.086   8.010  0.0139  0.1648  0.2457
  300loPI   C1B 4797   9.298  13.823   9.078  0.1600  0.2493 -0.2132
  300loPI   C2B 4798   9.275  13.874   8.689 -0.1832  0.1813 -0.2058
  300loPI   C3B 4799   9.115  14.174   8.406  0.2274 -0.2507 -0.0643
  300loPI   C4B 4800   8.990  14.542   8.244 -0.0476  0.0351 -0.0263
  301loPI    C1 4801  13.755   1.878  10.599 -0.0023  0.0118  0.0414
  301loPI    C2 4802  13.543   1.547  10.523 -0.0480 -0.0063  0.2432
  301loPI    C3 4803  13.489   1.745  10.866 -0.0554  0.2386  0.1032
  301loPI   PO4 4804  14.007   1.805  10.540  0.2137  0.1724 -0.0043
  301loPI   GL1 4805  14.141   2.013  10.147 -0.1790  0.0324 -0.0029
  301loPI   GL2 4806  14.460   2.106  10.030 -0.0130 -0.1167  0.0109
  301loPI   C1A 4807  13.916   2.323   9.988  0.0741  0.0128 -0.1189
  301loPI   C2A 4808  13.820   2.516   9.621 -0.1587 -0.0671 -0.1125
  301loPI   C3A 4809  13.736   2.369   9.130  0.0683 -0.1735 -0.1705
  301loPI   C4A 4810  13.874   2.388   8.687  0.1664 -0.0216 -0.0679
  301loPI   C5A 4811  14.074   2.297   8.343 -0.1850  0.2494 -0.4307
  301loPI   C6A 4812  14.041   1.869   8.296 -0.2865 -0.2013 -0.0451
  301loPI   C1B 4813  14.301   2.280   9.656 -0.0033  0.0124  0.1035
  301loPI   C2B 4814  14.198   2.210   9.219  0.0491  0.0518  0.0934
  301loPI   C3B 4815  14.171   2.049   8.790 -0.0648 -0.0042 -0.2835
  301loPI   C4B 4816  14.119   1.585   8.772 -0.2440  0.1990 -0.1797
  302loPI    C1 4817  15.696  16.443  10.166 -0.0799 -0.2078 -0.1400
  302loPI    C2 4818  15.816  16.791  10.323  0.1399 -0.2674 -0.1725
  302loPI    C3 4819  15.488  16.610  10.464  0.1620 -0.1681  0.0087
  302loPI   PO4 4820  15.937  16.403  10.018  0.1294  0.3582  0.0339
  302loPI   GL1 4821  16.014  16.071   9.554  0.2309 -0.0612  0.2091
  302loPI   GL2 4822  15.886  15.700   9.561 -0.0966  0.1502 -0.1072
  302loPI   C1A 4823  15.936  16.187   9.092 -0.0372  0.0533 -0.1176
  302loPI   C2A 4824  15.728  16.222   8.691 -0.0677 -0.1169  0.0523
  302loPI   C3A 4825  15.585  16.320   8.394 -0.1631 -0.3010  0.2214
  302loPI   C4A 4826  15.542  16.637   8.215 -0.0906  0.3016  0.2066
  302loPI   C5A 4827  15.728  16.894   7.865  0.1620 -0.1050  0.3633
  302loPI   C6A 4828  16.039  17.250   7.900 -0.2319  0.0113  0.0538
  302loPI   C1B 4829  15.871  15.560   9.054  0.0268 -0.0790  0.1456
  302loPI   C2B 4830  15.706  15.739   8.656  0.0492  0.0748 -0.3744
  302loPI   C3B 4831  15.663  15.809   8.267 -0.0079  0.1290 -0.1196
  302loPI   C4B 4832  15.585  16.010   7.988  0.1411  0.0332 -0.0266
  303loPI    C1 4833   0.136   8.147   9.639  0.0530  0.0305 -0.2801
  303loPI    C2 4834  -0.196   7.924   9.653  0.0979 -0.0260 -0.0898
  303loPI    C3 4835  -0.058   8.099   9.985  0.3924 -0.2004 -0.1163
  303loPI   PO4 4836   0.112   8.254   9.404 -0.3428 -0.0143 -0.0027
  303loPI   GL1 4837   0.505   8.210   9.097  0.0666 -0.3905  0.1458
  303loPI   GL2 4838   0.286   8.410   8.941 -0.2767 -0.1200 -0.0794
  303loPI   C1A 4839   0.576   8.035   8.776  0.2521  0.0212 -0.0513
  303loPI   C2A 4840   0.641   7.989   8.408 -0.1074 -0.0489 -0.0482
  303loPI   C3A 4841   0.828   8.021   7.995 -0.5586  0.1574  0.0220
  303loPI   C4A 4842   1.226   8.123   7.687 -0.0273  0.0370 -0.0493
  303loPI   C5A 4843   1.582   8.320   7.318  0.1095 -0.2460  0.3860
  303loPI   C6A 4844   1.978   8.242   7.201 -0.0744 -0.0006 -0.0464
  303loPI   C1B 4845   0.328   8.468   8.580 -0.1289  0.1402 -0.1577
  303loPI   C2B 4846   0.456   8.405   8.182  0.2449 -0.0629 -0.0377
  303loPI   C3B 4847   0.595   8.479   7.863 -0.1940 -0.3342  0.0771
  303loPI   C4B 4848   0.891   8.448   7.644  0.0349  0.0159  0.2847
  304loPI    C1 4849   7.209  10.304  10.600  0.0330  0.0575 -0.2751
  304loPI    C2 4850   7.388  10.613  10.781  0.0608 -0.0168 -0.1750
  304loPI    C3 4851   7.582  10.408  10.498  0.0775 -0.0018 -0.1744
  304loPI   PO4 4852   6.965  10.349  10.401 -0.1051 -0.2293 -0.0826
  304loPI   GL1 4853   6.898  10.411   9.875  0.2367 -0.1887 -0.1901
  304loPI   GL2 4854   6.518  10.411   9.779  0.2537  0.1084  0.2493
  304loPI   C1A 4855   7.094  10.640   9.624  0.1398 -0.0447 -0.1043
  304loPI   C2A 4856   7.046  10.718   9.194 -0.1181  0.1957 -0.0391
  304loPI   C3A 4857   7.008  10.608   8.776  0.1636  0.1105  0.2542
  304loPI   C4A 4858   7.054  10.624   8.365 -0.0634 -0.0026 -0.1858
  304loPI   C5A 4859   7.291  10.779   8.106 -0.0754 -0.0971 -0.0833
  304loPI   C6A 4860   7.592  11.027   7.814 -0.1499  0.2009  0.0381
  304loPI   C1B 4861   6.668  10.261   9.437 -0.1918 -0.0747 -0.0967
  304loPI   C2B 4862   6.792  10.184   8.976 -0.1519  0.0255  0.1435
  304loPI   C3B 4863   6.980  10.109   8.509 -0.1180 -0.3412  0.0184
  304loPI   C4B 4864   7.121   9.760   8.204  0.0188 -0.2076 -0.1518
  305loPI    C1 4865  13.826  17.260  10.182 -0.2976  0.1232  0.1264
  305loPI    C2 4866  13.913  17.553  10.440  0.0273  0.0756  0.0751
  305loPI    C3 4867  13.677  17.251  10.553 -0.2023  0.2874  0.1695
  305loPI   PO4 4868  13.796  17.332   9.991  0.1520 -0.0924 -0.0362
  305loPI   GL1 4869  13.958  17.411   9.651  0.0320  0.2768  0.0195
  305loPI   GL2 4870  14.142  17.131   9.735  0.0183 -0.1919  0.2300
  305loPI   C1A 4871  13.603  17.432   9.322  0.1040  0.0733  0.0678
  305loPI   C2A 4872  13.548  17.411   8.815  0.0760  0.1017 -0.0984
  305loPI   C3A 4873  13.805  17.353   8.392 -0.1139 -0.1497  0.2132
  305loPI   C4A 4874  14.030  17.536   7.943  0.0686 -0.0693 -0.4940
  305loPI   C5A 4875  13.932  17.536   7.450 -0.0229  0.1451 -0.0055
  305loPI   C6A 4876  13.890  17.593   7.101 -0.2267  0.1377 -0.0641
  305loPI   C1B 4877  14.375  16.858   9.472  0.2207  0.2278  0.1970
  305loPI   C2B 4878  14.621  16.831   9.073 -0.2315  0.2164  0.4019
  305loPI   C3B 4879  14.748  16.900   8.613 -0.0648 -0.2718  0.1672
  305loPI   C4B 4880  14.743  17.125   8.270 -0.2914 -0.1741 -0.2564
  306loPI    C1 4881  14.459   5.186  10.212  0.1276  0.1459  0.2626
  306loPI    C2 4882  14.367   5.090  10.590 -0.1091 -0.1667  0.1299
  306loPI    C3 4883  14.173   5.388  10.407 -0.1194 -0.1325  0.1961
  306loPI   PO4 4884  14.615   4.993  10.119 -0.1200  0.0307 -0.0423
  306loPI   GL1 4885  14.652   4.679   9.801  0.2616  0.0696 -0.0790
  306loPI   GL2 4886  14.834   4.899   9.626 -0.0221  0.0273 -0.0141
  306loPI   C1A 4887  14.440   4.449   9.508 -0.1549  0.1401 -0.4224
  306loPI   C2A 4888  14.421   4.170   9.011  0.1496 -0.1902 -0.1328
  306loPI   C3A 4889  14.341   4.129   8.566 -0.0503 -0.2309 -0.1594
  306loPI   C4A 4890  14.449   3.903   8.128 -0.2059  0.1051 -0.0228
  306loPI   C5A 4891  14.287   3.803   7.757 -0.0422 -0.0311 -0.2068
  306loPI   C6A 4892  13.931   3.646   7.473 -0.0481 -0.1636  0.0258
  306loPI   C1B 4893  14.706   4.861   9.238  0.0401  0.1989 -0.0368
  306loPI   C2B 4894  14.874   4.815   8.756 -0.2112  0.0560 -0.1963
  306loPI   C3B 4895  14.678   4.937   8.328  0.0682 -0.2680  0.1372
  306loPI   C4B 4896  14.562   4.837   7.861 -0.0864  0.0709 -0.0284
  307loPI    C1 4897  16.167  11.214  10.010  0.1037 -0.0890  0.1449
  307loPI    C2 4898  16.276  11.595  10.068  0.0512 -0.0867  0.2300
  307loPI    C3 4899  16.188  11.362  10.381 -0.1871 -0.0886  0.1638
  307loPI   PO4 4900  15.951  11.076   9.810  0.0976 -0.1972  0.1717
  307loPI   GL1 4901  16.010  11.073   9.402  0.0651 -0.1077 -0.1668
  307loPI   GL2 4902  16.334  11.163   9.219  0.2005  0.0315 -0.0753
  307loPI   C1A 4903  15.801  11.195   9.045  0.0620  0.2475  0.0863
  307loPI   C2A 4904  15.610  11.009   8.693 -0.1286  0.1133 -0.0924
  307loPI   C3A 4905  15.253  10.948   8.485 -0.0048 -0.1162  0.3536
  307loPI   C4A 4906  15.001  11.183   8.162  0.1083 -0.1409 -0.0432
  307loPI   C5A 4907  14.717  11.102   7.863  0.0901 -0.1433  0.2550
  307loPI   C6A 4908  14.748  10.817   7.480 -0.1521 -0.1574  0.1692
  307loPI   C1B 4909  16.458  11.315   8.867 -0.1603 -0.1080  0.4525
  307loPI   C2B 4910  16.557  11.103   8.416  0.2047 -0.1230  0.1832
  307loPI   C3B 4911  16.265  11.026   8.078 -0.0781 -0.0726  0.3135
  307loPI   C4B 4912  15.886  10.918   7.894  0.0019  0.0082  0.3594
  308loPI    C1 4913   2.338  17.433   9.903  0.0413 -0.1012  0.0775
  308loPI    C2 4914   2.477  17.561  10.256 -0.0115 -0.1199  0.1054
  308loPI    C3 4915   2.704  17.325  10.025  0.1012  0.0532  0.0367
  308loPI   PO4 4916   2.014  17.499   9.897 -0.0365 -0.0028  0.1998
  308loPI   GL1 4917   1.825  17.364   9.517  0.2948  0.0179  0.0252
  308loPI   GL2 4918   2.067  17.170   9.499 -0.1033  0.2040  0.0830
  308loPI   C1A 4919   1.933  17.550   9.105  0.1241 -0.0346  0.0463
  308loPI   C2A 4920   2.027  17.493   8.629  0.0402 -0.1088 -0.1790
  308loPI   C3A 4921   1.704  17.314   8.394 -0.1805  0.1734 -0.0344
  308loPI   C4A 4922   1.561  17.226   8.055 -0.2021 -0.1661  0.0509
  308loPI   C5A 4923   1.850  17.256   7.679 -0.4022  0.0306  0.2214
  308loPI   C6A 4924   2.035  17.326   7.328  0.1124  0.0820 -0.0639
  308loPI   C1B 4925   2.004  17.043   9.024 -0.1006 -0.1560 -0.0503
  308loPI   C2B 4926   1.946  16.909   8.616 -0.1909 -0.1976 -0.1538
  308loPI   C3B 4927   2.091  16.991   8.204  0.2769 -0.2774 -0.0151
  308loPI   C4B 4928   2.299  17.067   7.840  0.0513  0.1042  0.1578
  309loPI    C1 4929   7.145  13.491  10.528  0.0115 -0.0909  0.1165
  309loPI    C2 4930   7.544  13.499  10.560  0.0187 -0.0430  0.0198
  309loPI    C3 4931   7.316  13.578  10.879  0.0874  0.2611 -0.0040
  309loPI   PO4 4932   7.120  13.313  10.359  0.2507  0.4146 -0.1583
  309loPI   GL1 4933   7.023  13.396   9.894  0.3950 -0.1914  0.0250
  309loPI   GL2 4934   6.709  13.465   9.842  0.0533  0.1097  0.1351
  309loPI   C1A 4935   7.064  13.497   9.487  0.0606  0.1604 -0.0718
  309loPI   C2A 4936   7.019  13.586   9.014  0.2315  0.2245 -0.3658
  309loPI   C3A 4937   7.213  13.558   8.634  0.0255  0.0338 -0.0719
  309loPI   C4A 4938   7.526  13.341   8.397 -0.2893 -0.0686 -0.1181
  309loPI   C5A 4939   7.680  12.997   8.143  0.1537 -0.2532 -0.1372
  309loPI   C6A 4940   7.788  12.732   7.844  0.1146 -0.1047  0.1802
  309loPI   C1B 4941   6.540  13.605   9.470  0.3362 -0.2906 -0.3309
  309loPI   C2B 4942   6.455  13.823   9.023 -0.0967  0.1492 -0.0013
  309loPI   C3B 4943   6.393  14.072   8.665  0.2208 -0.1278  0.0478
  309loPI   C4B 4944   6.495  14.251   8.264  0.0901 -0.0472  0.1315
  310loPI    C1 4945  16.373   4.440   9.924 -0.0166 -0.0898 -0.0011
  310loPI    C2 4946  16.659   4.258  10.137 -0.2568 -0.2428  0.1960
  310loPI    C3 4947  16.496   4.599  10.270 -0.0010 -0.0252 -0.0361
  310loPI   PO4 4948  16.612   4.336   9.637 -0.1011  0.0686  0.2493
  310loPI   GL1 4949  16.769   4.599   9.349 -0.0336  0.3115 -0.0079
  310loPI   GL2 4950  17.059   4.474   9.317  0.0219  0.4702 -0.1622
  310loPI   C1A 4951  16.588   4.303   9.009 -0.0168 -0.1184 -0.1199
  310loPI   C2A 4952  16.574   4.269   8.516 -0.2103  0.0831  0.1159
  310loPI   C3A 4953  16.618   4.629   8.310  0.2674 -0.0065 -0.4208
  310loPI   C4A 4954  16.734   4.744   7.931  0.2670  0.0519 -0.0037
  310loPI   C5A 4955  16.772   4.866   7.458  0.1155 -0.0408  0.0396
  310loPI   C6A 4956  16.449   4.955   7.173 -0.3075 -0.2104  0.1915
  310loPI   C1B 4957  17.079   4.313   8.927 -0.1263 -0.2697 -0.0138
  310loPI   C2B 4958  17.077   4.191   8.494  0.0917 -0.2940  0.2289
  310loPI   C3B 4959  16.900   4.175   8.046  0.0890  0.0174  0.0452
  310loPI   C4B 4960  16.469   4.274   7.966  0.2512 -0.0147 -0.1771
  311loPI    C1 4961   9.448   3.105  10.894  0.0616 -0.3426 -0.3031
  311loPI    C2 4962   9.720   2.893  11.097 -0.0432 -0.3078 -0.1253
  311loPI    C3 4963   9.339   2.771  11.086 -0.1387 -0.0448  0.1162
  311loPI   PO4 4964   9.575   3.202  10.643 -0.1357 -0.3840 -0.1136
  311loPI   GL1 4965   9.700   3.273  10.173  0.2718  0.1581  0.1290
  311loPI   GL2 4966   9.403   3.046  10.206 -0.2900  0.0395 -0.1216
  311loPI   C1A 4967   9.642   3.213   9.677 -0.1270  0.0037 -0.0379
  311loPI   C2A 4968   9.707   3.243   9.215 -0.0962  0.0668  0.4836
  311loPI   C3A 4969   9.652   3.288   8.717  0.2038 -0.0003  0.2528
  311loPI   C4A 4970   9.795   3.332   8.274 -0.0006 -0.0282 -0.1383
  311loPI   C5A 4971  10.042   3.478   7.848 -0.1130  0.2818  0.1935
  311loPI   C6A 4972  10.314   3.743   7.910  0.0276  0.1235 -0.0213
  311loPI   C1B 4973   9.129   2.937   9.774 -0.0799 -0.3172  0.0989
  311loPI   C2B 4974   9.187   3.027   9.378 -0.0023  0.1379 -0.1869
  311loPI   C3B 4975   9.305   2.892   8.958 -0.0546  0.1669 -0.0131
  311loPI   C4B 4976   9.391   2.772   8.512  0.2140  0.0504  0.1075
  312loPI    C1 4977   0.236   7.712   9.795 -0.0198  0.2782  0.1344
  312loPI    C2 4978   0.036   7.574  10.113  0.1680 -0.0167  0.1281
  312loPI    C3 4979   0.435   7.605  10.125  0.1947 -0.2185 -0.1454
  312loPI   PO4 4980   0.153   7.562   9.570  0.2413 -0.1383 -0.0423
  312loPI   GL1 4981   0.083   7.341   9.215 -0.0874  0.1660  0.0008
  312loPI   GL2 4982   0.463   7.356   9.105  0.1447 -0.1749 -0.1644
  312loPI   C1A 4983   0.027   7.314   8.791 -0.1435  0.1546  0.0427
  312loPI   C2A 4984  -0.124   7.379   8.355 -0.2364 -0.0601  0.0882
  312loPI   C3A 4985  -0.269   7.669   7.951 -0.0861  0.1458 -0.1311
  312loPI   C4A 4986  -0.131   7.937   7.658  0.1139  0.1872 -0.1340
  312loPI   C5A 4987  -0.074   8.323   7.383  0.0236 -0.0345  0.0560
  312loPI   C6A 4988  -0.324   8.416   7.095 -0.1060  0.0749  0.0558
  312loPI   C1B 4989   0.515   7.440   8.697  0.2516  0.4058  0.1920
  312loPI   C2B 4990   0.350   7.590   8.371  0.1299 -0.4472 -0.1200
  312loPI   C3B 4991   0.373   7.774   8.014  0.0574  0.0068 -0.0727
  312loPI   C4B 4992   0.343   8.049   7.668  0.0657 -0.1126  0.2366
  313loPI    C1 4993  18.050  15.385  10.264  0.0449 -0.0273 -0.2282
  313loPI    C2 4994  17.877  15.027  10.227  0.1559 -0.1269  0.1729
  313loPI    C3 4995  17.651  15.356  10.252  0.0549 -0.1587 -0.2524
  313loPI   PO4 4996  18.313  15.358  10.105  0.1420  0.0323  0.3339
  313loPI   GL1 4997  18.215  15.458   9.786 -0.1278 -0.1773  0.0240
  313loPI   GL2 4998  18.525  15.531   9.606  0.1435  0.2706  0.0045
  313loPI   C1A 4999  17.988  15.425   9.417  0.0730  0.4136 -0.0200
  313loPI   C2A 5000  17.960  15.344   8.944  0.1479 -0.0341 -0.1177
  313loPI   C3A 5001  18.006  15.143   8.556  0.1337  0.0976  0.2874
  313loPI   C4A 5002  18.201  14.988   8.233  0.0575  0.0274  0.2502
  313loPI   C5A 5003  18.324  15.093   7.870 -0.3306  0.2101 -0.2501
  313loPI   C6A 5004  18.308  15.406   7.566 -0.0434  0.0021  0.0697
  313loPI   C1B 5005  18.360  15.486   9.135 -0.0263  0.1910  0.1915
  313loPI   C2B 5006  18.410  15.711   8.658 -0.0145  0.1743 -0.0947
  313loPI   C3B 5007  18.113  15.739   8.344 -0.0641  0.0947 -0.0435
  313loPI   C4B 5008  17.941  15.416   8.129  0.1111  0.1571 -0.0173
  314loPI    C1 5009   8.874  13.291  10.171 -0.0609 -0.0455  0.1017
  314loPI    C2 5010   8.743  13.641  10.312 -0.2055 -0.0413 -0.0395
  314loPI    C3 5011   8.856  13.353  10.565 -0.0135  0.1330  0.0766
  314loPI   PO4 5012   8.713  13.209   9.905 -0.1012 -0.1506  0.1479
  314loPI   GL1 5013   8.838  13.515   9.535 -0.1137  0.2219  0.0613
  314loPI   GL2 5014   8.702  13.346   9.364 -0.4102 -0.0564 -0.0867
  314loPI   C1A 5015   8.631  13.833   9.337  0.0525  0.2268 -0.0194
  314loPI   C2A 5016   8.321  14.032   9.128 -0.0754  0.2157 -0.4130
  314loPI   C3A 5017   8.215  14.110   8.710 -0.2646 -0.1271 -0.1752
  314loPI   C4A 5018   8.221  13.827   8.388 -0.1081 -0.3074 -0.1678
  314loPI   C5A 5019   8.383  13.643   8.011 -0.3454 -0.1309  0.2925
  314loPI   C6A 5020   8.286  13.528   7.651  0.0087  0.0448  0.2345
  314loPI   C1B 5021   9.119  13.261   9.168 -0.2453  0.0416 -0.1547
  314loPI   C2B 5022   9.128  13.380   8.743 -0.0044  0.1278  0.1153
  314loPI   C3B 5023   9.151  13.503   8.383  0.0355 -0.0529  0.1913
  314loPI   C4B 5024   9.097  13.614   7.976  0.5051 -0.1919 -0.1168
  315loPI    C1 5025   0.502  12.147   9.610  0.1323  0.2263 -0.1467
  315loPI    C2 5026   0.539  11.993   9.977  0.1225 -0.1805 -0.3108
  315loPI    C3 5027   0.212  12.200   9.879  0.0737 -0.1683 -0.1258
  315loPI   PO4 5028   0.522  11.917   9.420 -0.0218 -0.1223  0.0587
  315loPI   GL1 5029   0.288  11.719   9.163 -0.0325  0.2585  0.1863
  315loPI   GL2 5030   0.519  11.433   9.169 -0.0031 -0.1334 -0.0636
  315loPI   C1A 5031   0.325  11.700   8.765  0.1740 -0.3467  0.2202
  315loPI   C2A 5032   0.266  11.655   8.341  0.1690  0.0371 -0.2273
  315loPI   C3A 5033   0.089  11.735   7.923  0.0179  0.1004  0.0096
  315loPI   C4A 5034  -0.165  11.653   7.702 -0.0010  0.0293 -0.0318
  315loPI   C5A 5035  -0.179  11.424   7.274 -0.2419 -0.3636 -0.0405
  315loPI   C6A 5036  -0.282  11.022   7.111  0.0194  0.0118  0.1705
  315loPI   C1B 5037   0.443  11.209   8.716 -0.1169  0.3693  0.0666
  315loPI   C2B 5038   0.329  11.134   8.271 -0.3547 -0.1047 -0.0827
  315loPI   C3B 5039   0.399  11.336   7.924  0.1188  0.1368  0.0152
  315loPI   C4B 5040   0.442  11.509   7.502  0.1849 -0.1318 -0.0381
  316loPI    C1 5041   1.606   3.061  10.158  0.0984  0.1513  0.1650
  316loPI    C2 5042   1.800   2.900  10.469 -0.0704  0.0264  0.2072
  316loPI    C3 5043   1.402   2.935  10.478 -0.0782  0.0043 -0.0032
  316loPI   PO4 5044   1.657   2.995  10.013 -0.1024 -0.1387  0.2702
  316loPI   GL1 5045   1.704   2.965   9.655 -0.0261  0.0802  0.0526
  316loPI   GL2 5046   2.057   2.855   9.700  0.4432 -0.0384  0.0853
  316loPI   C1A 5047   1.542   2.837   9.321 -0.0488 -0.2200 -0.2177
  316loPI   C2A 5048   1.460   2.966   8.809  0.0792 -0.0769  0.2677
  316loPI   C3A 5049   1.284   3.168   8.462  0.2175  0.2699  0.0501
  316loPI   C4A 5050   1.364   3.318   8.065  0.3660 -0.2650 -0.2566
  316loPI   C5A 5051   1.387   3.316   7.733 -0.0760 -0.1545  0.0653
  316loPI   C6A 5052   1.209   3.112   7.320  0.3418 -0.1846  0.1200
  316loPI   C1B 5053   2.007   2.880   9.216 -0.0017 -0.0590 -0.1289
  316loPI   C2B 5054   2.175   3.237   8.915 -0.0753  0.1615  0.1233
  316loPI   C3B 5055   2.194   3.315   8.435 -0.1378  0.2229 -0.0668
  316loPI   C4B 5056   2.367   3.213   8.014  0.1151  0.2241  0.1240
  317loPI    C1 5057  15.487   8.900   9.829 -0.0455 -0.1103 -0.0088
  317loPI    C2 5058  15.618   9.137  10.123  0.0892 -0.0117 -0.1466
  317loPI    C3 5059  15.255   8.971  10.146  0.0610  0.0730  0.0293
  317loPI   PO4 5060  15.446   9.085   9.508  0.2973  0.0951  0.4341
  317loPI   GL1 5061  15.584   9.006   9.165 -0.1396  0.4792 -0.0121
  317loPI   GL2 5062  15.785   8.802   9.268  0.0157  0.2133 -0.1678
  317loPI   C1A 5063  15.610   9.037   8.747 -0.0859  0.1906 -0.2743
  317loPI   C2A 5064  15.802   9.003   8.378 -0.1341  0.1410 -0.1515
  317loPI   C3A 5065  16.016   8.976   7.978  0.1241 -0.2275 -0.3680
  317loPI   C4A 5066  16.249   8.906   7.660 -0.0059 -0.2645 -0.3851
  317loPI   C5A 5067  16.478   9.060   7.427  0.0295 -0.1287 -0.1066
  317loPI   C6A 5068  16.501   8.920   7.007  0.3671 -0.3844  0.3644
  317loPI   C1B 5069  15.909   8.678   8.907  0.1817 -0.0100  0.1523
  317loPI   C2B 5070  16.220   8.587   8.673  0.0920 -0.0377  0.1050
  317loPI   C3B 5071  16.358   8.439   8.353  0.0555 -0.0496  0.1919
  317loPI   C4B 5072  16.266   8.521   7.933  0.0130 -0.2698 -0.1198
  318loPI    C1 5073   5.988  12.278  10.244  0.4325  0.0010 -0.1543
  318loPI    C2 5074   6.170  12.279  10.600 -0.1303 -0.1079  0.1463
  318loPI    C3 5075   6.046  12.623  10.438  0.1510 -0.0553  0.0358
  318loPI   PO4 5076   6.116  12.221  10.079 -0.2260 -0.0259  0.5765
  318loPI   GL1 5077   6.116  12.477   9.763 -0.3590 -0.1562  0.2218
  318loPI   GL2 5078   5.769  12.489   9.814  0.0499  0.3069  0.0157
  318loPI   C1A 5079   6.127  12.312   9.377 -0.0644 -0.0591 -0.0921
  318loPI   C2A 5080   6.300  12.340   8.985  0.3987 -0.0969 -0.2246
  318loPI   C3A 5081   6.471  12.294   8.574  0.0630  0.3173 -0.2706
  318loPI   C4A 5082   6.738  12.201   8.304  0.0156  0.0146 -0.1240
  318loPI   C5A 5083   6.775  12.170   7.869  0.4978  0.2935 -0.3217
  318loPI   C6A 5084   7.086  11.962   7.612  0.3587 -0.1254 -0.1734
  318loPI   C1B 5085   5.700  12.502   9.418 -0.2609 -0.0986  0.1130
  318loPI   C2B 5086   5.884  12.579   8.950 -0.0055  0.0482 -0.1566
  318loPI   C3B 5087   6.058  12.566   8.483  0.2380 -0.1084 -0.2295
  318loPI   C4B 5088   6.156  12.710   8.234  0.1055 -0.0373  0.0126
  319loPI    C1 5089  11.404  15.736  10.742 -0.0016  0.0265 -0.0574
  319loPI    C2 5090  11.288  15.400  10.927 -0.2241  0.0973 -0.0649
  319loPI    C3 5091  11.591  15.616  11.075 -0.2237  0.0095  0.0637
  319loPI   PO4 5092  11.455  15.664  10.499  0.0753  0.0419  0.0800
  319loPI   GL1 5093  11.459  15.943  10.174 -0.1108  0.2065  0.2688
  319loPI   GL2 5094  11.195  16.117   9.985 -0.2336 -0.0299 -0.1221
  319loPI   C1A 5095  11.690  15.890   9.712  0.0578  0.1743  0.2429
  319loPI   C2A 5096  11.786  15.914   9.387  0.0926 -0.2899  0.1484
  319loPI   C3A 5097  11.999  15.769   9.022 -0.0164 -0.3029  0.2927
  319loPI   C4A 5098  12.082  15.728   8.627 -0.2485  0.5098 -0.1252
  319loPI   C5A 5099  12.112  15.482   8.178 -0.1750  0.1107 -0.1680
  319loPI   C6A 5100  12.212  15.185   7.809 -0.1159 -0.0408  0.2068
  319loPI   C1B 5101  11.240  15.882   9.595 -0.2157  0.2113  0.1096
  319loPI   C2B 5102  11.269  15.908   9.182  0.0397  0.3773  0.1765
  319loPI   C3B 5103  11.142  15.922   8.771  0.0018 -0.0086  0.0162
  319loPI   C4B 5104  10.926  16.137   8.428  0.0468 -0.0715  0.0110
  320loPI    C1 5105  13.008   7.599  10.285  0.3795 -0.0795  0.1496
  320loPI    C2 5106  12.911   7.987  10.305 -0.0099 -0.1694  0.0862
  320loPI    C3 5107  13.215   7.869  10.073  0.0828  0.0915  0.0710
  320loPI   PO4 5108  12.815   7.498  10.168  0.2761 -0.0165 -0.1298
  320loPI   GL1 5109  12.689   7.349   9.811  0.2269  0.2627 -0.0506
  320loPI   GL2 5110  12.531   7.699   9.820  0.2771  0.2473  0.0883
  320loPI   C1A 5111  12.831   7.212   9.389 -0.0831  0.0395  0.0297
  320loPI   C2A 5112  12.662   7.072   9.086  0.0502 -0.1677 -0.0996
  320loPI   C3A 5113  12.539   6.983   8.751  0.3360 -0.1136  0.0875
  320loPI   C4A 5114  12.507   7.242   8.481  0.0610 -0.3568  0.3153
  320loPI   C5A 5115  12.241   7.403   8.105  0.2125  0.3197  0.1566
  320loPI   C6A 5116  12.090   7.419   7.739 -0.0817 -0.2460 -0.0182
  320loPI   C1B 5117  12.507   7.522   9.339  0.0523  0.0201 -0.3382
  320loPI   C2B 5118  12.639   7.581   8.947 -0.0746  0.2839  0.1769
  320loPI   C3B 5119  12.929   7.437   8.621  0.0048 -0.1417 -0.0893
  320loPI   C4B 5120  13.236   7.573   8.411  0.0174  0.1440 -0.0984
  321loPI    C1 5121   7.101   2.330  10.502  0.0190  0.3113 -0.1206
  321loPI    C2 5122   7.044   2.159  10.858 -0.4063 -0.0296 -0.3424
  321loPI    C3 5123   6.873   2.511  10.777 -0.0387  0.2116 -0.1024
  321loPI   PO4 5124   6.997   2.073  10.309 -0.0029  0.0600 -0.3060
  321loPI   GL1 5125   7.260   2.059   9.855 -0.1794  0.1273 -0.1758
  321loPI   GL2 5126   7.470   2.287  10.096 -0.0439 -0.2529  0.0993
  321loPI   C1A 5127   7.328   1.911   9.489 -0.1161  0.0563 -0.3020
  321loPI   C2A 5128   7.409   1.981   9.034 -0.2108 -0.2114  0.2588
  321loPI   C3A 5129   7.438   1.976   8.598  0.3285 -0.0375  0.2202
  321loPI   C4A 5130   7.477   1.687   8.216  0.1119  0.0136  0.3321
  321loPI   C5A 5131   7.416   1.308   7.883 -0.1404 -0.0843  0.1366
  321loPI   C6A 5132   7.481   1.475   7.498  0.2879 -0.0667 -0.0191
  321loPI   C1B 5133   7.630   2.491   9.764 -0.1449 -0.0193  0.2043
  321loPI   C2B 5134   7.514   2.403   9.401  0.2873 -0.0530  0.0793
  321loPI   C3B 5135   7.460   2.466   9.014  0.4374 -0.0976  0.0361
  321loPI   C4B 5136   7.431   2.508   8.517  0.2480 -0.0654  0.2022
  322loPI    C1 5137   7.653   6.660   9.920  0.0653 -0.0396  0.0618
  322loPI    C2 5138   7.606   6.654  10.317  0.1304 -0.0134  0.0700
  322loPI    C3 5139   7.972   6.686  10.159  0.1025  0.0008  0.0079
  322loPI   PO4 5140   7.392   6.669   9.860  0.1216 -0.2672 -0.0137
  322loPI   GL1 5141   7.282   6.909   9.531 -0.0441  0.1511  0.1763
  322loPI   GL2 5142   7.211   7.236   9.738 -0.0655 -0.0330 -0.0859
  322loPI   C1A 5143   7.131   6.843   9.188  0.3233  0.0378  0.2260
  322loPI   C2A 5144   7.162   6.835   8.772  0.0520 -0.0343  0.0632
  322loPI   C3A 5145   7.024   6.665   8.513  0.1556 -0.0793 -0.4423
  322loPI   C4A 5146   7.031   6.697   8.050 -0.0342 -0.1482  0.2356
  322loPI   C5A 5147   6.935   6.880   7.627  0.3670  0.0437 -0.1411
  322loPI   C6A 5148   7.138   7.229   7.331 -0.2815 -0.4635  0.1848
  322loPI   C1B 5149   7.209   7.341   9.346  0.0812 -0.1860  0.2423
  322loPI   C2B 5150   7.276   7.333   8.880 -0.2323  0.0356  0.4146
  322loPI   C3B 5151   7.131   7.302   8.549 -0.2339 -0.1306 -0.0028
  322loPI   C4B 5152   6.972   7.153   8.271 -0.2507 -0.2648  0.0187
  323loPI    C1 5153   2.919  10.499   9.828  0.2351 -0.2359 -0.1981
  323loPI    C2 5154   3.130  10.640  10.138 -0.1089 -0.1989  0.0255
  323loPI    C3 5155   2.970  10.893   9.873  0.0806 -0.2246 -0.1161
  323loPI   PO4 5156   3.024  10.310   9.716  0.2087  0.4382  0.2399
  323loPI   GL1 5157   3.109  10.289   9.304  0.3398 -0.1693  0.1377
  323loPI   GL2 5158   2.815  10.427   9.282  0.1669 -0.3047 -0.1986
  323loPI   C1A 5159   3.159  10.350   8.825  0.1434  0.2039 -0.0655
  323loPI   C2A 5160   3.447  10.374   8.528  0.0681  0.0166  0.1466
  323loPI   C3A 5161   3.574  10.277   8.106 -0.1237 -0.0315  0.0509
  323loPI   C4A 5162   3.889  10.253   7.771 -0.0741  0.0809  0.0786
  323loPI   C5A 5163   4.187  10.109   7.431 -0.0061 -0.3550 -0.0293
  323loPI   C6A 5164   4.354   9.753   7.120 -0.1957 -0.0337 -0.3056
  323loPI   C1B 5165   2.640  10.435   8.859  0.0464  0.1528 -0.0357
  323loPI   C2B 5166   2.782  10.436   8.432  0.2517  0.0558  0.0388
  323loPI   C3B 5167   3.098  10.430   8.139 -0.2373 -0.3059 -0.1675
  323loPI   C4B 5168   3.442  10.627   7.811 -0.2089 -0.3017  0.1365
  324loPI    C1 5169  18.030   2.069  10.415 -0.0112  0.0704 -0.0039
  324loPI    C2 5170  18.045   1.807  10.717 -0.0251  0.2153  0.1244
  324loPI    C3 5171  18.058   2.199  10.792 -0.0796  0.2540 -0.0608
  324loPI   PO4 5172  18.215   2.105  10.088  0.0050  0.0655  0.1087
  324loPI   GL1 5173  18.145   2.234   9.680 -0.1153  0.1673  0.3437
  324loPI   GL2 5174  17.893   2.032   9.670 -0.2333 -0.0268 -0.1742
  324loPI   C1A 5175  18.110   2.042   9.269  0.0070  0.3052  0.0023
  324loPI   C2A 5176  17.910   2.111   8.835 -0.2187 -0.1606  0.2198
  324loPI   C3A 5177  17.866   2.289   8.440  0.0777 -0.3779 -0.0845
  324loPI   C4A 5178  17.661   2.374   8.023  0.0100 -0.0975  0.5197
  324loPI   C5A 5179  17.483   2.547   7.700 -0.0909  0.1903 -0.1188
  324loPI   C6A 5180  17.210   2.535   7.493  0.1135  0.1991 -0.1199
  324loPI   C1B 5181  17.560   2.051   9.330  0.0769  0.0360 -0.2334
  324loPI   C2B 5182  17.420   2.090   8.826 -0.0700 -0.3021  0.2638
  324loPI   C3B 5183  17.285   2.139   8.346 -0.2841  0.0041 -0.1761
  324loPI   C4B 5184  17.176   2.154   7.906  0.0753  0.2634  0.0968
  325loPI    C1 5185  11.031   1.693  10.703 -0.0618  0.2432 -0.1556
  325loPI    C2 5186  11.367   1.507  10.817 -0.1541  0.0668 -0.1675
  325loPI    C3 5187  11.379   1.891  10.706  0.0163  0.1065 -0.0166
  325loPI   PO4 5188  10.907   1.504  10.550  0.1003 -0.0579  0.1433
  325loPI   GL1 5189  11.115   1.191  10.152  0.1693 -0.0525  0.0530
  325loPI   GL2 5190  11.057   0.886  10.005  0.0975  0.1390 -0.2564
  325loPI   C1A 5191  11.061   1.329   9.673  0.2075  0.2741  0.1549
  325loPI   C2A 5192  11.071   1.425   9.189 -0.0001 -0.2646 -0.1779
  325loPI   C3A 5193  11.322   1.509   8.811 -0.0988  0.1274  0.2443
  325loPI   C4A 5194  11.623   1.580   8.474 -0.4030  0.2008 -0.1937
  325loPI   C5A 5195  11.979   1.668   8.254 -0.1065 -0.0639 -0.0283
  325loPI   C6A 5196  11.993   1.768   7.776 -0.2087  0.0148 -0.4122
  325loPI   C1B 5197  11.022   0.843   9.620 -0.1493  0.1369  0.0623
  325loPI   C2B 5198  11.018   0.908   9.157  0.1551  0.1183 -0.3183
  325loPI   C3B 5199  10.886   1.104   8.724 -0.1521  0.1898 -0.3891
  325loPI   C4B 5200  10.797   1.061   8.267 -0.0954 -0.2577 -0.3525
  326loPI    C1 5201   6.341  17.600  10.164  0.4415  0.2641  0.0092
  326loPI    C2 5202   6.604  17.343  10.007  0.0692 -0.0612 -0.0972
  326loPI    C3 5203   6.489  17.304  10.388  0.0811  0.0045 -0.0866
  326loPI   PO4 5204   6.402  17.817  10.056 -0.0652  0.1359 -0.2276
  326loPI   GL1 5205   6.313  18.192   9.760  0.0317  0.0389  0.1662
  326loPI   GL2 5206   6.411  18.493   9.849  0.0156 -0.1083  0.1452
  326loPI   C1A 5207   6.002  18.363   9.523 -0.0747 -0.2002  0.3288
  326loPI   C2A 5208   6.138  18.576   9.076 -0.1692 -0.0937  0.0747
  326loPI   C3A 5209   6.262  18.765   8.710 -0.1034  0.1409 -0.1661
  326loPI   C4A 5210   6.385  18.676   8.291 -0.0428  0.0792  0.3317
  326loPI   C5A 5211   6.386  18.581   7.881 -0.0047  0.0638 -0.0940
  326loPI   C6A 5212   6.327  18.535   7.466  0.0009  0.0484  0.0925
  326loPI   C1B 5213   6.651  18.627   9.514 -0.0236  0.1224  0.3458
  326loPI   C2B 5214   6.950  18.881   9.363  0.1360  0.0586 -0.3140
  326loPI   C3B 5215   7.252  19.143   9.100  0.0997  0.2421 -0.2825
  326loPI   C4B 5216   7.508  18.970   8.745 -0.0176 -0.2421  0.1327
  327loPI    C1 5217   8.110   9.108  10.369  0.1084 -0.0385  0.1869
  327loPI    C2 5218   7.955   8.749  10.456 -0.0619  0.0380  0.2041
  327loPI    C3 5219   8.046   9.004  10.750  0.0287  0.0217  0.1904
  327loPI   PO4 5220   8.277   9.027  10.044  0.2369 -0.0394 -0.4090
  327loPI   GL1 5221   8.398   8.705   9.634 -0.0616 -0.0999  0.2166
  327loPI   GL2 5222   8.537   8.469   9.668 -0.1331  0.3538  0.0869
  327loPI   C1A 5223   8.142   8.853   9.458  0.1165 -0.2146 -0.0739
  327loPI   C2A 5224   8.026   9.002   9.059 -0.0787 -0.0670 -0.0162
  327loPI   C3A 5225   8.057   8.997   8.656 -0.1576  0.0459  0.0219
  327loPI   C4A 5226   8.021   9.116   8.281  0.2558 -0.1680 -0.1144
  327loPI   C5A 5227   7.867   9.351   8.062  0.0747  0.1381 -0.4666
  327loPI   C6A 5228   7.563   9.738   7.894  0.0240  0.1303  0.0926
  327loPI   C1B 5229   8.797   8.546   9.257  0.3492 -0.0091  0.0143
  327loPI   C2B 5230   8.858   8.844   8.849  0.1226  0.2632  0.0624
  327loPI   C3B 5231   8.905   8.928   8.468  0.0204  0.2345 -0.1571
  327loPI   C4B 5232   8.947   8.998   7.969 -0.3074 -0.3125 -0.2425
  328loPI    C1 5233   0.124   4.990  10.044  0.1208 -0.1580  0.1017
  328loPI    C2 5234  -0.231   4.935  10.219  0.0296 -0.1635 -0.0831
  328loPI    C3 5235   0.097   4.980  10.443 -0.1050 -0.0327  0.0912
  328loPI   PO4 5236  -0.036   4.932   9.745 -0.1102 -0.0853 -0.0496
  328loPI   GL1 5237   0.033   5.025   9.337  0.3420  0.0114  0.3238
  328loPI   GL2 5238   0.341   5.196   9.190 -0.3937 -0.2298  0.1491
  328loPI   C1A 5239  -0.098   5.118   8.881 -0.0044 -0.0146 -0.1048
  328loPI   C2A 5240  -0.388   4.836   8.559 -0.1296 -0.0812  0.1834
  328loPI   C3A 5241  -0.237   4.677   8.234  0.0002 -0.0567 -0.0116
  328loPI   C4A 5242  -0.122   4.584   7.808 -0.4149  0.0489 -0.0386
  328loPI   C5A 5243  -0.200   4.310   7.496 -0.1065 -0.3585 -0.3201
  328loPI   C6A 5244  -0.012   3.932   7.327  0.0915 -0.0759 -0.1568
  328loPI   C1B 5245   0.356   5.245   8.701 -0.1424  0.3142 -0.1111
  328loPI   C2B 5246   0.029   5.190   8.351  0.2888  0.1172  0.0489
  328loPI   C3B 5247   0.061   5.064   7.886  0.2971 -0.1604 -0.1324
  328loPI   C4B 5248   0.187   4.811   7.492  0.0007 -0.2496 -0.0392
  329loPI    C1 5249   3.146   1.761  10.253 -0.3548 -0.2402  0.2763
  329loPI    C2 5250   2.932   2.027  10.044  0.1397 -0.1913 -0.1910
  329loPI    C3 5251   2.987   2.079  10.437  0.0170  0.2572 -0.2274
  329loPI   PO4 5252   3.333   1.717   9.993  0.0899  0.1374 -0.2567
  329loPI   GL1 5253   3.469   1.974   9.782  0.0331 -0.2077  0.0277
  329loPI   GL2 5254   3.255   2.060   9.521 -0.1471 -0.0376 -0.0088
  329loPI   C1A 5255   3.731   1.766   9.405 -0.2447 -0.1346 -0.3397
  329loPI   C2A 5256   3.781   1.636   8.974  0.0892  0.2327 -0.1122
  329loPI   C3A 5257   3.998   1.618   8.576 -0.1373  0.1022  0.0708
  329loPI   C4A 5258   3.888   1.657   8.230  0.0588  0.0295  0.1094
  329loPI   C5A 5259   3.862   1.651   7.816  0.0315  0.3504  0.1756
  329loPI   C6A 5260   3.697   1.553   7.511  0.0387  0.0868  0.0492
  329loPI   C1B 5261   3.423   2.117   9.149 -0.0263  0.2234 -0.0252
  329loPI   C2B 5262   3.572   1.901   8.634 -0.2865 -0.0400 -0.2767
  329loPI   C3B 5263   3.441   1.900   8.179  0.0281 -0.0539  0.0055
  329loPI   C4B 5264   3.553   1.985   7.724 -0.3448 -0.1560 -0.2702
  330loPI    C1 5265   4.623   7.407  10.337 -0.1430  0.1738  0.1731
  330loPI    C2 5266   4.309   7.160  10.349 -0.1390  0.1630  0.0700
  330loPI    C3 5267   4.409   7.372  10.673 -0.1513  0.0410  0.1546
  330loPI   PO4 5268   4.500   7.510  10.076  0.3254 -0.4642  0.2400
  330loPI   GL1 5269   4.426   7.428   9.572 -0.1698  0.2928 -0.3467
  330loPI   GL2 5270   4.175   7.674   9.425  0.0767  0.0791 -0.0763
  330loPI   C1A 5271   4.331   7.315   9.200  0.0823 -0.0482  0.0426
  330loPI   C2A 5272   4.340   7.298   8.788  0.3656  0.0576 -0.3664
  330loPI   C3A 5273   4.169   6.984   8.620  0.1851 -0.3652  0.0747
  330loPI   C4A 5274   4.300   6.850   8.161  0.1596  0.0145 -0.1799
  330loPI   C5A 5275   4.309   6.974   7.664 -0.0705  0.2132  0.1077
  330loPI   C6A 5276   4.589   6.718   7.457 -0.2294 -0.4298  0.2318
  330loPI   C1B 5277   4.081   7.776   8.996 -0.0796 -0.1123  0.1774
  330loPI   C2B 5278   4.177   7.776   8.561  0.0259  0.2137  0.1222
  330loPI   C3B 5279   4.494   7.730   8.236 -0.1649  0.0301  0.0602
  330loPI   C4B 5280   4.736   7.513   7.920 -0.2303 -0.3410  0.1068
  331loPI    C1 5281   6.567  11.249  10.388  0.2136 -0.2990  0.3031
  331loPI    C2 5282   6.691  11.564  10.601 -0.1079  0.0503 -0.0113
  331loPI    C3 5283   6.489  11.269  10.779  0.2387 -0.0087  0.2962
  331loPI   PO4 5284   6.358  11.291  10.182  0.2405  0.0464  0.1928
  331loPI   GL1 5285   6.180  11.321   9.756  0.0948 -0.2704 -0.0250
  331loPI   GL2 5286   6.174  11.661   9.795 -0.0142  0.0882 -0.0618
  331loPI   C1A 5287   5.970  11.397   9.365 -0.1602 -0.1126  0.2532
  331loPI   C2A 5288   5.992  11.547   8.899 -0.1962  0.1561 -0.3042
  331loPI   C3A 5289   5.858  11.576   8.536 -0.1136  0.3765  0.0001
  331loPI   C4A 5290   5.744  11.489   8.082  0.0004  0.1270 -0.0312
  331loPI   C5A 5291   5.900  11.435   7.665 -0.2671  0.0447 -0.0528
  331loPI   C6A 5292   6.281  11.336   7.419 -0.0562 -0.2777 -0.1729
  331loPI   C1B 5293   6.287  11.788   9.481 -0.0141 -0.0958 -0.1166
  331loPI   C2B 5294   6.330  11.858   9.094  0.0666  0.1081  0.0950
  331loPI   C3B 5295   6.545  11.837   8.836 -0.3166  0.2082  0.3380
  331loPI   C4B 5296   6.835  11.558   8.629  0.2427  0.0995 -0.0541
  332loPI    C1 5297   2.676   2.432  10.236 -0.1208  0.1959 -0.0026
  332loPI    C2 5298   2.498   2.080  10.303 -0.0940  0.1773 -0.0293
  332loPI    C3 5299   2.570   2.328  10.608 -0.0642  0.1365 -0.0029
  332loPI   PO4 5300   2.455   2.440   9.975 -0.3150 -0.0077  0.0631
  332loPI   GL1 5301   2.244   2.409   9.536  0.4243  0.0775 -0.0372
  332loPI   GL2 5302   2.003   2.403   9.491  0.5622 -0.0699  0.0814
  332loPI   C1A 5303   2.509   2.193   9.275  0.3319 -0.0176  0.1493
  332loPI   C2A 5304   2.538   2.233   8.788 -0.1993  0.0231  0.0750
  332loPI   C3A 5305   2.610   2.270   8.405  0.0178 -0.1025  0.1615
  332loPI   C4A 5306   2.402   2.347   8.061 -0.2106  0.0395 -0.4449
  332loPI   C5A 5307   2.061   2.154   7.795 -0.0305 -0.1209  0.1086
  332loPI   C6A 5308   1.662   1.940   8.061 -0.0549  0.0635 -0.1995
  332loPI   C1B 5309   2.120   2.391   9.032 -0.1087  0.0264 -0.2632
  332loPI   C2B 5310   2.126   2.459   8.550 -0.1089  0.1366  0.2523
  332loPI   C3B 5311   1.870   2.375   8.224  0.2232 -0.2499  0.4313
  332loPI   C4B 5312   1.672   2.481   7.862 -0.0517  0.1113  0.2359
  333loPI    C1 5313  16.104  18.612  10.182 -0.1485  0.0940  0.2639
  333loPI    C2 5314  16.121  18.285   9.954 -0.1228  0.3059 -0.0435
  333loPI    C3 5315  16.448  18.412  10.145 -0.1273  0.1665  0.0583
  333loPI   PO4 5316  16.055  18.883  10.042  0.2775 -0.0598 -0.0237
  333loPI   GL1 5317  15.959  18.923   9.689  0.0682 -0.0294  0.0646
  333loPI   GL2 5318  15.982  18.578   9.533 -0.1157 -0.1351  0.0200
  333loPI   C1A 5319  15.946  19.021   9.281 -0.1671 -0.1190  0.1264
  333loPI   C2A 5320  15.962  19.064   8.839  0.1382 -0.0263 -0.1842
  333loPI   C3A 5321  16.119  19.009   8.437  0.0323  0.0351 -0.2797
  333loPI   C4A 5322  16.103  18.732   8.078 -0.0113 -0.0942  0.0075
  333loPI   C5A 5323  15.707  18.599   7.889 -0.2147  0.1401 -0.0024
  333loPI   C6A 5324  15.448  18.715   7.637  0.1234 -0.2493 -0.0577
  333loPI   C1B 5325  15.634  18.573   9.412 -0.5048  0.0995  0.1317
  333loPI   C2B 5326  15.491  18.945   9.050 -0.0105 -0.1865 -0.3695
  333loPI   C3B 5327  15.126  19.277   9.023 -0.1571  0.1354 -0.0185
  333loPI   C4B 5328  14.772  19.396   9.239  0.1587 -0.0619 -0.1024
  334loPI    C1 5329   7.937   2.583  10.659  0.1731 -0.2693  0.0730
  334loPI    C2 5330   8.022   2.809  10.978 -0.1265  0.1546 -0.1395
  334loPI    C3 5331   7.948   2.419  11.024  0.0774  0.1601  0.2749
  334loPI   PO4 5332   8.102   2.676  10.453  0.0308  0.0054  0.0570
  334loPI   GL1 5333   8.220   2.463  10.156  0.1251  0.1803  0.2400
  334loPI   GL2 5334   8.013   2.321   9.997  0.0839 -0.1741 -0.1137
  334loPI   C1A 5335   8.483   2.182   9.856  0.2141 -0.0590  0.2277
  334loPI   C2A 5336   8.650   2.096   9.442  0.6670  0.1444 -0.1470
  334loPI   C3A 5337   8.756   2.141   9.084 -0.2415  0.2160  0.0048
  334loPI   C4A 5338   8.806   1.904   8.692  0.2740  0.3290 -0.2899
  334loPI   C5A 5339   8.508   1.828   8.292  0.1959 -0.0581 -0.0714
  334loPI   C6A 5340   8.363   1.950   7.878 -0.0344  0.0992  0.0123
  334loPI   C1B 5341   8.136   2.354   9.560 -0.0207  0.1480  0.1498
  334loPI   C2B 5342   8.283   2.377   9.178  0.0302 -0.1717  0.3824
  334loPI   C3B 5343   8.361   2.634   8.827 -0.0747  0.4154 -0.0271
  334loPI   C4B 5344   8.302   2.713   8.325  0.1804 -0.0770 -0.2087
  335loPI    C1 5345  18.487  12.133  10.108  0.1201 -0.2197  0.0479
  335loPI    C2 5346  18.379  11.757  10.190  0.4392 -0.3043  0.0955
  335loPI    C3 5347  18.386  12.031  10.481  0.0903 -0.2287  0.0374
  335loPI   PO4 5348  18.359  12.174   9.842  0.3321  0.1371 -0.1348
  335loPI   GL1 5349  18.556  12.322   9.566 -0.0422 -0.1247  0.2990
  335loPI   GL2 5350  18.509  12.609   9.384  0.1336  0.1630  0.0392
  335loPI   C1A 5351  18.362  12.266   9.068 -0.0788 -0.2060 -0.0848
  335loPI   C2A 5352  18.206  12.232   8.707  0.0526  0.0316  0.1708
  335loPI   C3A 5353  18.113  12.273   8.271  0.0318 -0.1319 -0.1579
  335loPI   C4A 5354  17.909  12.291   7.846 -0.1943  0.1941 -0.3431
  335loPI   C5A 5355  17.675  12.340   7.564  0.2223 -0.0906 -0.0562
  335loPI   C6A 5356  17.887  12.658   7.312 -0.0552 -0.1854  0.0552
  335loPI   C1B 5357  18.155  12.687   9.004  0.0591  0.2710 -0.1188
  335loPI   C2B 5358  18.126  12.755   8.604 -0.0308 -0.2688  0.1661
  335loPI   C3B 5359  18.069  12.724   8.191 -0.1027 -0.0172  0.0738
  335loPI   C4B 5360  18.376  13.024   7.904 -0.3630  0.0403 -0.1331
  336loPI    C1 5361   5.463  13.733  10.317 -0.1139  0.1335  0.0295
  336loPI    C2 5362   5.851  13.818  10.360 -0.0738 -0.0124 -0.0387
  336loPI    C3 5363   5.656  13.627  10.651 -0.0482 -0.1064 -0.0831
  336loPI   PO4 5364   5.410  13.615  10.136 -0.0622  0.5296  0.2889
  336loPI   GL1 5365   5.322  13.573   9.689  0.0749  0.1707 -0.0872
  336loPI   GL2 5366   5.539  13.418   9.595 -0.0219  0.0996  0.2206
  336loPI   C1A 5367   5.482  13.750   9.245 -0.2087 -0.1461  0.2882
  336loPI   C2A 5368   5.395  13.764   8.881  0.1675 -0.1356 -0.0690
  336loPI   C3A 5369   5.348  13.694   8.382 -0.0395  0.1209 -0.1901
  336loPI   C4A 5370   5.349  13.775   8.016 -0.4034  0.0975 -0.1014
  336loPI   C5A 5371   5.200  13.826   7.605 -0.2900 -0.3340  0.1135
  336loPI   C6A 5372   4.945  14.010   7.360  0.1315 -0.0409  0.1430
  336loPI   C1B 5373   5.375  13.304   9.240 -0.0887  0.3216  0.1126
  336loPI   C2B 5374   5.231  13.286   8.787 -0.1172 -0.1295  0.1876
  336loPI   C3B 5375   5.291  13.218   8.347  0.1238  0.1139 -0.2267
  336loPI   C4B 5376   5.479  13.311   7.940  0.0908  0.0294 -0.1640
  337loPI    C1 5377   9.222   4.746  10.117  0.0845  0.0622 -0.1261
  337loPI    C2 5378   9.354   4.542  10.436  0.2736  0.4070  0.0217
  337loPI    C3 5379   8.993   4.715  10.444  0.0005 -0.1283 -0.2014
  337loPI   PO4 5380   9.358   4.586   9.928 -0.0534 -0.0836 -0.2659
  337loPI   GL1 5381   9.471   4.719   9.556  0.1831 -0.0569 -0.2444
  337loPI   GL2 5382   9.753   4.773   9.451  0.3308 -0.0333  0.0113
  337loPI   C1A 5383   9.439   4.389   9.306  0.3212 -0.2209  0.2029
  337loPI   C2A 5384   9.173   4.160   9.025 -0.0102  0.1065 -0.1205
  337loPI   C3A 5385   8.831   4.128   8.753  0.0015 -0.0165  0.2632
  337loPI   C4A 5386   8.544   3.927   8.582  0.2654  0.2996  0.4312
  337loPI   C5A 5387   8.247   3.971   8.236  0.1851 -0.0513  0.0814
  337loPI   C6A 5388   8.084   4.194   7.873  0.0697  0.1769 -0.1419
  337loPI   C1B 5389   9.756   4.664   8.917 -0.1826  0.2359 -0.1947
  337loPI   C2B 5390   9.349   4.607   8.778  0.2163  0.3361  0.0642
  337loPI   C3B 5391   9.063   4.432   8.463  0.2393  0.0958 -0.1806
  337loPI   C4B 5392   9.016   4.025   8.300 -0.1294  0.1430 -0.2064
  338loPI    C1 5393  11.805   5.837  10.150  0.1074 -0.0971  0.1949
  338loPI    C2 5394  11.912   6.131   9.900 -0.3237 -0.1190 -0.0251
  338loPI    C3 5395  12.118   6.070  10.238  0.0620  0.1256 -0.2093
  338loPI   PO4 5396  11.705   5.666   9.991  0.2068  0.0056 -0.1050
  338loPI   GL1 5397  11.357   5.691   9.744 -0.0600  0.0491 -0.1220
  338loPI   GL2 5398  11.515   5.912   9.556 -0.3454  0.0312  0.1303
  338loPI   C1A 5399  11.311   5.543   9.336  0.1399  0.1136 -0.1324
  338loPI   C2A 5400  11.385   5.386   8.898  0.0470  0.1735 -0.0427
  338loPI   C3A 5401  11.120   5.090   8.761 -0.0321  0.1205 -0.0209
  338loPI   C4A 5402  10.859   4.711   8.815  0.0824 -0.2228  0.1808
  338loPI   C5A 5403  10.830   4.369   8.560 -0.1099  0.2480  0.1160
  338loPI   C6A 5404  10.624   3.997   8.259 -0.1999 -0.1298  0.2495
  338loPI   C1B 5405  11.571   5.929   9.152 -0.0200  0.1745  0.3506
  338loPI   C2B 5406  11.599   5.810   8.799 -0.0421 -0.0344 -0.1284
  338loPI   C3B 5407  11.482   5.518   8.446  0.2638 -0.2740  0.0825
  338loPI   C4B 5408  11.478   5.457   8.025  0.0374  0.1163 -0.1737
  339loPI    C1 5409   6.870  11.894  10.279  0.0857  0.1726 -0.0630
  339loPI    C2 5410   6.579  12.125  10.427 -0.0417 -0.0112 -0.0223
  339loPI    C3 5411   6.879  12.005  10.663 -0.0517 -0.0053 -0.0066
  339loPI   PO4 5412   6.705  11.755  10.101  0.2280 -0.1735 -0.0775
  339loPI   GL1 5413   6.704  11.512   9.773  0.1947 -0.3383  0.0926
  339loPI   GL2 5414   6.775  11.728   9.582 -0.0165  0.0736  0.3538
  339loPI   C1A 5415   6.508  11.309   9.396  0.1313 -0.1225 -0.2314
  339loPI   C2A 5416   6.410  11.407   9.043  0.2175  0.2107 -0.1263
  339loPI   C3A 5417   6.402  11.385   8.569  0.0852 -0.1377  0.1716
  339loPI   C4A 5418   6.324  11.301   8.119 -0.0708 -0.1482  0.0235
  339loPI   C5A 5419   6.293  11.004   7.875 -0.0092  0.0017 -0.2376
  339loPI   C6A 5420   6.072  10.578   7.513  0.3093 -0.0747 -0.1189
  339loPI   C1B 5421   6.928  11.671   9.158 -0.0551  0.1278 -0.0518
  339loPI   C2B 5422   7.296  11.645   8.823  0.3022 -0.2047  0.0445
  339loPI   C3B 5423   7.373  11.543   8.349 -0.2487 -0.2265 -0.2166
  339loPI   C4B 5424   7.395  11.850   8.071  0.1692  0.1719  0.0762
  340loPI    C1 5425   4.387   9.662  10.063 -0.2313 -0.1693 -0.1281
  340loPI    C2 5426   4.630   9.350  10.124  0.2079  0.1346 -0.2761
  340loPI    C3 5427   4.453   9.530  10.435 -0.0526 -0.2581 -0.1905
  340loPI   PO4 5428   4.217   9.620   9.923 -0.1716  0.0797  0.1432
  340loPI   GL1 5429   4.254   9.535   9.492  0.0003 -0.1191 -0.2451
  340loPI   GL2 5430   4.135   9.233   9.363 -0.0195 -0.1577 -0.0930
  340loPI   C1A 5431   4.603   9.499   9.308 -0.1034  0.1236  0.1431
  340loPI   C2A 5432   4.788   9.477   8.943  0.0136  0.1543 -0.2380
  340loPI   C3A 5433   4.785   9.407   8.574 -0.1089 -0.0253 -0.2130
  340loPI   C4A 5434   4.837   9.197   8.227 -0.1550  0.3122  0.2291
  340loPI   C5A 5435   4.646   8.961   7.847  0.1538 -0.0783 -0.0727
  340loPI   C6A 5436   4.549   8.739   7.565 -0.1884 -0.1004 -0.0180
  340loPI   C1B 5437   4.269   9.260   8.876 -0.1257 -0.2080 -0.0236
  340loPI   C2B 5438   4.322   9.257   8.331  0.1943 -0.0522  0.2743
  340loPI   C3B 5439   4.221   9.253   7.941  0.1766 -0.2265 -0.1482
  340loPI   C4B 5440   4.150   8.994   7.591  0.0777  0.0907 -0.1008
  341loPI    C1 5441  17.103  15.158  10.423 -0.0767  0.0860 -0.1105
  341loPI    C2 5442  17.357  15.313  10.690  0.0146 -0.0430 -0.1217
  341loPI    C3 5443  17.436  14.960  10.520 -0.2447 -0.1548 -0.0161
  341loPI   PO4 5444  17.094  15.352  10.149  0.1447  0.0452  0.0506
  341loPI   GL1 5445  16.949  15.477   9.808 -0.3376  0.0640 -0.0252
  341loPI   GL2 5446  16.988  15.097   9.714 -0.1087  0.3616 -0.0985
  341loPI   C1A 5447  16.869  15.488   9.370 -0.2739 -0.0662 -0.0265
  341loPI   C2A 5448  16.758  15.798   9.062  0.3070  0.0652  0.1826
  341loPI   C3A 5449  16.831  16.063   8.677  0.1096 -0.2356  0.0315
  341loPI   C4A 5450  17.042  16.110   8.319  0.4354  0.1458 -0.1235
  341loPI   C5A 5451  17.276  15.993   7.990 -0.0101  0.1833 -0.1951
  341loPI   C6A 5452  17.347  15.862   7.548 -0.2767 -0.1567 -0.0959
  341loPI   C1B 5453  16.973  15.022   9.219 -0.2474  0.2943 -0.1738
  341loPI   C2B 5454  16.743  15.172   8.787 -0.0568 -0.2485  0.1832
  341loPI   C3B 5455  16.613  15.284   8.363 -0.0474 -0.1562 -0.1637
  341loPI   C4B 5456  16.583  15.690   8.334  0.1127  0.1182 -0.1198
  342loPI    C1 5457   7.481  12.993  10.292  0.0115  0.0314 -0.1740
  342loPI    C2 5458   7.799  12.772  10.192  0.0693 -0.0600  0.1966
  342loPI    C3 5459   7.445  12.597  10.255 -0.0681  0.0449 -0.2452
  342loPI   PO4 5460   7.585  13.242  10.143  0.0724  0.0743  0.0505
  342loPI   GL1 5461   7.484  13.329   9.679 -0.1603  0.0087  0.0499
  342loPI   GL2 5462   7.508  13.651   9.633 -0.4545  0.0339  0.1059
  342loPI   C1A 5463   7.886  13.298   9.492 -0.0078 -0.1216 -0.1714
  342loPI   C2A 5464   8.174  13.519   9.190  0.0731 -0.2045  0.1118
  342loPI   C3A 5465   8.173  13.463   8.779 -0.1255  0.2230  0.1010
  342loPI   C4A 5466   8.076  13.365   8.349 -0.0855 -0.2997 -0.1424
  342loPI   C5A 5467   8.290  13.150   8.015  0.4616 -0.0170 -0.0512
  342loPI   C6A 5468   8.483  12.782   7.887  0.0269 -0.1124  0.4843
  342loPI   C1B 5469   7.479  13.510   9.243  0.1442 -0.0652  0.1788
  342loPI   C2B 5470   7.708  13.349   9.004 -0.4447 -0.3736 -0.0171
  342loPI   C3B 5471   7.836  13.076   8.772 -0.2124 -0.0204 -0.1030
  342loPI   C4B 5472   7.728  12.728   8.669  0.1868  0.1419 -0.1311
  343loPI    C1 5473  16.979  17.154  10.158 -0.2033  0.0878  0.0060
  343loPI    C2 5474  16.797  17.495  10.262 -0.0873  0.1490  0.0092
  343loPI    C3 5475  16.884  17.222  10.541 -0.1693  0.1219  0.0083
  343loPI   PO4 5476  17.134  17.225   9.950  0.1446 -0.1576  0.0014
  343loPI   GL1 5477  17.061  17.226   9.508 -0.1789  0.1577 -0.0441
  343loPI   GL2 5478  17.350  17.088   9.530 -0.3318  0.2987  0.2149
  343loPI   C1A 5479  17.007  17.316   9.072 -0.0831  0.0062 -0.3216
  343loPI   C2A 5480  17.129  17.566   8.658 -0.1237 -0.0167 -0.1806
  343loPI   C3A 5481  17.234  17.618   8.301 -0.3875 -0.1038 -0.3774
  343loPI   C4A 5482  17.283  17.366   7.963  0.1086 -0.2208 -0.0546
  343loPI   C5A 5483  17.459  17.295   7.655  0.2338  0.3579  0.0659
  343loPI   C6A 5484  17.869  17.054   7.420  0.1486  0.0489  0.0231
  343loPI   C1B 5485  17.488  17.267   9.065  0.1958 -0.0797  0.1477
  343loPI   C2B 5486  17.757  17.553   8.810 -0.5927  0.4919 -0.1977
  343loPI   C3B 5487  17.962  17.535   8.456 -0.1895 -0.1577 -0.1246
  343loPI   C4B 5488  18.322  17.523   8.085 -0.1898  0.0000  0.2531
  344loPI    C1 5489   2.467  10.729   9.941  0.0809  0.0589 -0.0669
  344loPI    C2 5490   2.527  11.086  10.113 -0.0754  0.1298 -0.1572
  344loPI    C3 5491   2.668  10.754  10.286  0.4216  0.2708 -0.2734
  344loPI   PO4 5492   2.519  10.818   9.675 -0.0689 -0.0613  0.0262
  344loPI   GL1 5493   2.249  10.813   9.377 -0.1476 -0.4563  0.1274
  344loPI   GL2 5494   2.171  10.571   9.417 -0.0340  0.0516  0.1031
  344loPI   C1A 5495   2.469  10.877   9.051  0.0736  0.1222  0.1139
  344loPI   C2A 5496   2.632  10.884   8.559  0.1548 -0.0825 -0.3845
  344loPI   C3A 5497   2.678  11.198   8.340  0.0741 -0.2687 -0.2626
  344loPI   C4A 5498   2.903  11.034   8.014  0.2776  0.2169  0.1682
  344loPI   C5A 5499   3.159  11.077   7.678 -0.3050 -0.0335  0.2405
  344loPI   C6A 5500   3.396  11.083   7.287  0.0736  0.1143 -0.0612
  344loPI   C1B 5501   2.104  10.448   8.993  0.0705 -0.0573  0.2529
  344loPI   C2B 5502   2.262  10.563   8.590  0.0876  0.1572 -0.0032
  344loPI   C3B 5503   2.542  10.705   8.098  0.0554  0.0546 -0.1987
  344loPI   C4B 5504   2.861  10.599   7.768  0.3053  0.0579  0.0280
  345loPI    C1 5505  17.592   3.043   9.949 -0.0484  0.0476  0.0505
  345loPI    C2 5506  17.927   2.990  10.161 -0.0260  0.1293  0.0358
  345loPI    C3 5507  17.583   3.072  10.348 -0.0063  0.2003  0.0408
  345loPI   PO4 5508  17.561   2.883   9.724  0.1850  0.5443  0.0575
  345loPI   GL1 5509  17.668   2.557   9.476 -0.1901 -0.1182  0.2111
  345loPI   GL2 5510  17.903   2.514   9.292 -0.3085  0.0381 -0.0758
  345loPI   C1A 5511  17.449   2.555   9.090  0.5046  0.1568  0.2023
  345loPI   C2A 5512  17.463   2.553   8.629  0.1352  0.2520 -0.5012
  345loPI   C3A 5513  17.276   2.674   8.261  0.2952  0.0365 -0.0634
  345loPI   C4A 5514  16.993   2.683   7.930  0.4888 -0.0161 -0.1873
  345loPI   C5A 5515  16.740   2.781   7.581  0.2363 -0.1434 -0.0737
  345loPI   C6A 5516  16.522   3.031   7.198 -0.3616  0.0161  0.0857
  345loPI   C1B 5517  17.897   2.620   8.820 -0.0514  0.0498 -0.0470
  345loPI   C2B 5518  18.121   2.750   8.459 -0.0056  0.1057  0.0972
  345loPI   C3B 5519  18.204   2.602   8.014 -0.1686  0.2423 -0.1639
  345loPI   C4B 5520  18.590   2.419   7.769 -0.0933  0.1869 -0.3217
  346loPI    C1 5521   2.107  11.156   9.740  0.0588 -0.1155 -0.0455
  346loPI    C2 5522   2.036  10.967  10.085 -0.0492  0.1853  0.1016
  346loPI    C3 5523   1.890  10.820   9.743  0.0621 -0.1172  0.1798
  346loPI   PO4 5524   2.345  11.236   9.665  0.2114  0.0910  0.2415
  346loPI   GL1 5525   2.607  11.380   9.368  0.0136 -0.0512 -0.0813
  346loPI   GL2 5526   2.634  11.707   9.184 -0.0934  0.2668  0.0838
  346loPI   C1A 5527   2.697  11.255   8.855 -0.0738  0.0277  0.1757
  346loPI   C2A 5528   3.033  11.393   8.576 -0.0900  0.1010 -0.0871
  346loPI   C3A 5529   3.125  11.418   8.257 -0.1581  0.0653 -0.3540
  346loPI   C4A 5530   2.926  11.520   7.961  0.0838 -0.1354  0.2468
  346loPI   C5A 5531   2.602  11.361   7.785  0.0525 -0.1076 -0.0946
  346loPI   C6A 5532   2.163  11.321   7.653 -0.2426 -0.1161 -0.0223
  346loPI   C1B 5533   2.757  11.728   8.802  0.0897  0.0284  0.2459
  346loPI   C2B 5534   2.652  11.740   8.439  0.0644 -0.0573  0.2586
  346loPI   C3B 5535   2.455  11.687   8.097  0.0695  0.1050 -0.0903
  346loPI   C4B 5536   2.228  11.829   7.623 -0.0514  0.2226 -0.3120
  347loPI    C1 5537   5.140   5.079  10.225  0.0178  0.0946 -0.0092
  347loPI    C2 5538   5.124   5.089  10.625  0.2005  0.0558  0.0001
  347loPI    C3 5539   5.475   5.038  10.440  0.1012 -0.0462 -0.1633
  347loPI   PO4 5540   4.889   5.027  10.094 -0.1474  0.1010  0.4731
  347loPI   GL1 5541   4.953   4.655   9.727  0.0083 -0.1015  0.2061
  347loPI   GL2 5542   5.181   4.507   9.559  0.3035 -0.0042 -0.0094
  347loPI   C1A 5543   4.942   4.941   9.234  0.4541 -0.0003 -0.0101
  347loPI   C2A 5544   4.985   4.788   8.732 -0.0353 -0.2686  0.0401
  347loPI   C3A 5545   4.947   4.426   8.399 -0.0364 -0.0402  0.0403
  347loPI   C4A 5546   4.698   4.354   7.921  0.1002  0.2150 -0.4308
  347loPI   C5A 5547   4.325   4.380   7.653 -0.1131  0.0465  0.0107
  347loPI   C6A 5548   3.999   4.223   7.517 -0.2055 -0.0139 -0.1571
  347loPI   C1B 5549   5.092   4.497   9.117  0.1034  0.3811 -0.0426
  347loPI   C2B 5550   4.671   4.424   8.933  0.2904 -0.0619 -0.3073
  347loPI   C3B 5551   4.254   4.418   8.791 -0.1127  0.0132  0.0254
  347loPI   C4B 5552   3.848   4.328   8.503 -0.0678 -0.1638 -0.3769
  348loPI    C1 5553   0.998   5.056   9.551 -0.1783 -0.1564 -0.0157
  348loPI    C2 5554   1.036   5.214   9.917  0.0272 -0.2140 -0.0105
  348loPI    C3 5555   0.877   4.850   9.872 -0.0323 -0.1917  0.0175
  348loPI   PO4 5556   1.189   5.210   9.435 -0.1048 -0.2183  0.1899
  348loPI   GL1 5557   1.330   5.305   9.063 -0.0016  0.1093  0.1057
  348loPI   GL2 5558   1.079   5.568   9.028  0.0363  0.2401 -0.1424
  348loPI   C1A 5559   1.454   5.080   8.806 -0.2229  0.0313  0.1706
  348loPI   C2A 5560   1.345   5.119   8.390  0.1205 -0.0680 -0.5277
  348loPI   C3A 5561   1.049   5.304   8.157 -0.3505  0.2218 -0.1146
  348loPI   C4A 5562   0.964   5.378   7.745  0.0457 -0.0895  0.0540
  348loPI   C5A 5563   1.034   5.420   7.397 -0.3699 -0.2223 -0.0127
  348loPI   C6A 5564   1.106   5.294   6.920 -0.2557 -0.0863  0.0614
  348loPI   C1B 5565   1.092   5.671   8.564  0.0246 -0.1757 -0.0109
  348loPI   C2B 5566   0.999   5.825   8.060  0.0321 -0.2058 -0.0650
  348loPI   C3B 5567   1.377   5.770   7.691 -0.0835 -0.1388  0.1618
  348loPI   C4B 5568   1.836   5.726   7.829  0.0245 -0.5353 -0.2826
  349loPI    C1 5569   5.954   7.501  10.408 -0.0793 -0.1435  0.0519
  349loPI    C2 5570   5.688   7.768  10.275 -0.0295 -0.0793  0.0800
  349loPI    C3 5571   5.653   7.618  10.644  0.0342  0.0098  0.1226
  349loPI   PO4 5572   6.197   7.529  10.267  0.0782 -0.2230 -0.0462
  349loPI   GL1 5573   6.311   7.646   9.850  0.2024  0.1140  0.6462
  349loPI   GL2 5574   5.968   7.681   9.758  0.1447  0.0164 -0.0978
  349loPI   C1A 5575   6.335   7.893   9.503  0.0428  0.1563  0.0866
  349loPI   C2A 5576   6.408   7.872   9.090  0.1942  0.0466 -0.0832
  349loPI   C3A 5577   6.288   7.915   8.620  0.1339 -0.0660 -0.0031
  349loPI   C4A 5578   6.171   7.929   8.220  0.1992  0.2400 -0.1790
  349loPI   C5A 5579   6.046   8.170   7.894  0.4258  0.1286 -0.0002
  349loPI   C6A 5580   6.337   8.292   7.612 -0.1063  0.1102 -0.0598
  349loPI   C1B 5581   5.894   7.620   9.348  0.0120 -0.0383 -0.0413
  349loPI   C2B 5582   5.613   7.466   9.135  0.1155 -0.0557  0.0074
  349loPI   C3B 5583   5.537   7.429   8.765 -0.2816  0.1748 -0.1896
  349loPI   C4B 5584   5.614   7.496   8.353 -0.0611  0.0791 -0.0938
  350loPI    C1 5585  11.277   8.661  10.482 -0.0807  0.0358 -0.1629
  350loPI    C2 5586  11.493   8.367  10.318  0.0458  0.0192  0.0303
  350loPI    C3 5587  11.563   8.481  10.695 -0.0168  0.2829 -0.0353
  350loPI   PO4 5588  11.220   8.791  10.305  0.0776 -0.0598  0.2552
  350loPI   GL1 5589  11.154   8.625   9.873 -0.4706  0.1650  0.0387
  350loPI   GL2 5590  11.436   8.472   9.880  0.1900 -0.1402  0.0640
  350loPI   C1A 5591  10.990   8.427   9.502 -0.1047 -0.0594 -0.1870
  350loPI   C2A 5592  10.847   8.373   9.073 -0.0279  0.0068  0.0692
  350loPI   C3A 5593  10.747   8.510   8.701 -0.2122  0.1003 -0.1492
  350loPI   C4A 5594  10.635   8.325   8.340 -0.1131 -0.0725  0.0520
  350loPI   C5A 5595  10.527   8.212   7.925  0.1415 -0.1194  0.4209
  350loPI   C6A 5596  10.122   8.283   7.655 -0.1539 -0.0288  0.3922
  350loPI   C1B 5597  11.458   8.676   9.442 -0.1311  0.2546  0.1873
  350loPI   C2B 5598  11.287   8.833   9.089 -0.3165  0.2896 -0.2033
  350loPI   C3B 5599  11.101   8.889   8.725 -0.0409 -0.2470 -0.0669
  350loPI   C4B 5600  10.970   8.865   8.263  0.0613  0.3041 -0.0536
  351loPI    C1 5601  13.303  12.939  10.364 -0.0508  0.0742  0.0062
  351loPI    C2 5602  13.508  13.279  10.310 -0.1898  0.1621  0.0271
  351loPI    C3 5603  13.602  13.034  10.612  0.1484  0.0012 -0.2016
  351loPI   PO4 5604  13.268  12.728  10.127 -0.0360 -0.3031 -0.0712
  351loPI   GL1 5605  13.083  12.710   9.699  0.0572  0.2358 -0.1837
  351loPI   GL2 5606  13.073  12.865   9.343 -0.0828 -0.1492 -0.1256
  351loPI   C1A 5607  12.755  12.571   9.407  0.0361 -0.1851 -0.0750
  351loPI   C2A 5608  12.921  12.621   8.963 -0.4947 -0.2782  0.0286
  351loPI   C3A 5609  13.033  12.562   8.555 -0.1930 -0.1915  0.0154
  351loPI   C4A 5610  12.825  12.228   8.267 -0.1276  0.1879 -0.0800
  351loPI   C5A 5611  12.871  11.780   8.156  0.0523 -0.0554  0.1906
  351loPI   C6A 5612  12.659  11.438   7.840  0.2253 -0.2834 -0.1922
  351loPI   C1B 5613  12.968  13.101   8.942 -0.6541 -0.0389  0.0568
  351loPI   C2B 5614  12.961  13.109   8.546 -0.1958  0.0017 -0.2222
  351loPI   C3B 5615  13.017  12.827   8.135  0.0434  0.0419  0.0945
  351loPI   C4B 5616  12.977  12.465   7.805 -0.1868  0.0135 -0.1150
  352loPI    C1 5617   0.712  14.136  10.106  0.1267 -0.1244  0.1248
  352loPI    C2 5618   0.436  13.849  10.145 -0.1792  0.1747  0.2062
  352loPI    C3 5619   0.511  14.097  10.449  0.0750  0.1905  0.1327
  352loPI   PO4 5620   0.675  14.294   9.919  0.1755  0.1924  0.3135
  352loPI   GL1 5621   0.622  14.399   9.496 -0.1865 -0.0637  0.0280
  352loPI   GL2 5622   0.621  14.720   9.467 -0.1220 -0.0102 -0.2953
  352loPI   C1A 5623   0.886  14.278   9.166 -0.0854  0.1741 -0.1830
  352loPI   C2A 5624   1.030  14.233   8.764 -0.0420 -0.1605 -0.1341
  352loPI   C3A 5625   0.881  13.927   8.308 -0.0296 -0.0115  0.1839
  352loPI   C4A 5626   0.713  13.781   7.923 -0.0049 -0.1820  0.0837
  352loPI   C5A 5627   0.621  13.657   7.589 -0.1200 -0.0544 -0.0791
  352loPI   C6A 5628   0.881  13.325   7.466  0.0460 -0.3464  0.0762
  352loPI   C1B 5629   0.776  14.804   9.033 -0.2066  0.1098  0.0131
  352loPI   C2B 5630   0.855  14.829   8.539  0.0034 -0.0113 -0.2896
  352loPI   C3B 5631   0.949  15.061   8.201 -0.0269  0.0743  0.1908
  352loPI   C4B 5632   0.968  15.390   7.983  0.0308 -0.3376 -0.3598
  353loPI    C1 5633   2.385  18.049   9.974  0.0796 -0.0842  0.0778
  353loPI    C2 5634   2.703  17.833   9.865 -0.0202 -0.1470 -0.0932
  353loPI    C3 5635   2.708  18.232   9.826  0.1299 -0.1246  0.1373
  353loPI   PO4 5636   2.214  17.959   9.901  0.0831  0.0708 -0.2170
  353loPI   GL1 5637   2.010  17.873   9.524  0.0906  0.0022 -0.4556
  353loPI   GL2 5638   2.313  17.689   9.469 -0.1507  0.0007 -0.1402
  353loPI   C1A 5639   2.228  17.991   9.050 -0.2272  0.1762 -0.0564
  353loPI   C2A 5640   2.322  17.965   8.563 -0.3169  0.0825  0.0562
  353loPI   C3A 5641   2.427  17.991   8.148 -0.2145  0.0192  0.0231
  353loPI   C4A 5642   2.368  18.064   7.760  0.0646 -0.2084 -0.4698
  353loPI   C5A 5643   2.360  18.362   7.416  0.1551 -0.1010 -0.0081
  353loPI   C6A 5644   2.547  18.586   7.055  0.0541 -0.1516  0.0965
  353loPI   C1B 5645   2.659  17.767   9.290 -0.0919 -0.0993 -0.2487
  353loPI   C2B 5646   2.746  17.954   8.938 -0.0118  0.1286 -0.3004
  353loPI   C3B 5647   2.795  18.098   8.472 -0.2483  0.3567  0.1407
  353loPI   C4B 5648   2.848  18.335   8.095  0.0358  0.3259 -0.1548
  354loPI    C1 5649   2.072  12.005  10.042  0.3592  0.0555  0.0743
  354loPI    C2 5650   1.759  11.873  10.254  0.1171  0.2292 -0.1684
  354loPI    C3 5651   2.123  11.882  10.420  0.0286 -0.1426  0.0586
  354loPI   PO4 5652   1.966  12.208   9.730  0.1138  0.0902 -0.2744
  354loPI   GL1 5653   1.757  11.991   9.378  0.0705  0.2878  0.1122
  354loPI   GL2 5654   1.769  11.701   9.313 -0.0096 -0.3028 -0.3552
  354loPI   C1A 5655   1.571  12.428   9.072  0.0497 -0.0874 -0.1082
  354loPI   C2A 5656   1.354  12.760   8.776  0.2449  0.0138 -0.1954
  354loPI   C3A 5657   1.370  12.846   8.326  0.0832 -0.2391  0.1175
  354loPI   C4A 5658   1.258  12.843   7.933 -0.1358  0.6187 -0.2918
  354loPI   C5A 5659   1.141  12.895   7.405  0.0550  0.0057  0.0607
  354loPI   C6A 5660   1.411  13.134   7.147 -0.0921 -0.3590 -0.1324
  354loPI   C1B 5661   1.747  11.919   8.856  0.0140 -0.0919  0.0172
  354loPI   C2B 5662   1.724  11.885   8.573 -0.0324 -0.1279  0.2263
  354loPI   C3B 5663   1.621  11.920   8.200 -0.0248 -0.2577  0.0306
  354loPI   C4B 5664   1.711  12.030   7.771  0.2730 -0.1107  0.0178
  355loPI    C1 5665   1.229  13.682   9.760  0.0698  0.0163 -0.1212
  355loPI    C2 5666   1.086  13.971   9.523  0.0196  0.1525  0.0724
  355loPI    C3 5667   1.152  14.044   9.911  0.1350 -0.0577  0.0943
  355loPI   PO4 5668   1.383  13.540   9.647 -0.0483 -0.2035 -0.1094
  355loPI   GL1 5669   1.407  13.519   9.231 -0.4358 -0.0934 -0.2199
  355loPI   GL2 5670   1.584  13.078   9.148  0.1757  0.1252  0.1249
  355loPI   C1A 5671   1.078  13.743   9.041 -0.0642  0.1230 -0.2182
  355loPI   C2A 5672   0.698  13.537   8.766 -0.0691 -0.0702 -0.4588
  355loPI   C3A 5673   0.620  13.445   8.309  0.3764  0.0728  0.0452
  355loPI   C4A 5674   0.386  13.370   8.007 -0.0460  0.0088 -0.1539
  355loPI   C5A 5675   0.201  13.353   7.699 -0.0468  0.2328  0.1123
  355loPI   C6A 5676  -0.101  13.477   7.517  0.2225 -0.0582 -0.2944
  355loPI   C1B 5677   1.656  13.126   8.696  0.0888 -0.0343  0.1012
  355loPI   C2B 5678   1.638  13.229   8.183  0.1371 -0.0296  0.2075
  355loPI   C3B 5679   1.743  12.980   7.805 -0.2267 -0.0284 -0.2980
  355loPI   C4B 5680   1.949  13.109   7.462  0.3740  0.4158  0.1316
  356loPI    C1 5681   2.594   2.837  10.480  0.0751 -0.0465  0.0284
  356loPI    C2 5682   2.679   3.172  10.680 -0.0308 -0.0210  0.0314
  356loPI    C3 5683   2.707   2.818  10.863  0.0927 -0.0151  0.0248
  356loPI   PO4 5684   2.773   2.909  10.233 -0.2837 -0.0870  0.3353
  356loPI   GL1 5685   2.791   2.816   9.750 -0.2721 -0.0347  0.0133
  356loPI   GL2 5686   2.527   2.981   9.805 -0.0240 -0.3464 -0.1113
  356loPI   C1A 5687   2.926   2.967   9.361 -0.0265  0.1095 -0.0802
  356loPI   C2A 5688   3.217   3.069   9.067  0.0638 -0.1547 -0.0053
  356loPI   C3A 5689   3.398   2.963   8.653  0.0667  0.0677 -0.1492
  356loPI   C4A 5690   3.374   2.923   8.284  0.1668  0.0781  0.1910
  356loPI   C5A 5691   3.450   3.003   7.879 -0.0698 -0.0968  0.0942
  356loPI   C6A 5692   3.675   2.745   7.509 -0.1640 -0.1265 -0.0826
  356loPI   C1B 5693   2.442   2.788   9.395 -0.2928  0.0216  0.0342
  356loPI   C2B 5694   2.456   2.706   9.073  0.1217  0.0007  0.2127
  356loPI   C3B 5695   2.440   2.814   8.555  0.0497  0.0026  0.0567
  356loPI   C4B 5696   2.170   2.766   8.158  0.2511 -0.1171  0.2919
  357loPI    C1 5697   1.186  14.550  10.164 -0.2145 -0.0376  0.0028
  357loPI    C2 5698   1.273  14.546  10.554 -0.0052 -0.1152 -0.0436
  357loPI    C3 5699   1.228  14.201  10.356  0.1475 -0.0791 -0.1432
  357loPI   PO4 5700   1.381  14.628  10.012  0.1779  0.2173  0.1993
  357loPI   GL1 5701   1.419  14.424   9.571  0.2400 -0.0136  0.1098
  357loPI   GL2 5702   1.149  14.504   9.573  0.0326  0.4158  0.0537
  357loPI   C1A 5703   1.349  14.539   8.953  0.0666 -0.3120 -0.0385
  357loPI   C2A 5704   1.288  14.601   8.487 -0.0090 -0.0683  0.2899
  357loPI   C3A 5705   1.192  14.674   7.935  0.0073 -0.0647  0.2113
  357loPI   C4A 5706   1.415  14.385   7.637 -0.0187 -0.2236  0.1714
  357loPI   C5A 5707   1.729  14.287   7.402 -0.0896 -0.2798  0.0671
  357loPI   C6A 5708   2.244  14.370   7.433 -0.3019  0.2696  0.1867
  357loPI   C1B 5709   1.147  14.812   9.417 -0.1518 -0.1471  0.0620
  357loPI   C2B 5710   1.243  15.009   8.998 -0.0118  0.0312  0.2056
  357loPI   C3B 5711   1.282  15.145   8.655  0.2692  0.2263  0.1539
  357loPI   C4B 5712   1.463  15.147   8.234 -0.0839  0.0405  0.1497
  358loPI    C1 5713  10.038   5.090  10.425  0.0235 -0.1065 -0.1038
  358loPI    C2 5714  10.165   5.412  10.626 -0.1304 -0.0060 -0.1658
  358loPI    C3 5715  10.267   5.045  10.750 -0.0811  0.0610 -0.0057
  358loPI   PO4 5716   9.932   5.162  10.221 -0.1337 -0.0510  0.0313
  358loPI   GL1 5717  10.114   5.023   9.871 -0.0409 -0.1817  0.1832
  358loPI   GL2 5718  10.131   4.724   9.739  0.2079  0.4460 -0.2981
  358loPI   C1A 5719  10.118   5.198   9.517  0.1662 -0.1846 -0.0112
  358loPI   C2A 5720   9.987   5.393   9.123 -0.0516 -0.0674  0.0922
  358loPI   C3A 5721   9.860   5.413   8.807 -0.2068  0.0632 -0.0072
  358loPI   C4A 5722   9.833   5.381   8.444  0.1117 -0.1084 -0.0938
  358loPI   C5A 5723   9.696   5.163   8.124  0.0239  0.0269  0.0324
  358loPI   C6A 5724   9.910   4.841   7.797 -0.2695  0.0081 -0.3668
  358loPI   C1B 5725  10.145   4.497   9.278 -0.1771  0.2594 -0.1419
  358loPI   C2B 5726  10.419   4.598   8.834  0.0194  0.6103  0.0370
  358loPI   C3B 5727  10.226   4.622   8.437 -0.0088  0.1154 -0.4202
  358loPI   C4B 5728   9.874   4.734   8.292  0.1329 -0.1864  0.4041
  359loPI    C1 5729  14.800  12.775  10.372  0.0945 -0.3000  0.3083
  359loPI    C2 5730  15.188  12.714  10.296  0.1070 -0.1238  0.2245
  359loPI    C3 5731  15.078  12.916  10.623  0.0879 -0.1206  0.2163
  359loPI   PO4 5732  14.676  12.898  10.152 -0.2916  0.4743 -0.1056
  359loPI   GL1 5733  14.525  12.745   9.678  0.1508 -0.0593  0.0274
  359loPI   GL2 5734  14.497  12.595   9.468 -0.0379  0.2309  0.0156
  359loPI   C1A 5735  14.261  13.052   9.437 -0.2075  0.3541 -0.0458
  359loPI   C2A 5736  14.017  13.071   9.130 -0.1215 -0.1984 -0.0292
  359loPI   C3A 5737  13.879  13.144   8.721 -0.2450 -0.1823 -0.3819
  359loPI   C4A 5738  13.808  13.095   8.269 -0.0841 -0.1901  0.0059
  359loPI   C5A 5739  13.457  13.157   7.980  0.1474 -0.1814 -0.0658
  359loPI   C6A 5740  13.195  13.261   7.664  0.3150 -0.0578 -0.0188
  359loPI   C1B 5741  14.659  12.864   9.103 -0.1029 -0.1947  0.0828
  359loPI   C2B 5742  14.788  12.957   8.618  0.1784  0.4709 -0.0577
  359loPI   C3B 5743  14.702  12.749   8.194 -0.1099  0.1888  0.0659
  359loPI   C4B 5744  14.509  12.474   7.906  0.1113 -0.1346  0.1912
  360loPI    C1 5745   7.354  18.569  11.062  0.1490  0.0921  0.0296
  360loPI    C2 5746   7.099  18.874  11.021  0.1513  0.0752 -0.1156
  360loPI    C3 5747   7.275  18.806  11.374 -0.0796  0.0590 -0.0017
  360loPI   PO4 5748   7.293  18.419  10.815 -0.0658  0.4423  0.0419
  360loPI   GL1 5749   7.366  18.507  10.331 -0.0086  0.3385 -0.1024
  360loPI   GL2 5750   7.612  18.275  10.399  0.0793  0.1352 -0.1783
  360loPI   C1A 5751   7.458  18.630   9.931  0.1176 -0.0550  0.3015
  360loPI   C2A 5752   7.270  18.490   9.490 -0.2422  0.2910  0.0091
  360loPI   C3A 5753   7.252  18.528   9.078 -0.1813  0.1068  0.0152
  360loPI   C4A 5754   7.232  18.464   8.718  0.0548  0.2491 -0.1497
  360loPI   C5A 5755   7.279  18.638   8.360  0.1841 -0.1206 -0.0872
  360loPI   C6A 5756   7.632  18.681   8.247  0.0140  0.1381 -0.2680
  360loPI   C1B 5757   7.727  18.156  10.017 -0.1182  0.1124 -0.0109
  360loPI   C2B 5758   7.649  18.128   9.653  0.3097  0.1247  0.0469
  360loPI   C3B 5759   7.680  18.178   9.231  0.2284 -0.0784 -0.1314
  360loPI   C4B 5760   7.441  18.040   8.893 -0.0932 -0.2748  0.2121
  361loPI    C1 5761  13.416  11.373  10.335  0.1233  0.0857  0.0519
  361loPI    C2 5762  13.315  11.137  10.642 -0.1045  0.1261  0.0097
  361loPI    C3 5763  13.449  11.507  10.710 -0.0762  0.1058  0.0639
  361loPI   PO4 5764  13.191  11.268  10.094 -0.0995  0.1252  0.2169
  361loPI   GL1 5765  12.878  11.244   9.841  0.3139  0.0823  0.0303
  361loPI   GL2 5766  12.575  11.152   9.925 -0.0693 -0.0408  0.1807
  361loPI   C1A 5767  13.093  11.262   9.424 -0.0239  0.2436 -0.4031
  361loPI   C2A 5768  13.097  11.193   8.918 -0.2013 -0.2088  0.0603
  361loPI   C3A 5769  13.049  10.951   8.603 -0.2693  0.1423  0.0384
  361loPI   C4A 5770  13.343  10.691   8.314  0.0722 -0.1393  0.2756
  361loPI   C5A 5771  13.374  10.260   8.195  0.1695 -0.3433  0.2166
  361loPI   C6A 5772  13.111   9.938   8.101 -0.0355  0.0292  0.1001
  361loPI   C1B 5773  12.682  11.009   9.459 -0.0622 -0.2248 -0.3042
  361loPI   C2B 5774  12.632  11.203   9.182  0.2678 -0.1009 -0.1601
  361loPI   C3B 5775  12.471  11.273   8.797  0.0030  0.3904 -0.0336
  361loPI   C4B 5776  12.666  11.239   8.460 -0.1477  0.0191  0.0617
  362loPI    C1 5777   9.176  16.497  10.363 -0.2735 -0.0631 -0.0067
  362loPI    C2 5778   9.151  16.185  10.114  0.0760  0.0611 -0.2044
  362loPI    C3 5779   9.425  16.186  10.406  0.0701  0.1793 -0.1990
  362loPI   PO4 5780   8.983  16.718  10.150  0.0588  0.0562  0.0380
  362loPI   GL1 5781   9.028  16.957   9.841  0.1259  0.0769 -0.3486
  362loPI   GL2 5782   9.306  16.937   9.788 -0.4246 -0.1145  0.1488
  362loPI   C1A 5783   8.977  17.125   9.425  0.2474 -0.0079  0.0401
  362loPI   C2A 5784   9.303  17.091   9.225  0.0840  0.3187  0.0438
  362loPI   C3A 5785   9.526  17.365   8.846 -0.1257 -0.2001  0.1050
  362loPI   C4A 5786   9.692  17.742   8.871  0.0363  0.0677 -0.3321
  362loPI   C5A 5787   9.616  18.080   9.155 -0.0226  0.1802  0.0589
  362loPI   C6A 5788   9.893  18.378   9.319  0.1088  0.1570 -0.0483
  362loPI   C1B 5789   9.415  16.649   9.440 -0.2062  0.1633 -0.0292
  362loPI   C2B 5790   9.386  16.687   9.004 -0.2076 -0.0956  0.0224
  362loPI   C3B 5791   9.265  16.931   8.679  0.0377 -0.0211  0.1807
  362loPI   C4B 5792   9.184  16.966   8.278 -0.0873  0.2491 -0.0924
  363loPI    C1 5793  10.270   9.993  10.193 -0.2562  0.1632 -0.1305
  363loPI    C2 5794  10.176  10.171  10.539  0.2408 -0.3099  0.2658
  363loPI    C3 5795  10.538  10.226  10.378  0.1342 -0.3701  0.0001
  363loPI   PO4 5796  10.074   9.914  10.098  0.3414  0.3024  0.1538
  363loPI   GL1 5797   9.989  10.134   9.718  0.1418 -0.1910 -0.0697
  363loPI   GL2 5798   9.930   9.792   9.632  0.0790  0.0295 -0.0196
  363loPI   C1A 5799  10.059  10.134   9.292  0.0436  0.3732 -0.1685
  363loPI   C2A 5800  10.020  10.135   8.853  0.0964 -0.3980  0.1906
  363loPI   C3A 5801   9.999  10.071   8.461 -0.0546 -0.0829 -0.0769
  363loPI   C4A 5802   9.680   9.914   8.187 -0.0778  0.1453 -0.1408
  363loPI   C5A 5803   9.485   9.850   7.845  0.0094 -0.2734  0.0027
  363loPI   C6A 5804   9.002   9.911   7.727 -0.1504  0.3523  0.1478
  363loPI   C1B 5805  10.107   9.412   9.392 -0.1215  0.1748 -0.1483
  363loPI   C2B 5806  10.264   9.271   9.012  0.0359  0.2374  0.0795
  363loPI   C3B 5807  10.520   9.276   8.679  0.0220  0.1573 -0.0776
  363loPI   C4B 5808  10.540   9.295   8.246  0.0722  0.0712 -0.1100
  364loPI    C1 5809   8.945  15.347  10.325  0.0833  0.1911 -0.2635
  364loPI    C2 5810   8.815  15.500  10.671  0.0894  0.1051 -0.2228
  364loPI    C3 5811   9.190  15.365  10.641  0.0516 -0.0002 -0.2266
  364loPI   PO4 5812   8.854  15.568  10.178 -0.0578 -0.1958  0.3195
  364loPI   GL1 5813   9.021  15.839   9.810  0.1935  0.1350 -0.0928
  364loPI   GL2 5814   9.147  15.576   9.725 -0.1928  0.0172  0.0026
  364loPI   C1A 5815   8.769  16.001   9.444  0.0505 -0.0486  0.1139
  364loPI   C2A 5816   8.845  16.082   8.987  0.2446  0.2286 -0.0886
  364loPI   C3A 5817   8.773  16.027   8.599 -0.1372  0.3339  0.0719
  364loPI   C4A 5818   8.857  16.233   8.121  0.0553 -0.1226 -0.1088
  364loPI   C5A 5819   8.626  16.445   7.917  0.0139  0.0057  0.2577
  364loPI   C6A 5820   8.426  16.765   8.092  0.6310  0.0071 -0.0265
  364loPI   C1B 5821   9.217  15.755   9.281  0.0639 -0.2857  0.1040
  364loPI   C2B 5822   9.199  15.782   8.809  0.1914 -0.0953  0.0020
  364loPI   C3B 5823   9.126  15.904   8.301  0.0667  0.1979  0.1305
  364loPI   C4B 5824   9.051  15.499   7.999 -0.0763 -0.0125 -0.1338
  365loPI    C1 5825   0.169   2.899   9.724 -0.0708  0.2370 -0.0218
  365loPI    C2 5826   0.471   3.091   9.545  0.0873 -0.1082 -0.1338
  365loPI    C3 5827   0.094   3.164   9.434  0.1466  0.1104 -0.1967
  365loPI   PO4 5828   0.265   2.572   9.708  0.1448  0.0249 -0.1230
  365loPI   GL1 5829   0.506   2.543   9.408  0.0953  0.0095  0.1312
  365loPI   GL2 5830   0.256   2.709   9.156 -0.2197 -0.0977  0.2136
  365loPI   C1A 5831   0.775   2.265   9.106  0.1000 -0.0735 -0.0611
  365loPI   C2A 5832   0.847   2.215   8.675  0.1262  0.0465 -0.2083
  365loPI   C3A 5833   0.648   2.023   8.397 -0.2577  0.0442  0.2834
  365loPI   C4A 5834   0.569   2.197   8.063  0.2727 -0.1587  0.0248
  365loPI   C5A 5835   0.456   2.651   7.948 -0.1088  0.1002 -0.0778
  365loPI   C6A 5836   0.389   3.081   7.805  0.0688 -0.2931 -0.0970
  365loPI   C1B 5837   0.376   2.428   8.868 -0.0966  0.1152 -0.2626
  365loPI   C2B 5838   0.322   2.403   8.416 -0.1421 -0.0806 -0.1990
  365loPI   C3B 5839   0.076   2.735   8.224  0.1931 -0.2184 -0.3013
  365loPI   C4B 5840  -0.171   3.147   8.104  0.0942  0.1411  0.0741
  366loPI    C1 5841  11.159  12.126  10.795  0.2454 -0.0143 -0.0576
  366loPI    C2 5842  11.460  12.382  10.730  0.0543  0.2367  0.0311
  366loPI    C3 5843  11.152  12.490  10.961  0.0955 -0.1697  0.2865
  366loPI   PO4 5844  11.268  11.985  10.536  0.1995 -0.1287  0.0792
  366loPI   GL1 5845  10.926  12.006  10.169 -0.2217 -0.1961  0.1030
  366loPI   GL2 5846  11.013  11.679  10.096 -0.2742  0.1812 -0.0556
  366loPI   C1A 5847  10.936  12.060   9.737  0.1457 -0.2989  0.1133
  366loPI   C2A 5848  10.991  11.946   9.272 -0.1202 -0.2225  0.0255
  366loPI   C3A 5849  11.143  11.774   8.918 -0.0045  0.0037 -0.0641
  366loPI   C4A 5850  11.140  11.779   8.460  0.1809  0.1931  0.2356
  366loPI   C5A 5851  10.988  11.994   8.085 -0.1824 -0.2841  0.1335
  366loPI   C6A 5852  10.983  12.372   7.892  0.0143 -0.0112 -0.3087
  366loPI   C1B 5853  10.986  11.525   9.687  0.0460  0.1082 -0.1020
  366loPI   C2B 5854  10.941  11.442   9.382 -0.0906  0.2761 -0.0579
  366loPI   C3B 5855  10.975  11.272   9.004  0.1703  0.0574 -0.1073
  366loPI   C4B 5856  10.935  11.180   8.614 -0.1117  0.1716 -0.1587
  367loPI    C1 5857   1.100   3.835  10.071 -0.0177  0.0024 -0.2028
  367loPI    C2 5858   1.187   3.451  10.145  0.0450  0.0241 -0.1636
  367loPI    C3 5859   1.167   3.714  10.446  0.3145  0.1154 -0.2225
  367loPI   PO4 5860   1.282   3.918   9.929 -0.2923 -0.0061  0.1940
  367loPI   GL1 5861   1.352   3.828   9.488 -0.1723  0.0193  0.2167
  367loPI   GL2 5862   1.567   3.789   9.298 -0.0183 -0.0214 -0.2022
  367loPI   C1A 5863   1.094   3.873   9.116 -0.1806  0.1545  0.0263
  367loPI   C2A 5864   0.830   3.850   8.762  0.3512  0.0406  0.2653
  367loPI   C3A 5865   0.455   3.646   8.539 -0.0194  0.2644 -0.1020
  367loPI   C4A 5866   0.159   3.247   8.427 -0.1029  0.1584  0.0658
  367loPI   C5A 5867  -0.147   2.997   8.655  0.2940  0.2168  0.0983
  367loPI   C6A 5868  -0.412   2.945   9.003  0.0888 -0.0065  0.0237
  367loPI   C1B 5869   1.619   4.085   8.975 -0.1216  0.1509 -0.1126
  367loPI   C2B 5870   1.259   4.193   8.648  0.0675  0.1165 -0.1993
  367loPI   C3B 5871   1.239   4.203   8.301 -0.1849  0.1296  0.0096
  367loPI   C4B 5872   1.166   4.303   7.881 -0.0875  0.3208  0.1967
  368loPI    C1 5873  14.125   9.313  10.095 -0.0681 -0.2084  0.2127
  368loPI    C2 5874  14.062   9.335  10.489 -0.0730 -0.1894  0.2110
  368loPI    C3 5875  14.432   9.380  10.343 -0.1013  0.0081  0.1976
  368loPI   PO4 5876  13.992   9.131   9.902  0.0335 -0.2109 -0.4063
  368loPI   GL1 5877  14.119   9.113   9.454  0.3587 -0.2173 -0.1680
  368loPI   GL2 5878  13.752   9.187   9.410 -0.1381  0.0800  0.0822
  368loPI   C1A 5879  14.024   8.829   8.989 -0.2906 -0.0484  0.0448
  368loPI   C2A 5880  13.966   8.628   8.606  0.0966 -0.0730 -0.5137
  368loPI   C3A 5881  13.928   8.717   8.202 -0.0627 -0.2901  0.1397
  368loPI   C4A 5882  13.471   8.861   8.177 -0.0723 -0.0024  0.3321
  368loPI   C5A 5883  13.114   8.813   8.256 -0.0145  0.1647 -0.0373
  368loPI   C6A 5884  12.800   8.571   7.990  0.0847  0.1300 -0.0125
  368loPI   C1B 5885  13.842   9.260   8.978  0.0524 -0.0508  0.0914
  368loPI   C2B 5886  13.806   9.175   8.513  0.0583 -0.1407  0.1140
  368loPI   C3B 5887  13.727   9.339   8.186 -0.0928  0.1811  0.2313
  368loPI   C4B 5888  13.870   9.435   7.681 -0.0995 -0.0928  0.0369
  369loPI    C1 5889  12.377  10.878  10.493 -0.0847 -0.0447  0.0770
  369loPI    C2 5890  12.291  10.525  10.660  0.1279 -0.1244  0.0212
  369loPI    C3 5891  12.670  10.653  10.646  0.0368  0.1721  0.1686
  369loPI   PO4 5892  12.293  10.863  10.225  0.1724  0.1278 -0.0947
  369loPI   GL1 5893  11.984  10.983   9.933  0.0325 -0.2491  0.0955
  369loPI   GL2 5894  11.704  10.745   9.979 -0.2750  0.1910  0.4098
  369loPI   C1A 5895  12.140  11.085   9.629 -0.0042  0.0031 -0.0782
  369loPI   C2A 5896  12.190  10.915   9.338 -0.0357 -0.1296  0.1818
  369loPI   C3A 5897  12.578  10.692   9.145  0.0409 -0.1539 -0.4649
  369loPI   C4A 5898  12.990  10.726   9.169 -0.1180 -0.1531  0.1398
  369loPI   C5A 5899  13.377  10.841   9.022 -0.4244  0.1158 -0.1185
  369loPI   C6A 5900  13.710  10.703   8.763  0.2118  0.1778 -0.3462
  369loPI   C1B 5901  11.667  10.815   9.532 -0.2187  0.3590 -0.2678
  369loPI   C2B 5902  11.761  10.709   9.132 -0.2441  0.2794 -0.0348
  369loPI   C3B 5903  11.679  10.647   8.731  0.0551  0.1010 -0.1997
  369loPI   C4B 5904  11.639  10.629   8.289  0.1241 -0.0149  0.1297
  370loPI    C1 5905   3.350   7.115   9.652 -0.0452 -0.1676 -0.0109
  370loPI    C2 5906   3.443   7.130  10.041 -0.0575  0.1361 -0.0171
  370loPI    C3 5907   3.609   7.390   9.786 -0.0190 -0.0872 -0.2232
  370loPI   PO4 5908   3.075   7.069   9.640 -0.1513  0.0556 -0.0101
  370loPI   GL1 5909   2.714   7.258   9.345 -0.1022  0.3444 -0.0521
  370loPI   GL2 5910   2.765   6.961   9.288 -0.2280 -0.0883  0.0511
  370loPI   C1A 5911   2.845   7.457   8.923  0.1999 -0.0540 -0.0721
  370loPI   C2A 5912   2.882   7.670   8.569 -0.1831  0.2021  0.0014
  370loPI   C3A 5913   2.797   7.586   8.195 -0.1044 -0.0736  0.0624
  370loPI   C4A 5914   2.680   7.557   7.749  0.1008 -0.3533  0.1023
  370loPI   C5A 5915   2.406   7.400   7.390 -0.1144 -0.0640  0.1955
  370loPI   C6A 5916   2.218   6.943   7.309 -0.0418 -0.0866 -0.0499
  370loPI   C1B 5917   2.584   6.652   9.017 -0.2071  0.3975  0.1768
  370loPI   C2B 5918   2.878   6.353   8.750  0.0648 -0.1843 -0.0200
  370loPI   C3B 5919   2.949   6.216   8.356 -0.2191 -0.2117  0.0773
  370loPI   C4B 5920   3.113   6.286   7.969  0.2102 -0.0279  0.1344
  371loPI    C1 5921  12.879  15.740  10.692 -0.1256  0.1516 -0.0430
  371loPI    C2 5922  12.675  15.501  10.939 -0.1339  0.0268 -0.1693
  371loPI    C3 5923  13.065  15.437  10.874 -0.1467  0.0185 -0.2391
  371loPI   PO4 5924  12.819  15.700  10.455  0.1491 -0.2964 -0.0569
  371loPI   GL1 5925  12.725  16.052  10.176  0.1170  0.3094 -0.1330
  371loPI   GL2 5926  12.430  15.933  10.159  0.1174 -0.1468  0.0691
  371loPI   C1A 5927  12.712  16.433   9.971  0.2566  0.2087 -0.5008
  371loPI   C2A 5928  12.557  16.510   9.540  0.1700 -0.5161  0.0394
  371loPI   C3A 5929  12.354  16.747   9.255 -0.1670 -0.2453  0.1347
  371loPI   C4A 5930  12.278  16.699   8.806  0.0050  0.1839 -0.2455
  371loPI   C5A 5931  12.303  16.590   8.350 -0.2342  0.1493  0.0253
  371loPI   C6A 5932  12.275  16.306   7.856  0.1785  0.0571  0.2407
  371loPI   C1B 5933  12.497  16.046   9.705  0.0604  0.3295 -0.1949
  371loPI   C2B 5934  12.413  16.005   9.345  0.1137  0.0764 -0.2290
  371loPI   C3B 5935  12.470  15.896   8.845  0.0517 -0.2825 -0.1561
  371loPI   C4B 5936  12.627  16.215   8.515 -0.2155  0.1679 -0.0863
  372loPI    C1 5937   3.839   0.007  10.132 -0.1382  0.0554  0.0088
  372loPI    C2 5938   4.060  -0.047  10.461 -0.1450  0.2189  0.0410
  372loPI    C3 5939   3.752  -0.290  10.385  0.1038 -0.0732 -0.0556
  372loPI   PO4 5940   3.755   0.278  10.159 -0.1337  0.1770  0.2207
  372loPI   GL1 5941   3.652   0.560   9.758  0.0289 -0.0138 -0.0095
  372loPI   GL2 5942   3.400   0.722   9.744 -0.2149  0.1677 -0.1207
  372loPI   C1A 5943   3.934   0.572   9.506 -0.0688 -0.1283 -0.0062
  372loPI   C2A 5944   4.131   0.636   9.068 -0.0437  0.0456  0.0414
  372loPI   C3A 5945   4.143   0.754   8.549  0.1866 -0.1189  0.2430
  372loPI   C4A 5946   4.240   0.641   8.096 -0.1094 -0.0763 -0.1673
  372loPI   C5A 5947   4.468   0.295   7.978 -0.1405  0.0136 -0.0315
  372loPI   C6A 5948   4.874   0.099   7.919 -0.1014 -0.1338 -0.2330
  372loPI   C1B 5949   3.366   0.621   9.356 -0.1209 -0.0641 -0.1105
  372loPI   C2B 5950   3.223   0.485   8.991  0.1014  0.3068  0.1116
  372loPI   C3B 5951   3.145   0.473   8.575 -0.0847  0.1742  0.2827
  372loPI   C4B 5952   3.203   0.490   8.165  0.2133  0.0827  0.0924
  373loPI    C1 5953   2.952  13.133  10.231  0.0387 -0.1156  0.0809
  373loPI    C2 5954   2.617  13.101  10.447  0.0123  0.0140  0.0600
  373loPI    C3 5955   2.938  13.282  10.602  0.1223 -0.2412  0.1350
  373loPI   PO4 5956   2.964  12.857  10.096  0.1014 -0.3460 -0.2385
  373loPI   GL1 5957   2.904  12.635   9.688  0.0655  0.1023 -0.3280
  373loPI   GL2 5958   3.137  12.825   9.490 -0.1803 -0.0949  0.1037
  373loPI   C1A 5959   2.845  12.374   9.363  0.0332  0.1397  0.3779
  373loPI   C2A 5960   2.819  12.240   8.862  0.1900 -0.5600 -0.0280
  373loPI   C3A 5961   2.750  12.235   8.446 -0.3283 -0.3309  0.0647
  373loPI   C4A 5962   2.679  12.193   8.050  0.0543  0.2304 -0.1240
  373loPI   C5A 5963   2.725  11.852   7.683 -0.3259  0.0406  0.0236
  373loPI   C6A 5964   2.944  11.632   7.471  0.1279 -0.0630  0.0976
  373loPI   C1B 5965   3.007  12.790   9.047 -0.1840 -0.2373  0.2857
  373loPI   C2B 5966   2.861  12.755   8.603  0.0627  0.0686 -0.1361
  373loPI   C3B 5967   2.816  12.734   8.158 -0.1274 -0.1803  0.1804
  373loPI   C4B 5968   2.835  12.732   7.825  0.0909 -0.0470 -0.0034
  374loPI    C1 5969   1.864  16.520  10.057  0.0096  0.0447  0.1314
  374loPI    C2 5970   1.913  16.742  10.387  0.0006 -0.1654  0.2764
  374loPI    C3 5971   1.799  16.360  10.418 -0.1445 -0.1457  0.0210
  374loPI   PO4 5972   1.696  16.646   9.828 -0.0223  0.0022 -0.0046
  374loPI   GL1 5973   1.699  16.702   9.445  0.3643  0.0009 -0.1355
  374loPI   GL2 5974   2.158  16.685   9.567 -0.1793  0.1814 -0.0622
  374loPI   C1A 5975   1.691  16.646   8.992 -0.1950  0.0221  0.4026
  374loPI   C2A 5976   1.748  16.469   8.640  0.3818 -0.0254  0.1392
  374loPI   C3A 5977   1.787  16.303   8.286 -0.1655  0.0849  0.1201
  374loPI   C4A 5978   1.799  16.191   7.851  0.0847 -0.0350 -0.1176
  374loPI   C5A 5979   1.356  16.211   7.595 -0.1937  0.1740  0.2789
  374loPI   C6A 5980   0.982  16.036   7.538  0.2084  0.1788  0.3701
  374loPI   C1B 5981   2.114  16.496   9.193 -0.1358 -0.2522  0.3688
  374loPI   C2B 5982   2.090  16.220   8.894  0.0953  0.1681 -0.1314
  374loPI   C3B 5983   1.958  15.942   8.613  0.1298  0.1421 -0.0569
  374loPI   C4B 5984   2.151  15.880   8.213 -0.0796 -0.0560  0.1543
  375loPI    C1 5985  12.576  12.560  10.233 -0.0270 -0.1251 -0.0970
  375loPI    C2 5986  12.730  12.843  10.470 -0.2108  0.0089 -0.1357
  375loPI    C3 5987  12.591  12.503  10.628 -0.0143 -0.0492 -0.0864
  375loPI   PO4 5988  12.761  12.528  10.070  0.0769 -0.1063 -0.0332
  375loPI   GL1 5989  12.966  12.171   9.934 -0.2204  0.0572 -0.3191
  375loPI   GL2 5990  13.090  11.795  10.049  0.1388 -0.0491  0.1625
  375loPI   C1A 5991  13.122  12.239   9.519  0.1820 -0.1854 -0.2275
  375loPI   C2A 5992  13.209  12.189   9.067  0.0043  0.0499 -0.0981
  375loPI   C3A 5993  13.118  12.010   8.614  0.2097 -0.0741  0.3078
  375loPI   C4A 5994  13.342  11.765   8.241 -0.0993 -0.2246  0.3133
  375loPI   C5A 5995  13.335  11.489   7.983  0.0595  0.2204  0.1284
  375loPI   C6A 5996  13.115  11.127   8.115 -0.0768 -0.0067 -0.0601
  375loPI   C1B 5997  12.893  11.803   9.613 -0.0410 -0.0254  0.2729
  375loPI   C2B 5998  12.825  11.714   9.271 -0.0265 -0.0023 -0.0083
  375loPI   C3B 5999  12.829  11.572   8.844 -0.1532 -0.1633  0.2549
  375loPI   C4B 6000  13.051  11.505   8.503  0.0751 -0.3156 -0.4867
  376loPI    C1 6001   9.785  15.807  10.454 -0.0820 -0.0527  0.0257
  376loPI    C2 6002   9.525  15.751  10.753  0.1835 -0.1739  0.2386
  376loPI    C3 6003   9.918  15.719  10.821  0.2663  0.1742 -0.0409
  376loPI   PO4 6004   9.799  15.595  10.178 -0.1169  0.1428  0.1825
  376loPI   GL1 6005  10.179  15.491   9.907 -0.0742  0.0162 -0.2655
  376loPI   GL2 6006  10.122  15.805   9.854  0.0539 -0.3969  0.5369
  376loPI   C1A 6007  10.226  15.513   9.455  0.1268 -0.1617 -0.3049
  376loPI   C2A 6008  10.327  15.719   9.096  0.1451  0.2473 -0.0679
  376loPI   C3A 6009  10.686  15.754   8.870  0.1802  0.3780  0.1668
  376loPI   C4A 6010  10.704  15.620   8.413  0.1644 -0.2100 -0.2441
  376loPI   C5A 6011  10.431  15.389   8.052 -0.2744  0.0290  0.1903
  376loPI   C6A 6012  10.216  15.740   7.751 -0.0983  0.1543  0.0557
  376loPI   C1B 6013  10.208  16.012   9.484 -0.3763  0.0269  0.0122
  376loPI   C2B 6014  10.185  16.187   9.076  0.1467 -0.0019  0.3706
  376loPI   C3B 6015  10.340  16.010   8.637 -0.2520 -0.1227  0.0145
  376loPI   C4B 6016  10.517  15.946   8.104  0.1773 -0.0390  0.0265
  377loPI    C1 6017   1.840  12.839  10.237  0.2395  0.0940 -0.2881
  377loPI    C2 6018   2.198  13.016  10.267  0.1937  0.1225  0.1499
  377loPI    C3 6019   2.092  12.734  10.529 -0.1667  0.2251  0.1204
  377loPI   PO4 6020   1.747  12.695   9.970 -0.0004  0.2915  0.1164
  377loPI   GL1 6021   1.894  12.768   9.440 -0.1512  0.1008  0.2931
  377loPI   GL2 6022   2.042  12.987   9.329  0.0592 -0.0830 -0.1219
  377loPI   C1A 6023   2.069  12.481   9.187  0.1856  0.1681  0.0871
  377loPI   C2A 6024   1.879  12.485   8.723 -0.0446 -0.2515  0.2509
  377loPI   C3A 6025   1.816  12.403   8.359  0.0138  0.1665 -0.1951
  377loPI   C4A 6026   1.825  12.543   7.919  0.1268 -0.0259  0.0708
  377loPI   C5A 6027   1.915  12.532   7.429  0.0146 -0.0334 -0.0424
  377loPI   C6A 6028   1.648  12.719   7.063 -0.3394 -0.4681  0.3256
  377loPI   C1B 6029   2.086  12.883   8.895 -0.2261 -0.1396  0.0784
  377loPI   C2B 6030   2.088  12.930   8.527 -0.1903  0.4418  0.2930
  377loPI   C3B 6031   2.073  13.006   8.226  0.2178  0.1859  0.1672
  377loPI   C4B 6032   2.214  12.891   7.823 -0.0817 -0.1239 -0.1168
  378loPI    C1 6033   3.271   3.125  10.100 -0.0750  0.0378 -0.0959
  378loPI    C2 6034   3.011   3.297   9.848 -0.0439  0.2520  0.0158
  378loPI    C3 6035   2.970   3.347  10.243 -0.1690 -0.1891  0.0640
  378loPI   PO4 6036   3.421   2.976   9.936  0.0899 -0.0392 -0.1236
  378loPI   GL1 6037   3.487   2.867   9.519 -0.0190  0.3794 -0.0425
  378loPI   GL2 6038   3.372   3.283   9.539 -0.3152  0.1733  0.0852
  378loPI   C1A 6039   3.580   2.715   9.143 -0.1495  0.0377 -0.0260
  378loPI   C2A 6040   3.550   2.479   8.733  0.1414 -0.3892  0.2000
  378loPI   C3A 6041   3.378   2.367   8.286  0.0582 -0.4200  0.1268
  378loPI   C4A 6042   3.254   2.511   7.838 -0.2109 -0.1756 -0.2205
  378loPI   C5A 6043   3.100   2.744   7.545  0.0468 -0.0838 -0.0503
  378loPI   C6A 6044   2.760   2.630   7.316  0.0754  0.0137  0.1068
  378loPI   C1B 6045   3.716   3.239   9.220  0.0702 -0.1556 -0.0460
  378loPI   C2B 6046   3.640   3.369   8.812  0.0792  0.3069 -0.1155
  378loPI   C3B 6047   3.774   3.224   8.388  0.0463 -0.1863  0.2605
  378loPI   C4B 6048   3.947   3.119   8.065 -0.1841 -0.2393  0.1310
  379loPI    C1 6049  10.388   4.735  10.186 -0.1536  0.0662 -0.1291
  379loPI    C2 6050  10.616   4.792  10.509 -0.1526  0.3111 -0.1713
  379loPI    C3 6051  10.279   4.579  10.538 -0.0426  0.1503 -0.0569
  379loPI   PO4 6052  10.614   4.728   9.984 -0.1790 -0.2828  0.2107
  379loPI   GL1 6053  10.935   4.987   9.646  0.0845  0.4706 -0.0080
  379loPI   GL2 6054  10.648   5.151   9.669  0.0984  0.1750  0.2971
  379loPI   C1A 6055  10.975   5.134   9.223  0.1205 -0.0721  0.1290
  379loPI   C2A 6056  10.929   5.542   9.022 -0.2498 -0.0880 -0.4256
  379loPI   C3A 6057  10.889   5.534   8.650  0.4036  0.3311  0.1753
  379loPI   C4A 6058  11.003   5.775   8.357 -0.1375 -0.0674 -0.1126
  379loPI   C5A 6059  11.111   5.808   7.904  0.2554  0.0581 -0.2240
  379loPI   C6A 6060  11.259   5.554   7.597  0.2791 -0.1835 -0.0961
  379loPI   C1B 6061  10.540   4.830   9.378  0.0251  0.1210  0.3164
  379loPI   C2B 6062  10.178   4.910   9.114 -0.0447  0.2442 -0.1373
  379loPI   C3B 6063  10.124   5.039   8.704  0.0143 -0.0220  0.0794
  379loPI   C4B 6064  10.246   5.075   8.220 -0.0468  0.0470 -0.1812
  380loPI    C1 6065   8.711   6.149  10.210  0.1690  0.1079  0.2436
  380loPI    C2 6066   8.882   6.474  10.369  0.3393  0.0897  0.1004
  380loPI    C3 6067   8.965   6.112  10.517  0.2273  0.1023  0.1949
  380loPI   PO4 6068   8.723   6.173   9.984 -0.2420 -0.0698  0.1849
  380loPI   GL1 6069   8.912   5.929   9.604 -0.0574  0.1514 -0.0590
  380loPI   GL2 6070   8.979   6.212   9.493 -0.0896 -0.1856 -0.0977
  380loPI   C1A 6071   8.859   5.621   9.114 -0.1701  0.1450 -0.1948
  380loPI   C2A 6072   8.970   5.673   8.657 -0.1305 -0.0372  0.2620
  380loPI   C3A 6073   8.978   5.674   8.183  0.1128  0.0630  0.3289
  380loPI   C4A 6074   8.827   5.767   7.775 -0.2294 -0.0464  0.1068
  380loPI   C5A 6075   8.732   5.833   7.382 -0.0619  0.2469 -0.1599
  380loPI   C6A 6076   8.733   5.799   6.965  0.1086 -0.1915  0.1599
  380loPI   C1B 6077   9.317   6.131   9.135  0.0561  0.0932 -0.1810
  380loPI   C2B 6078   9.343   5.978   8.682  0.4032 -0.0666 -0.2456
  380loPI   C3B 6079   9.276   6.094   8.270 -0.0540 -0.2729 -0.0062
  380loPI   C4B 6080   9.343   6.166   7.922 -0.1333  0.0673  0.2521
  381loPI    C1 6081   8.935   3.880  10.633  0.0834 -0.1498 -0.1688
  381loPI    C2 6082   8.584   3.750  10.774  0.0095  0.0942 -0.1229
  381loPI    C3 6083   8.863   3.886  11.026  0.1865 -0.2114 -0.1486
  381loPI   PO4 6084   9.028   3.778  10.552  0.1978  0.1059 -0.0856
  381loPI   GL1 6085   9.010   3.696  10.112 -0.0726  0.1387 -0.0805
  381loPI   GL2 6086   9.239   3.474   9.883 -0.3353  0.0156 -0.4455
  381loPI   C1A 6087   8.824   3.729   9.569 -0.1426 -0.2178  0.0574
  381loPI   C2A 6088   8.897   3.713   9.091  0.1179 -0.2479 -0.1355
  381loPI   C3A 6089   9.046   3.644   8.675  0.1235  0.1929  0.1383
  381loPI   C4A 6090   9.118   3.278   8.498 -0.3586 -0.2060  0.0972
  381loPI   C5A 6091   9.261   3.094   8.158  0.0547 -0.4035  0.0425
  381loPI   C6A 6092   9.288   2.978   7.784  0.2335 -0.0033 -0.1510
  381loPI   C1B 6093   9.330   3.523   9.419  0.0633  0.1066  0.0537
  381loPI   C2B 6094   9.444   3.717   9.045  0.0196 -0.5729 -0.1897
  381loPI   C3B 6095   9.502   3.901   8.590 -0.0051  0.1365 -0.1490
  381loPI   C4B 6096   9.426   3.762   8.233  0.2276  0.1442  0.0974
  382loPI    C1 6097  12.957  13.292  10.191  0.1656  0.0468  0.0066
  382loPI    C2 6098  13.199  13.494   9.945  0.0363  0.0976 -0.0803
  382loPI    C3 6099  13.064  13.667  10.279 -0.0630  0.1506 -0.1475
  382loPI   PO4 6100  12.923  13.085  10.031  0.1678 -0.1208 -0.3365
  382loPI   GL1 6101  12.884  13.207   9.642  0.2665  0.3296 -0.0888
  382loPI   GL2 6102  12.896  13.574   9.584  0.2295  0.1375 -0.2968
  382loPI   C1A 6103  12.626  13.143   9.275  0.3372  0.0152  0.0034
  382loPI   C2A 6104  12.474  13.150   8.806 -0.1449  0.0493  0.0916
  382loPI   C3A 6105  12.542  13.419   8.386  0.2576 -0.0136 -0.0900
  382loPI   C4A 6106  12.493  13.329   7.985 -0.1742 -0.1364  0.0687
  382loPI   C5A 6107  12.766  13.088   7.720 -0.2404  0.2298  0.3214
  382loPI   C6A 6108  12.949  12.820   7.454 -0.1217  0.2988 -0.0139
  382loPI   C1B 6109  12.920  13.500   9.201 -0.3532  0.0039 -0.0783
  382loPI   C2B 6110  12.842  13.555   8.815 -0.2611 -0.1212 -0.0039
  382loPI   C3B 6111  13.049  13.635   8.431 -0.0443  0.2751 -0.0731
  382loPI   C4B 6112  13.018  13.352   8.132  0.1193  0.3085 -0.2065
  383loPI    C1 6113   9.878   4.233  10.333 -0.0917 -0.2485 -0.0398
  383loPI    C2 6114  10.162   4.305  10.060 -0.1478 -0.0541 -0.0486
  383loPI    C3 6115  10.231   4.047  10.358  0.0664  0.0510 -0.0056
  383loPI   PO4 6116   9.595   4.140  10.184  0.0389  0.0081  0.2295
  383loPI   GL1 6117   9.342   4.011   9.837 -0.3972 -0.0351 -0.0511
  383loPI   GL2 6118   9.606   3.772   9.737  0.0541 -0.0419  0.0202
  383loPI   C1A 6119   9.162   4.037   9.512  0.0010  0.0031  0.0462
  383loPI   C2A 6120   8.707   4.163   9.268 -0.0831  0.1268 -0.1494
  383loPI   C3A 6121   8.432   4.243   8.952  0.2142  0.0874 -0.0514
  383loPI   C4A 6122   8.110   4.209   8.607  0.0375 -0.3039 -0.1284
  383loPI   C5A 6123   7.806   4.488   8.235 -0.0500  0.0439 -0.1340
  383loPI   C6A 6124   7.531   4.481   7.885  0.3386  0.1964  0.0248
  383loPI   C1B 6125   9.700   3.959   9.400  0.0527  0.1268 -0.0227
  383loPI   C2B 6126   9.815   4.162   9.041 -0.1082  0.0200 -0.0750
  383loPI   C3B 6127   9.777   4.321   8.554 -0.0234 -0.2286  0.0691
  383loPI   C4B 6128   9.518   4.274   8.226 -0.2429 -0.0684  0.0132
  384loPI    C1 6129  13.156  18.503  10.534  0.0557 -0.0685 -0.1941
  384loPI    C2 6130  13.227  18.153  10.355  0.1793 -0.1127 -0.0610
  384loPI    C3 6131  13.306  18.198  10.744 -0.0547 -0.0069 -0.0239
  384loPI   PO4 6132  12.946  18.583  10.416 -0.3063  0.1734 -0.3477
  384loPI   GL1 6133  12.772  18.500  10.010  0.1038 -0.1355 -0.2394
  384loPI   GL2 6134  12.737  18.138  10.057 -0.2581 -0.1735  0.2334
  384loPI   C1A 6135  12.817  18.697   9.613 -0.4492 -0.2008  0.0923
  384loPI   C2A 6136  12.825  18.785   9.131 -0.2023  0.1524 -0.1306
  384loPI   C3A 6137  12.710  18.599   8.781  0.0861  0.2770  0.0085
  384loPI   C4A 6138  12.541  18.252   8.496  0.1870  0.0602  0.1855
  384loPI   C5A 6139  12.371  17.979   8.238 -0.0446  0.0246 -0.0595
  384loPI   C6A 6140  12.317  17.575   8.286 -0.1437  0.3526  0.1527
  384loPI   C1B 6141  12.765  18.013   9.680  0.3048 -0.1646  0.0513
  384loPI   C2B 6142  12.873  17.801   9.373  0.1767  0.1841  0.2247
  384loPI   C3B 6143  12.904  17.768   8.873  0.0508 -0.3664  0.1402
  384loPI   C4B 6144  12.803  17.760   8.418  0.0836 -0.0037 -0.2859
  385loPI    C1 6145  12.386   0.802  10.545  0.1722 -0.0781  0.0399
  385loPI    C2 6146  12.516   0.671  10.900 -0.0151 -0.2640  0.0422
  385loPI    C3 6147  12.258   0.976  10.881  0.0941 -0.1699  0.0584
  385loPI   PO4 6148  12.389   0.630  10.407  0.0724 -0.0880  0.1484
  385loPI   GL1 6149  12.368   0.317  10.144 -0.6100  0.1767  0.2057
  385loPI   GL2 6150  12.405   0.572   9.897  0.2522  0.3101 -0.0132
  385loPI   C1A 6151  12.277  -0.123   9.950  0.0514 -0.0609 -0.2156
  385loPI   C2A 6152  12.402  -0.216   9.470  0.1432  0.0930  0.1898
  385loPI   C3A 6153  12.313   0.048   9.119  0.1852 -0.1267 -0.2692
  385loPI   C4A 6154  12.076  -0.031   8.764  0.1923  0.1667  0.1870
  385loPI   C5A 6155  11.994  -0.044   8.396 -0.0007  0.0396 -0.0414
  385loPI   C6A 6156  11.866  -0.313   8.121  0.0753 -0.1775  0.3112
  385loPI   C1B 6157  12.530   0.506   9.565 -0.0205  0.1162  0.2016
  385loPI   C2B 6158  12.376   0.675   9.182  0.0501  0.0282  0.2966
  385loPI   C3B 6159  12.175   0.447   8.759 -0.1765  0.3088  0.0371
  385loPI   C4B 6160  12.176   0.434   8.340  0.0123  0.2138  0.0480
  386loPI    C1 6161   6.285   8.987  10.054 -0.3069 -0.0525  0.0468
  386loPI    C2 6162   6.210   9.233   9.748  0.0525 -0.0632 -0.0538
  386loPI    C3 6163   6.070   9.320  10.112  0.0533  0.2152 -0.1176
  386loPI   PO4 6164   6.446   8.855   9.952  0.2485  0.0484  0.2755
  386loPI   GL1 6165   6.607   8.682   9.664  0.0673  0.0657  0.3980
  386loPI   GL2 6166   6.413   8.381   9.718  0.0186 -0.1004  0.1886
  386loPI   C1A 6167   6.368   8.802   9.299  0.1647  0.1272 -0.1655
  386loPI   C2A 6168   6.182   9.044   8.966  0.2885  0.2630 -0.3635
  386loPI   C3A 6169   6.017   9.040   8.622 -0.2931 -0.0777 -0.2271
  386loPI   C4A 6170   5.769   9.199   8.324 -0.1950 -0.0684  0.0088
  386loPI   C5A 6171   5.586   9.561   8.149  0.0574 -0.0867  0.3474
  386loPI   C6A 6172   5.740   9.890   8.144  0.1855 -0.0863  0.1318
  386loPI   C1B 6173   6.689   8.292   9.381 -0.1973  0.2177  0.1028
  386loPI   C2B 6174   6.905   8.094   9.030  0.2801  0.2455 -0.1301
  386loPI   C3B 6175   6.747   8.013   8.632 -0.0537  0.1845  0.2817
  386loPI   C4B 6176   6.616   8.175   8.222 -0.0818  0.1600 -0.1924
  387loPI    C1 6177  15.643   3.695  10.417 -0.1525  0.0989 -0.0042
  387loPI    C2 6178  15.501   3.345  10.284 -0.2293  0.1819 -0.1423
  387loPI    C3 6179  15.580   3.394  10.673 -0.1260 -0.0206 -0.1367
  387loPI   PO4 6180  15.878   3.760  10.300  0.3155  0.0321  0.1596
  387loPI   GL1 6181  16.160   3.784   9.980 -0.2385  0.3295  0.2655
  387loPI   GL2 6182  16.189   4.042   9.652 -0.0718 -0.1645  0.1265
  387loPI   C1A 6183  16.168   3.520   9.552  0.0749  0.0043  0.0563
  387loPI   C2A 6184  15.965   3.458   9.146 -0.0533  0.4035  0.1094
  387loPI   C3A 6185  15.795   3.533   8.692 -0.0069 -0.0194  0.1718
  387loPI   C4A 6186  15.747   3.624   8.337 -0.1330  0.1133 -0.4402
  387loPI   C5A 6187  15.374   3.815   8.056  0.0155  0.3210  0.1406
  387loPI   C6A 6188  14.952   3.684   7.938  0.0486  0.1257 -0.1262
  387loPI   C1B 6189  16.239   3.911   9.240  0.1088 -0.3458  0.0956
  387loPI   C2B 6190  16.187   3.902   8.774  0.3182 -0.2684  0.2314
  387loPI   C3B 6191  16.111   3.935   8.273  0.0035  0.0487 -0.3413
  387loPI   C4B 6192  15.871   3.905   7.940 -0.0850 -0.0426  0.1695
  388loPI    C1 6193   3.294   5.499  10.040 -0.1529  0.0197 -0.0269
  388loPI    C2 6194   3.288   5.167   9.816 -0.1833 -0.0141  0.0239
  388loPI    C3 6195   3.361   5.142  10.208 -0.1311  0.0449  0.0180
  388loPI   PO4 6196   3.526   5.647   9.848 -0.2158  0.2424 -0.2318
  388loPI   GL1 6197   3.314   5.688   9.483 -0.0460  0.2134  0.0849
  388loPI   GL2 6198   3.692   5.780   9.339  0.0749  0.1340  0.1093
  388loPI   C1A 6199   3.227   5.733   9.002  0.2591 -0.2459 -0.0109
  388loPI   C2A 6200   3.249   5.716   8.647 -0.0227  0.0283  0.1045
  388loPI   C3A 6201   3.385   5.709   8.352  0.0346 -0.1923 -0.0657
  388loPI   C4A 6202   3.495   5.853   7.921  0.4403 -0.0166 -0.0178
  388loPI   C5A 6203   3.337   5.930   7.487 -0.1837  0.0495 -0.2135
  388loPI   C6A 6204   3.103   6.266   7.439  0.6945 -0.1852 -0.0201
  388loPI   C1B 6205   3.685   5.921   8.856  0.2968  0.2832 -0.1510
  388loPI   C2B 6206   3.853   5.859   8.516 -0.1519  0.0711  0.4194
  388loPI   C3B 6207   3.893   5.947   8.149 -0.0368  0.1010  0.1892
  388loPI   C4B 6208   3.903   6.160   7.723  0.3328 -0.0276 -0.2241
  389loPI    C1 6209   4.412  11.668  10.587  0.0999 -0.0433 -0.0308
  389loPI    C2 6210   4.776  11.833  10.605  0.0050  0.1614  0.0402
  389loPI    C3 6211   4.465  12.016  10.777 -0.1551  0.0504 -0.1277
  389loPI   PO4 6212   4.417  11.516  10.272 -0.0226  0.1712  0.0921
  389loPI   GL1 6213   4.469  11.509   9.828  0.0207  0.5615  0.0992
  389loPI   GL2 6214   4.568  11.859   9.694 -0.0040  0.2206  0.1511
  389loPI   C1A 6215   4.299  11.398   9.409 -0.2248  0.2032 -0.0705
  389loPI   C2A 6216   4.380  11.458   9.039 -0.1246 -0.1860  0.1662
  389loPI   C3A 6217   4.481  11.761   8.660 -0.2067 -0.1432  0.2644
  389loPI   C4A 6218   4.585  12.004   8.357 -0.0785 -0.0391 -0.0692
  389loPI   C5A 6219   4.905  12.073   7.995 -0.0225 -0.3741  0.0595
  389loPI   C6A 6220   5.233  12.330   7.939 -0.1080 -0.3497 -0.2367
  389loPI   C1B 6221   4.674  11.820   9.232  0.1512 -0.2505 -0.2417
  389loPI   C2B 6222   4.827  11.981   8.879  0.3891  0.0059  0.2615
  389loPI   C3B 6223   5.094  12.235   8.516  0.1095  0.0246 -0.1944
  389loPI   C4B 6224   5.172  12.646   8.564 -0.3743  0.2209 -0.0997
  390loPI    C1 6225   8.701   3.305  10.582  0.1198 -0.1234  0.2930
  390loPI    C2 6226   9.096   3.289  10.524  0.0895  0.2898 -0.0749
  390loPI    C3 6227   8.951   3.398  10.880  0.2976 -0.1984  0.1688
  390loPI   PO4 6228   8.636   3.412  10.416 -0.5114  0.0612  0.0950
  390loPI   GL1 6229   8.862   3.186  10.106  0.0681 -0.1132  0.1140
  390loPI   GL2 6230   8.917   2.905  10.267 -0.2843  0.0224 -0.0973
  390loPI   C1A 6231   8.719   3.177   9.704  0.1010 -0.0411 -0.0940
  390loPI   C2A 6232   8.769   3.319   9.311  0.1282  0.2732  0.0632
  390loPI   C3A 6233   8.897   3.238   8.986 -0.1372  0.1525  0.1043
  390loPI   C4A 6234   8.687   2.984   8.626  0.0205  0.2370 -0.0288
  390loPI   C5A 6235   8.865   2.798   8.227 -0.0815  0.1626 -0.0384
  390loPI   C6A 6236   9.060   2.581   8.096 -0.2754  0.3174  0.1329
  390loPI   C1B 6237   8.648   2.753   9.914  0.0283  0.2066  0.2186
  390loPI   C2B 6238   8.324   2.761   9.683 -0.2517 -0.3180 -0.1636
  390loPI   C3B 6239   8.265   3.073   9.337 -0.5054  0.0705  0.1813
  390loPI   C4B 6240   8.296   3.077   8.961  0.2731 -0.2630 -0.1112
  391loPI    C1 6241   4.787   1.614  10.452  0.3463 -0.1196 -0.2612
  391loPI    C2 6242   4.988   1.396  10.720  0.0465 -0.0198  0.0515
  391loPI    C3 6243   4.940   1.789  10.777  0.0285  0.0125 -0.1790
  391loPI   PO4 6244   4.882   1.521  10.204  0.4023 -0.0682 -0.1515
  391loPI   GL1 6245   5.070   1.453   9.847 -0.3300  0.0635  0.2640
  391loPI   GL2 6246   5.379   1.597   9.910 -0.0804 -0.2863 -0.1710
  391loPI   C1A 6247   5.338   1.660   9.415 -0.2445 -0.1016  0.0535
  391loPI   C2A 6248   5.440   1.645   8.895 -0.1654 -0.1215  0.0783
  391loPI   C3A 6249   5.726   1.357   8.560 -0.1501  0.1590 -0.1257
  391loPI   C4A 6250   5.906   1.379   8.076 -0.1969  0.0801 -0.1575
  391loPI   C5A 6251   5.491   1.326   7.689 -0.2658  0.1746  0.0522
  391loPI   C6A 6252   5.168   1.506   7.776 -0.1610 -0.0315  0.1563
  391loPI   C1B 6253   5.822   1.767   9.726  0.2123  0.2453 -0.0320
  391loPI   C2B 6254   5.856   1.705   9.251  0.2303  0.0494 -0.5738
  391loPI   C3B 6255   5.986   1.686   8.921 -0.2931 -0.3180 -0.0394
  391loPI   C4B 6256   6.144   1.667   8.471 -0.3386  0.0485 -0.1346
  392loPI    C1 6257  18.348   2.984   9.759 -0.0651 -0.0397  0.1798
  392loPI    C2 6258  18.349   2.639   9.962  0.3081 -0.1226  0.0449
  392loPI    C3 6259  18.528   2.962  10.115  0.0950 -0.0290  0.1004
  392loPI   PO4 6260  18.049   2.944   9.673 -0.2551 -0.1072 -0.2274
  392loPI   GL1 6261  17.736   3.007   9.278  0.1883  0.2878 -0.0931
  392loPI   GL2 6262  17.727   3.327   9.530 -0.1869  0.2284  0.4595
  392loPI   C1A 6263  17.571   3.094   8.926  0.0727 -0.0403 -0.0009
  392loPI   C2A 6264  17.673   3.003   8.520 -0.0717  0.2678  0.0366
  392loPI   C3A 6265  17.745   2.843   8.108  0.3271 -0.0850  0.1080
  392loPI   C4A 6266  17.916   3.036   7.668 -0.2930  0.4674  0.2923
  392loPI   C5A 6267  17.686   3.417   7.485  0.1420 -0.0144 -0.1416
  392loPI   C6A 6268  17.629   3.713   7.193 -0.0274 -0.0036 -0.1206
  392loPI   C1B 6269  17.402   3.445   9.216  0.1607  0.1461  0.0116
  392loPI   C2B 6270  17.016   3.379   9.038 -0.1680 -0.0467 -0.0104
  392loPI   C3B 6271  16.668   3.052   8.792  0.1458  0.2079 -0.2520
  392loPI   C4B 6272  16.772   2.837   8.414 -0.2850  0.3540 -0.0848
  393loPI    C1 6273  10.761  17.049  10.681  0.1018  0.1627 -0.0933
  393loPI    C2 6274  10.390  17.107  10.542 -0.1400  0.0886  0.4904
  393loPI    C3 6275  10.601  16.788  10.424 -0.1824  0.2308  0.0104
  393loPI   PO4 6276  10.896  17.333  10.619  0.1569  0.0378  0.0651
  393loPI   GL1 6277  11.018  17.389  10.286 -0.0061  0.0142 -0.1399
  393loPI   GL2 6278  10.782  17.272  10.101 -0.1139 -0.3082 -0.0723
  393loPI   C1A 6279  11.193  17.665   9.967 -0.3637  0.0679 -0.3044
  393loPI   C2A 6280  11.278  17.620   9.565  0.0204  0.0701 -0.0066
  393loPI   C3A 6281  11.221  17.809   9.190  0.1334 -0.0360 -0.0242
  393loPI   C4A 6282  11.061  17.749   8.877 -0.1825 -0.1788  0.2178
  393loPI   C5A 6283  11.186  17.618   8.436  0.1706  0.1304  0.0201
  393loPI   C6A 6284  11.442  17.775   8.068  0.1418 -0.0353 -0.2040
  393loPI   C1B 6285  10.837  17.384   9.637  0.1943 -0.0294  0.2000
  393loPI   C2B 6286  10.851  17.471   9.230 -0.0825 -0.2571  0.1894
  393loPI   C3B 6287  11.015  17.253   8.792  0.1160 -0.0802  0.0074
  393loPI   C4B 6288  11.107  17.169   8.347  0.0196 -0.0413  0.1993
  394loPI    C1 6289   9.674  10.985  10.429 -0.0446 -0.1623  0.0610
  394loPI    C2 6290   9.764  11.375  10.437 -0.3734 -0.0855  0.1483
  394loPI    C3 6291   9.923  11.128  10.708  0.2620 -0.1136 -0.2305
  394loPI   PO4 6292   9.785  10.934  10.092  0.0581  0.1655  0.0116
  394loPI   GL1 6293  10.008  10.762   9.733 -0.0268  0.2686  0.3652
  394loPI   GL2 6294  10.170  11.060   9.722 -0.2764  0.0052 -0.3032
  394loPI   C1A 6295  10.203  10.580   9.452 -0.1156  0.0440 -0.3000
  394loPI   C2A 6296  10.147  10.642   9.075 -0.0876  0.0911  0.1030
  394loPI   C3A 6297  10.174  10.657   8.627 -0.0369  0.0697 -0.3742
  394loPI   C4A 6298  10.023  10.591   8.252  0.0736 -0.2044  0.1785
  394loPI   C5A 6299   9.916  10.302   7.842  0.2412  0.1968  0.2914
  394loPI   C6A 6300   9.697  10.054   7.420  0.2752 -0.0088  0.0566
  394loPI   C1B 6301  10.167  11.085   9.319  0.1077  0.3212  0.2246
  394loPI   C2B 6302   9.962  11.084   8.869 -0.2645 -0.5049 -0.1060
  394loPI   C3B 6303   9.951  11.173   8.498 -0.3370 -0.3523 -0.0902
  394loPI   C4B 6304  10.147  11.302   8.151  0.2152 -0.1426 -0.3447
  395loPI    C1 6305  15.681   1.383  10.481 -0.2741  0.0778 -0.1081
  395loPI    C2 6306  16.002   1.520  10.676 -0.0614  0.1217 -0.4780
  395loPI    C3 6307  15.635   1.604  10.811  0.0780 -0.0018 -0.0007
  395loPI   PO4 6308  15.809   1.389  10.169 -0.0674  0.0930 -0.1626
  395loPI   GL1 6309  16.179   1.228   9.848  0.1952  0.1073  0.0478
  395loPI   GL2 6310  16.038   1.522   9.743  0.1862  0.1371  0.2587
  395loPI   C1A 6311  16.011   1.136   9.414 -0.1348 -0.1906  0.0967
  395loPI   C2A 6312  16.028   0.874   9.048  0.0567  0.3890 -0.1423
  395loPI   C3A 6313  15.851   0.860   8.606 -0.3018 -0.1170 -0.0558
  395loPI   C4A 6314  15.850   0.828   8.236  0.2173 -0.1236 -0.3565
  395loPI   C5A 6315  15.683   0.419   8.034  0.0297  0.3352 -0.1730
  395loPI   C6A 6316  15.229   0.200   8.046 -0.1685  0.0646 -0.2521
  395loPI   C1B 6317  15.838   1.575   9.273  0.0683 -0.1282 -0.3187
  395loPI   C2B 6318  15.699   1.583   8.750  0.2268 -0.3606 -0.2429
  395loPI   C3B 6319  15.377   1.568   8.474 -0.2745 -0.2553 -0.1587
  395loPI   C4B 6320  14.937   1.430   8.547  0.0546 -0.0343 -0.2737
  396loPI    C1 6321   6.605  13.325  10.362 -0.2042 -0.2518 -0.1792
  396loPI    C2 6322   6.260  13.507  10.274 -0.0607  0.1263  0.0139
  396loPI    C3 6323   6.362  13.446  10.656  0.0978  0.0394 -0.0414
  396loPI   PO4 6324   6.619  13.116  10.206  0.2001  0.0122  0.0277
  396loPI   GL1 6325   6.515  12.986   9.770  0.1587  0.5652 -0.0664
  396loPI   GL2 6326   6.666  12.701   9.723 -0.0189  0.1483  0.2318
  396loPI   C1A 6327   6.493  13.147   9.432  0.2837  0.3408  0.0566
  396loPI   C2A 6328   6.496  13.350   9.033 -0.3133 -0.0048 -0.1415
  396loPI   C3A 6329   6.395  13.545   8.579  0.1074  0.0193 -0.1795
  396loPI   C4A 6330   6.339  13.671   8.167  0.0787 -0.1811  0.0158
  396loPI   C5A 6331   6.252  13.930   7.862  0.0896 -0.0699 -0.0726
  396loPI   C6A 6332   6.413  13.725   7.623 -0.2889 -0.1391 -0.1575
  396loPI   C1B 6333   6.603  12.649   9.304  0.0047 -0.0958  0.2280
  396loPI   C2B 6334   6.669  12.665   8.812  0.1211  0.2303  0.3121
  396loPI   C3B 6335   6.610  12.693   8.381  0.0834  0.1573 -0.0543
  396loPI   C4B 6336   6.834  12.634   8.060  0.0742  0.0300 -0.4667
  397loPI    C1 6337   9.317   6.366  10.167 -0.0050  0.1469  0.0099
  397loPI    C2 6338   9.620   6.115  10.093  0.2239  0.3989  0.0764
  397loPI    C3 6339   9.467   6.141  10.462 -0.1419 -0.0090 -0.0377
  397loPI   PO4 6340   9.186   6.422   9.901  0.0191  0.0197 -0.0482
  397loPI   GL1 6341   9.399   6.515   9.548  0.1136 -0.2875 -0.0452
  397loPI   GL2 6342   9.149   6.714   9.472 -0.1281 -0.1516 -0.0328
  397loPI   C1A 6343   9.614   6.562   9.144 -0.1218  0.1309 -0.1054
  397loPI   C2A 6344   9.668   6.324   8.750 -0.0617  0.0955 -0.3136
  397loPI   C3A 6345   9.608   6.471   8.331 -0.0643  0.2832  0.1918
  397loPI   C4A 6346   9.888   6.729   8.076 -0.2796  0.0934 -0.0110
  397loPI   C5A 6347  10.288   6.429   7.891  0.0944 -0.1624 -0.0262
  397loPI   C6A 6348  10.687   6.342   7.700 -0.1204  0.0019 -0.2376
  397loPI   C1B 6349   9.142   6.624   9.075  0.1949  0.3432  0.2799
  397loPI   C2B 6350   9.347   6.700   8.690  0.4359  0.0880  0.0812
  397loPI   C3B 6351   9.467   6.953   8.283  0.1784 -0.0952  0.0187
  397loPI   C4B 6352   9.547   7.209   7.907 -0.0106  0.0786  0.1427
  398loPI    C1 6353  16.546  15.026  10.013  0.2927  0.2733 -0.0878
  398loPI    C2 6354  16.833  14.824  10.205  0.3220  0.1927 -0.2150
  398loPI    C3 6355  16.598  15.077  10.406  0.1866 -0.0790 -0.0245
  398loPI   PO4 6356  16.608  14.779   9.716  0.3781  0.0993  0.0758
  398loPI   GL1 6357  16.483  14.831   9.326  0.3070 -0.2210  0.1203
  398loPI   GL2 6358  16.296  14.577   9.317 -0.2636  0.0138 -0.0596
  398loPI   C1A 6359  16.511  14.784   8.876 -0.0381  0.2395 -0.1045
  398loPI   C2A 6360  16.720  14.686   8.612 -0.0480 -0.1045  0.4456
  398loPI   C3A 6361  16.806  14.633   8.236  0.2557  0.2495  0.0938
  398loPI   C4A 6362  17.062  14.187   8.035 -0.0977  0.1682  0.4064
  398loPI   C5A 6363  17.140  14.139   7.551  0.3348 -0.0241 -0.1512
  398loPI   C6A 6364  17.435  13.871   7.441 -0.2774  0.0047  0.0954
  398loPI   C1B 6365  16.030  14.508   8.935 -0.4440 -0.1978 -0.3892
  398loPI   C2B 6366  15.746  14.722   8.611 -0.1192  0.2227  0.1281
  398loPI   C3B 6367  15.415  14.657   8.253 -0.1375 -0.0105 -0.0185
  398loPI   C4B 6368  15.044  14.543   8.239  0.4168 -0.3652  0.1708
  399loPI    C1 6369   0.179  12.802   9.790 -0.1352 -0.0881 -0.0234
  399loPI    C2 6370  -0.190  12.689   9.895 -0.2162  0.0361 -0.1689
  399loPI    C3 6371  -0.136  13.026   9.686 -0.0241 -0.0072 -0.1912
  399loPI   PO4 6372   0.256  12.610   9.676  0.0569 -0.2243  0.2102
  399loPI   GL1 6373   0.330  12.530   9.296  0.1990  0.1924  0.0220
  399loPI   GL2 6374   0.211  12.190   9.195 -0.1405 -0.2159  0.0550
  399loPI   C1A 6375   0.440  12.609   8.876 -0.0924  0.3157  0.1769
  399loPI   C2A 6376   0.389  12.693   8.407 -0.2064 -0.1731 -0.0597
  399loPI   C3A 6377   0.376  12.865   7.984 -0.1465 -0.1076 -0.1133
  399loPI   C4A 6378   0.609  12.972   7.647 -0.0476 -0.1361  0.0541
  399loPI   C5A 6379   0.701  12.617   7.230 -0.2679  0.0454 -0.4848
  399loPI   C6A 6380   0.528  12.194   7.301 -0.1793  0.1410 -0.0746
  399loPI   C1B 6381   0.211  12.198   8.737  0.0872  0.2424 -0.0868
  399loPI   C2B 6382   0.172  12.139   8.332  0.2641 -0.1676 -0.0865
  399loPI   C3B 6383  -0.156  12.123   8.111  0.0528 -0.1512  0.1329
  399loPI   C4B 6384  -0.153  12.196   7.627  0.3498  0.2459 -0.0688
  400loPI    C1 6385   7.753   9.442  10.263  0.0148  0.0361 -0.1288
  400loPI    C2 6386   7.600   9.138  10.472  0.0503 -0.0169 -0.1794
  400loPI    C3 6387   7.798   9.430  10.660 -0.3516  0.1993 -0.0782
  400loPI   PO4 6388   7.576   9.494  10.106 -0.0037 -0.2453 -0.1936
  400loPI   GL1 6389   7.571   9.831   9.771  0.1363  0.3876 -0.1755
  400loPI   GL2 6390   7.822   9.480   9.721 -0.1591 -0.2625 -0.0422
  400loPI   C1A 6391   7.499   9.739   9.410  0.0585  0.0569  0.1247
  400loPI   C2A 6392   7.653   9.406   9.082  0.1573 -0.1177 -0.1142
  400loPI   C3A 6393   7.687   9.379   8.601 -0.1853 -0.0288  0.0366
  400loPI   C4A 6394   7.372   9.387   8.259 -0.0513 -0.3084 -0.0763
  400loPI   C5A 6395   7.317   9.284   7.916 -0.2525 -0.0101 -0.1036
  400loPI   C6A 6396   7.219   9.355   7.572 -0.0754  0.2628  0.0879
  400loPI   C1B 6397   7.603   9.118   9.450  0.0462 -0.0026 -0.0302
  400loPI   C2B 6398   7.432   8.888   9.124 -0.2576 -0.1963  0.1494
  400loPI   C3B 6399   7.627   8.836   8.798 -0.0038 -0.2435  0.0244
  400loPI   C4B 6400   7.453   8.914   8.314 -0.1201  0.3266 -0.0655
  401loPI    C1 6401   3.014  14.701  10.163 -0.1764 -0.1310  0.0995
  401loPI    C2 6402   2.664  14.588  10.322 -0.2307 -0.1607 -0.0393
  401loPI    C3 6403   2.904  14.838  10.522 -0.3140 -0.1700  0.0730
  401loPI   PO4 6404   3.087  14.475  10.067  0.2480 -0.1170  0.0832
  401loPI   GL1 6405   3.238  14.614   9.704 -0.2664  0.0265 -0.1467
  401loPI   GL2 6406   3.360  14.752   9.756 -0.0067 -0.2710  0.0661
  401loPI   C1A 6407   3.139  14.552   9.372  0.1133  0.0682  0.2882
  401loPI   C2A 6408   3.000  14.434   8.952  0.1237 -0.0826  0.1113
  401loPI   C3A 6409   3.112  14.462   8.576  0.0652 -0.0746 -0.1863
  401loPI   C4A 6410   3.275  14.532   8.135  0.0305  0.3943 -0.0891
  401loPI   C5A 6411   3.645  14.475   7.928 -0.1040 -0.3016  0.1713
  401loPI   C6A 6412   3.984  14.640   7.758  0.2196  0.2528  0.3160
  401loPI   C1B 6413   3.159  15.024   9.444 -0.3940 -0.2900 -0.2055
  401loPI   C2B 6414   3.112  14.992   9.040 -0.0463  0.0032 -0.0719
  401loPI   C3B 6415   3.254  15.065   8.662  0.0713 -0.0230  0.3554
  401loPI   C4B 6416   3.236  15.006   8.154  0.0924 -0.0856  0.1030
  402loPI    C1 6417   2.542   4.082   9.958  0.0207  0.1057 -0.0539
  402loPI    C2 6418   2.455   4.449  10.094  0.1706  0.1895 -0.1806
  402loPI    C3 6419   2.530   4.152  10.352 -0.0671  0.2185 -0.0759
  402loPI   PO4 6420   2.673   4.121   9.777  0.1220 -0.3498  0.0899
  402loPI   GL1 6421   2.887   3.983   9.430 -0.1533 -0.3309  0.1510
  402loPI   GL2 6422   2.903   3.747   9.614 -0.1291 -0.0610 -0.1554
  402loPI   C1A 6423   2.988   3.973   8.970 -0.1199 -0.4667 -0.1327
  402loPI   C2A 6424   2.987   3.883   8.557  0.0512  0.1286  0.1742
  402loPI   C3A 6425   3.071   3.856   8.099  0.1747 -0.3990  0.0270
  402loPI   C4A 6426   2.988   3.945   7.641  0.0422  0.1637  0.0824
  402loPI   C5A 6427   2.908   4.114   7.285  0.0879  0.2206  0.2907
  402loPI   C6A 6428   2.757   3.901   6.924  0.1100 -0.0423 -0.3107
  402loPI   C1B 6429   2.984   3.478   9.197 -0.0768  0.1095 -0.2117
  402loPI   C2B 6430   3.163   3.458   8.752 -0.0051  0.1875 -0.0505
  402loPI   C3B 6431   3.301   3.439   8.316 -0.0780 -0.0468 -0.2411
  402loPI   C4B 6432   3.374   3.453   7.847 -0.0523 -0.1279 -0.1896
  403loPI    C1 6433  15.073  13.255  10.025 -0.0381 -0.0481 -0.0553
  403loPI    C2 6434  15.185  13.532  10.291 -0.0395  0.1743 -0.2826
  403loPI    C3 6435  14.854  13.317  10.354 -0.0091  0.1854 -0.0782
  403loPI   PO4 6436  15.155  13.355   9.738  0.2642 -0.1587  0.0018
  403loPI   GL1 6437  14.950  13.548   9.418 -0.0200 -0.3548  0.1034
  403loPI   GL2 6438  14.952  13.836   9.429  0.0610  0.1300  0.0059
  403loPI   C1A 6439  14.955  13.560   9.028  0.0900  0.3118 -0.2250
  403loPI   C2A 6440  14.934  13.415   8.665  0.0988 -0.2742 -0.0231
  403loPI   C3A 6441  14.887  13.673   8.325 -0.0763  0.1105 -0.2784
  403loPI   C4A 6442  14.735  14.017   8.107 -0.2235 -0.0235 -0.1598
  403loPI   C5A 6443  14.768  14.348   7.875 -0.1189  0.2257 -0.1571
  403loPI   C6A 6444  14.570  14.630   7.615  0.1767  0.0596  0.0636
  403loPI   C1B 6445  15.144  14.040   9.175 -0.3221 -0.1506  0.1373
  403loPI   C2B 6446  15.012  13.980   8.709 -0.1256  0.3800 -0.0781
  403loPI   C3B 6447  14.719  14.168   8.564 -0.0238  0.0128 -0.0901
  403loPI   C4B 6448  14.702  14.629   8.581 -0.1605  0.0366 -0.2138
  404loPI    C1 6449   0.054  10.461   9.728  0.0476 -0.1166 -0.0270
  404loPI    C2 6450   0.292  10.237   9.959  0.0392 -0.1473 -0.0479
  404loPI    C3 6451   0.321  10.636   9.968  0.0944 -0.1513 -0.0536
  404loPI   PO4 6452   0.051  10.432   9.491 -0.2908 -0.0262  0.0888
  404loPI   GL1 6453   0.241  10.209   9.067  0.0331 -0.1571  0.0744
  404loPI   GL2 6454   0.364  10.560   9.040  0.0565  0.1793 -0.3625
  404loPI   C1A 6455   0.099  10.244   8.735  0.1497  0.0999  0.0480
  404loPI   C2A 6456   0.021  10.114   8.301 -0.1241 -0.0907  0.1419
  404loPI   C3A 6457   0.052   9.785   8.048 -0.2731  0.1661  0.0489
  404loPI   C4A 6458   0.009   9.606   7.554 -0.5185  0.0911  0.1126
  404loPI   C5A 6459   0.183   9.416   7.183  0.2022 -0.1174  0.2082
  404loPI   C6A 6460   0.258   9.144   6.837  0.0862 -0.4923 -0.0745
  404loPI   C1B 6461   0.587  10.359   8.670 -0.2684 -0.2262 -0.1765
  404loPI   C2B 6462   0.943  10.428   8.338 -0.0213 -0.4146 -0.2939
  404loPI   C3B 6463   1.000  10.827   8.064  0.2082  0.1212 -0.1561
  404loPI   C4B 6464   0.856  10.911   7.676 -0.2300  0.1558  0.0313
  405loPI    C1 6465  10.141   3.485  10.515  0.0194 -0.1058  0.0370
  405loPI    C2 6466  10.253   3.777  10.764  0.1872  0.0085 -0.1698
  405loPI    C3 6467   9.865   3.712  10.694  0.1182 -0.2832  0.4260
  405loPI   PO4 6468  10.334   3.511  10.305  0.1834 -0.2256  0.2307
  405loPI   GL1 6469  10.405   3.803   9.948 -0.0847  0.0168  0.1795
  405loPI   GL2 6470  10.202   3.897   9.760 -0.0790 -0.0020  0.1372
  405loPI   C1A 6471  10.601   3.645   9.669  0.0876  0.2212  0.1986
  405loPI   C2A 6472  10.735   3.654   9.223 -0.3599 -0.1776 -0.4995
  405loPI   C3A 6473  10.911   3.449   8.854  0.1242  0.0272 -0.0302
  405loPI   C4A 6474  10.840   3.149   8.491  0.0769 -0.1373  0.3419
  405loPI   C5A 6475  10.707   2.747   8.408  0.1162  0.1195  0.1950
  405loPI   C6A 6476  10.967   2.382   8.194 -0.0498  0.0936  0.3081
  405loPI   C1B 6477  10.336   3.939   9.293 -0.3992 -0.2669 -0.2634
  405loPI   C2B 6478  10.432   4.099   8.850 -0.0099  0.0471  0.2251
  405loPI   C3B 6479  10.254   4.111   8.503 -0.1225  0.1616 -0.0301
  405loPI   C4B 6480  10.130   4.189   8.113  0.0311  0.2350  0.1722
  406loPI    C1 6481  15.759   6.496   9.658  0.2583 -0.0395 -0.0851
  406loPI    C2 6482  15.836   6.810   9.893  0.1407 -0.1748  0.1380
  406loPI    C3 6483  15.643   6.493  10.041  0.1685 -0.3107 -0.1125
  406loPI   PO4 6484  15.659   6.635   9.418  0.1235 -0.2967  0.3791
  406loPI   GL1 6485  15.742   6.504   9.010 -0.0754  0.1699 -0.4287
  406loPI   GL2 6486  15.921   6.293   9.149 -0.0150  0.0486  0.3696
  406loPI   C1A 6487  15.348   6.388   8.718 -0.0478 -0.1909 -0.4446
  406loPI   C2A 6488  15.299   6.470   8.310 -0.1589 -0.0912 -0.1483
  406loPI   C3A 6489  15.295   6.582   7.827 -0.1665 -0.0741 -0.0206
  406loPI   C4A 6490  15.292   6.532   7.315  0.0631 -0.0856 -0.0632
  406loPI   C5A 6491  15.485   6.772   6.989  0.0513 -0.1733 -0.0811
  406loPI   C6A 6492  15.922   6.914   7.021 -0.3135  0.2237 -0.0084
  406loPI   C1B 6493  16.190   6.553   8.841 -0.1306 -0.0212 -0.0866
  406loPI   C2B 6494  16.392   6.384   8.433  0.4302 -0.0424 -0.0998
  406loPI   C3B 6495  16.552   6.353   8.113 -0.0876 -0.1402  0.2281
  406loPI   C4B 6496  16.809   6.369   7.701  0.0131  0.1146 -0.3403
  407loPI    C1 6497  14.264  16.997  10.156  0.1484  0.1660 -0.0296
  407loPI    C2 6498  14.492  16.890  10.467 -0.1784 -0.1004  0.1243
  407loPI    C3 6499  14.201  17.160  10.516 -0.2020 -0.1100  0.0388
  407loPI   PO4 6500  14.179  16.711  10.053 -0.0524  0.0783 -0.2131
  407loPI   GL1 6501  13.994  16.457   9.822 -0.0569  0.1224  0.0553
  407loPI   GL2 6502  13.916  16.668   9.546  0.0451 -0.2547  0.0033
  407loPI   C1A 6503  13.753  16.095   9.680 -0.0353 -0.2524 -0.2001
  407loPI   C2A 6504  13.491  15.975   9.333 -0.0096  0.1985  0.0050
  407loPI   C3A 6505  13.482  15.928   8.863 -0.0308 -0.0663 -0.1772
  407loPI   C4A 6506  13.622  16.055   8.310  0.2895  0.1366 -0.0099
  407loPI   C5A 6507  13.784  16.041   8.015  0.2339 -0.0457 -0.0350
  407loPI   C6A 6508  14.132  15.852   8.006  0.0733 -0.0300  0.0681
  407loPI   C1B 6509  13.965  16.998   9.199 -0.0530  0.1148  0.0402
  407loPI   C2B 6510  13.922  17.032   8.841  0.1354  0.0892  0.2490
  407loPI   C3B 6511  13.857  16.827   8.534 -0.0999  0.0564 -0.1472
  407loPI   C4B 6512  14.013  16.489   8.318  0.0930 -0.1692  0.2102
  408loPI    C1 6513   3.326  12.512  10.067 -0.0769  0.1350 -0.0568
  408loPI    C2 6514   3.303  12.460  10.463  0.0938 -0.0125 -0.0651
  408loPI    C3 6515   2.999  12.348  10.228  0.0835 -0.1315  0.0042
  408loPI   PO4 6516   3.426  12.664  10.010  0.4041 -0.0299 -0.0757
  408loPI   GL1 6517   3.659  12.554   9.680  0.0183 -0.0308  0.0349
  408loPI   GL2 6518   3.662  12.881   9.576 -0.3649  0.2453 -0.2736
  408loPI   C1A 6519   3.428  12.477   9.274  0.0784 -0.2699  0.3908
  408loPI   C2A 6520   3.291  12.426   8.899 -0.0951  0.2839 -0.0582
  408loPI   C3A 6521   3.206  12.415   8.513  0.1356  0.0082  0.1176
  408loPI   C4A 6522   3.170  12.406   8.017 -0.1925 -0.4166 -0.1412
  408loPI   C5A 6523   2.950  12.342   7.612 -0.0203 -0.0046 -0.0817
  408loPI   C6A 6524   2.975  12.276   7.253 -0.3032  0.1093  0.1321
  408loPI   C1B 6525   3.484  12.975   9.143 -0.0445  0.1533 -0.1109
  408loPI   C2B 6526   3.344  12.932   8.759 -0.0329  0.0349 -0.0053
  408loPI   C3B 6527   3.387  12.957   8.359  0.0371 -0.2539  0.1150
  408loPI   C4B 6528   3.328  12.864   7.934 -0.1090 -0.3482  0.2708
  409loPI    C1 6529   1.496   4.757   9.767 -0.1515  0.2127 -0.1683
  409loPI    C2 6530   1.275   4.702  10.096  0.2667  0.0620  0.0957
  409loPI    C3 6531   1.506   5.027  10.061 -0.1750  0.3484 -0.2910
  409loPI   PO4 6532   1.439   4.749   9.598  0.1047  0.3410  0.1084
  409loPI   GL1 6533   1.370   4.623   9.122 -0.3692 -0.3660 -0.2167
  409loPI   GL2 6534   1.101   4.484   9.062 -0.0532  0.1870  0.0327
  409loPI   C1A 6535   1.569   4.623   8.710 -0.1325  0.1716 -0.1365
  409loPI   C2A 6536   1.493   4.624   8.206 -0.2343 -0.1704 -0.2019
  409loPI   C3A 6537   1.813   4.883   7.940  0.1515  0.0752 -0.2740
  409loPI   C4A 6538   1.934   4.884   7.443  0.0817 -0.2726  0.1508
  409loPI   C5A 6539   2.129   4.545   7.312  0.0419  0.3484  0.0582
  409loPI   C6A 6540   2.436   4.284   7.260 -0.0545 -0.0217  0.2161
  409loPI   C1B 6541   1.088   4.708   8.622  0.4118 -0.3801 -0.0964
  409loPI   C2B 6542   1.028   4.751   8.145 -0.0343 -0.1819 -0.0758
  409loPI   C3B 6543   1.216   4.945   7.838 -0.1805 -0.2097  0.2497
  409loPI   C4B 6544   1.220   4.822   7.380  0.1679 -0.2330 -0.1415
  410loPI    C1 6545   8.441  12.536   9.768  0.1424  0.0746  0.1701
  410loPI    C2 6546   8.760  12.679   9.963  0.1414 -0.2934  0.4535
  410loPI    C3 6547   8.394  12.814  10.052  0.2053  0.0770  0.1785
  410loPI   PO4 6548   8.498  12.583   9.497 -0.0909  0.1018  0.0061
  410loPI   GL1 6549   8.396  12.486   9.054  0.1558  0.3282  0.0260
  410loPI   GL2 6550   8.785  12.482   9.094 -0.1145  0.3164 -0.0260
  410loPI   C1A 6551   8.490  12.551   8.640 -0.4886  0.2125 -0.1844
  410loPI   C2A 6552   8.694  12.562   8.259  0.1467 -0.0359 -0.0904
  410loPI   C3A 6553   8.852  12.475   7.936 -0.2159  0.3828 -0.4540
  410loPI   C4A 6554   8.821  12.167   7.693 -0.2630  0.0687  0.1928
  410loPI   C5A 6555   8.580  11.876   7.446 -0.1660  0.1007  0.0269
  410loPI   C6A 6556   8.334  11.807   7.140  0.4664  0.0639  0.0280
  410loPI   C1B 6557   8.939  12.353   8.731 -0.0716 -0.0537  0.1819
  410loPI   C2B 6558   9.145  12.328   8.383 -0.1044 -0.3078 -0.1175
  410loPI   C3B 6559   9.305  12.176   8.012 -0.0503  0.2045  0.2783
  410loPI   C4B 6560   9.658  11.956   7.863  0.0386 -0.1887 -0.0452
  411loPI    C1 6561  15.236   4.830   9.920 -0.0754 -0.1491 -0.0556
  411loPI    C2 6562  15.424   4.660  10.229 -0.0413 -0.0294 -0.0099
  411loPI    C3 6563  15.143   4.937  10.294 -0.0112  0.0195 -0.0872
  411loPI   PO4 6564  15.355   4.832   9.700 -0.0439  0.0074 -0.0210
  411loPI   GL1 6565  15.397   4.621   9.397 -0.3856 -0.0053  0.0293
  411loPI   GL2 6566  15.117   4.621   9.341  0.1862  0.0822  0.1535
  411loPI   C1A 6567  15.658   4.625   9.075 -0.1263 -0.4415  0.3393
  411loPI   C2A 6568  15.488   4.838   8.637 -0.0100  0.2114 -0.0584
  411loPI   C3A 6569  15.202   4.854   8.283  0.3791 -0.0906  0.4282
  411loPI   C4A 6570  15.022   4.618   8.039  0.2011 -0.1176 -0.0588
  411loPI   C5A 6571  14.897   4.717   7.540  0.0527  0.1776  0.4723
  411loPI   C6A 6572  14.627   4.610   7.282  0.0815 -0.3487 -0.0579
  411loPI   C1B 6573  14.893   4.400   9.095  0.1008 -0.0480  0.0307
  411loPI   C2B 6574  14.835   4.274   8.650  0.2033 -0.3948  0.1092
  411loPI   C3B 6575  14.854   4.145   8.211 -0.0241  0.0611  0.0190
  411loPI   C4B 6576  15.041   4.131   7.865 -0.0607  0.1610 -0.3882
  412loPI    C1 6577   1.671  14.218   9.963 -0.0306  0.0552  0.0939
  412loPI    C2 6578   1.691  14.032  10.316 -0.0144  0.0248  0.0769
  412loPI    C3 6579   1.681  13.819   9.978 -0.2439  0.0477  0.0682
  412loPI   PO4 6580   1.817  14.354   9.865  0.2074  0.0653 -0.0468
  412loPI   GL1 6581   2.094  14.480   9.525 -0.0377  0.1791  0.1953
  412loPI   GL2 6582   2.186  14.258   9.381  0.2137 -0.3427  0.0107
  412loPI   C1A 6583   1.755  14.573   9.240 -0.2834 -0.0557  0.1476
  412loPI   C2A 6584   1.713  14.855   8.772  0.1927 -0.0550  0.0756
  412loPI   C3A 6585   1.781  15.284   8.673 -0.0362 -0.0512 -0.0908
  412loPI   C4A 6586   2.082  15.484   8.579 -0.2523 -0.2289 -0.0485
  412loPI   C5A 6587   2.460  15.480   8.587  0.3285  0.0950  0.4165
  412loPI   C6A 6588   2.891  15.340   8.472  0.0541 -0.2539  0.0712
  412loPI   C1B 6589   1.904  14.042   9.120  0.1464 -0.2771 -0.1058
  412loPI   C2B 6590   1.541  13.970   8.929 -0.1819  0.0567 -0.0429
  412loPI   C3B 6591   1.319  13.928   8.524 -0.1197  0.0357 -0.0992
  412loPI   C4B 6592   1.278  14.202   8.183 -0.0061 -0.0632  0.3275
  413loPI    C1 6593   4.071   2.590  10.571 -0.1805 -0.0726  0.1339
  413loPI    C2 6594   4.088   2.793  10.226  0.0506  0.0078  0.1907
  413loPI    C3 6595   4.005   2.985  10.567  0.0129 -0.0384  0.2076
  413loPI   PO4 6596   3.974   2.317  10.433 -0.0402  0.2789  0.1645
  413loPI   GL1 6597   3.764   2.391  10.000 -0.3746  0.0782 -0.0504
  413loPI   GL2 6598   3.809   2.648   9.854  0.1223 -0.0577  0.1416
  413loPI   C1A 6599   3.943   2.026   9.854  0.0484 -0.2487  0.3316
  413loPI   C2A 6600   4.181   1.958   9.412 -0.1520  0.0688  0.1627
  413loPI   C3A 6601   4.203   1.896   9.030 -0.0726 -0.2766 -0.0732
  413loPI   C4A 6602   4.337   1.969   8.566  0.2129 -0.2707  0.0672
  413loPI   C5A 6603   4.278   1.969   8.118 -0.2620  0.0093 -0.3163
  413loPI   C6A 6604   4.101   2.076   7.804 -0.3002  0.0861 -0.4778
  413loPI   C1B 6605   3.716   2.409   9.512 -0.0258  0.1564  0.0855
  413loPI   C2B 6606   3.939   2.313   9.155 -0.2052 -0.0759  0.1779
  413loPI   C3B 6607   4.038   2.379   8.768 -0.3714 -0.0408  0.1550
  413loPI   C4B 6608   3.900   2.179   8.316  0.0596 -0.5005 -0.2713
  414loPI    C1 6609   1.865  13.464   9.672  0.3149 -0.0387  0.1221
  414loPI    C2 6610   2.027  13.123   9.804  0.2639 -0.0934  0.0439
  414loPI    C3 6611   2.094  13.465  10.000 -0.0825 -0.2266  0.4081
  414loPI   PO4 6612   1.901  13.468   9.433  0.0806 -0.0002 -0.1184
  414loPI   GL1 6613   1.870  13.477   9.055 -0.0255  0.0275  0.0351
  414loPI   GL2 6614   2.201  13.348   9.047 -0.2398 -0.2582 -0.0165
  414loPI   C1A 6615   1.741  13.626   8.540 -0.0069 -0.1749 -0.1088
  414loPI   C2A 6616   1.807  13.889   8.119  0.0696  0.1325  0.1223
  414loPI   C3A 6617   1.797  14.252   7.961  0.0213  0.0164 -0.1942
  414loPI   C4A 6618   1.988  14.534   7.789  0.2756 -0.0870  0.1084
  414loPI   C5A 6619   2.290  14.690   8.071 -0.1687  0.2278  0.1969
  414loPI   C6A 6620   2.656  14.990   8.218 -0.0329 -0.1116  0.3242
  414loPI   C1B 6621   2.183  13.391   8.670 -0.4743  0.1045  0.1781
  414loPI   C2B 6622   2.087  13.474   8.210  0.1527 -0.2337  0.1732
  414loPI   C3B 6623   2.092  13.418   7.808 -0.0663 -0.1387  0.0814
  414loPI   C4B 6624   2.326  13.434   7.442 -0.0464 -0.2454  0.0286
  415loPI    C1 6625  10.247  15.942  10.431  0.1093 -0.1170  0.0434
  415loPI    C2 6626  10.400  15.786  10.766 -0.1033 -0.3479  0.0358
  415loPI    C3 6627  10.231  16.148  10.773  0.1630 -0.2229  0.1106
  415loPI   PO4 6628  10.447  15.824  10.234  0.2369 -0.0796 -0.0220
  415loPI   GL1 6629  10.614  15.739   9.870  0.0718 -0.0051  0.1396
  415loPI   GL2 6630  10.755  16.011   9.780  0.0059  0.0886  0.1824
  415loPI   C1A 6631  10.686  15.364   9.645 -0.3555 -0.1607  0.1619
  415loPI   C2A 6632  10.610  15.302   9.176 -0.1020 -0.0876  0.2411
  415loPI   C3A 6633  10.693  15.203   8.772  0.4421  0.0890  0.1324
  415loPI   C4A 6634  10.891  15.176   8.317 -0.1830 -0.0157 -0.1422
  415loPI   C5A 6635  10.895  15.453   7.868  0.1919  0.0287  0.0742
  415loPI   C6A 6636  10.935  15.874   7.793 -0.0142  0.1798 -0.2860
  415loPI   C1B 6637  10.703  15.986   9.300 -0.1229  0.3050  0.1013
  415loPI   C2B 6638  10.664  16.280   8.912  0.0357 -0.0657 -0.5195
  415loPI   C3B 6639  10.579  16.447   8.486 -0.1339  0.2222 -0.1708
  415loPI   C4B 6640  10.635  16.428   8.090 -0.3494  0.0365 -0.0514
  416loPI    C1 6641   2.407  10.009  10.098 -0.2539  0.1397 -0.0095
  416loPI    C2 6642   2.670   9.895  10.377 -0.0315  0.0827 -0.2384
  416loPI    C3 6643   2.686  10.265  10.227 -0.0860  0.0812 -0.2485
  416loPI   PO4 6644   2.469   9.840   9.924 -0.0844  0.1662 -0.3028
  416loPI   GL1 6645   2.355   9.798   9.464  0.0760 -0.1135 -0.1692
  416loPI   GL2 6646   2.350   9.579   9.184 -0.1905 -0.0916  0.0988
  416loPI   C1A 6647   2.406  10.140   9.207 -0.1091  0.3383  0.1048
  416loPI   C2A 6648   2.359  10.096   8.712 -0.1717  0.1620  0.5541
  416loPI   C3A 6649   2.506  10.063   8.228 -0.0188 -0.1424 -0.1347
  416loPI   C4A 6650   2.751   9.637   8.132  0.0617  0.0085  0.1352
  416loPI   C5A 6651   2.707   9.342   7.904  0.0684  0.3454 -0.4717
  416loPI   C6A 6652   2.538   8.969   7.692 -0.2724 -0.3360 -0.3191
  416loPI   C1B 6653   2.350   9.590   8.725 -0.0505 -0.0011 -0.2123
  416loPI   C2B 6654   2.118   9.811   8.367 -0.1353  0.1157 -0.1856
  416loPI   C3B 6655   2.330   9.696   7.948  0.0098  0.3942  0.0637
  416loPI   C4B 6656   2.287   9.511   7.476  0.1348 -0.2547  0.1342
  417loPI    C1 6657   4.341  16.320  10.281 -0.0887  0.0529 -0.0722
  417loPI    C2 6658   4.237  15.939  10.345 -0.1114  0.0417 -0.1740
  417loPI    C3 6659   4.511  16.114  10.579 -0.0514 -0.0577 -0.1693
  417loPI   PO4 6660   4.317  16.332  10.041 -0.0570  0.2211  0.3742
  417loPI   GL1 6661   4.256  16.121   9.737 -0.2740  0.0935  0.0256
  417loPI   GL2 6662   3.912  16.048   9.698  0.0490 -0.0325  0.1815
  417loPI   C1A 6663   4.316  15.979   9.354  0.0519  0.0292 -0.0727
  417loPI   C2A 6664   4.431  15.996   8.899  0.0522 -0.2516  0.0214
  417loPI   C3A 6665   4.455  15.849   8.559 -0.4767 -0.0923  0.0747
  417loPI   C4A 6666   4.372  16.018   8.147 -0.0608 -0.1464 -0.0937
  417loPI   C5A 6667   4.337  16.262   7.721  0.0534 -0.2546 -0.1224
  417loPI   C6A 6668   4.076  16.445   7.362 -0.1340 -0.0734  0.1035
  417loPI   C1B 6669   3.839  15.760   9.297  0.3447  0.0332  0.2526
  417loPI   C2B 6670   4.048  15.689   8.906 -0.0583 -0.1532  0.1935
  417loPI   C3B 6671   3.866  15.797   8.564  0.1952  0.0472  0.1827
  417loPI   C4B 6672   3.590  15.817   8.167 -0.0268 -0.1315  0.0362
  418loPI    C1 6673   5.115   2.583  10.283  0.1076  0.3027 -0.1238
  418loPI    C2 6674   5.026   2.477   9.908  0.0988  0.2335 -0.1023
  418loPI    C3 6675   4.762   2.684  10.126 -0.0044  0.0427 -0.0440
  418loPI   PO4 6676   5.480   2.430  10.232  0.3131 -0.1143 -0.1012
  418loPI   GL1 6677   5.656   2.399   9.834 -0.2970 -0.1949  0.0856
  418loPI   GL2 6678   5.419   2.141   9.801  0.2433  0.1653 -0.0706
  418loPI   C1A 6679   5.717   2.270   9.344  0.0508 -0.2174 -0.1988
  418loPI   C2A 6680   5.742   2.153   8.884  0.1187  0.0452  0.1010
  418loPI   C3A 6681   5.701   1.883   8.585  0.2415 -0.1534 -0.3176
  418loPI   C4A 6682   5.584   1.759   8.196  0.1281  0.0593  0.0817
  418loPI   C5A 6683   5.350   1.995   7.898  0.1509 -0.1587 -0.4264
  418loPI   C6A 6684   5.351   1.917   7.473 -0.0600  0.1153 -0.0313
  418loPI   C1B 6685   5.138   2.149   9.566 -0.1430  0.0694  0.2013
  418loPI   C2B 6686   5.158   2.023   9.115 -0.2231  0.3750  0.1046
  418loPI   C3B 6687   5.240   2.142   8.735  0.1871  0.0781  0.2328
  418loPI   C4B 6688   5.078   2.060   8.314 -0.1612 -0.1070 -0.0353
  419loPI    C1 6689  15.212   8.503   9.957  0.1253  0.1767  0.0542
  419loPI    C2 6690  15.373   8.183  10.135 -0.3762 -0.0522  0.1125
  419loPI    C3 6691  15.546   8.541  10.174  0.1101 -0.2848  0.1698
  419loPI   PO4 6692  15.195   8.457   9.730  0.0336  0.2807 -0.0990
  419loPI   GL1 6693  15.359   8.545   9.370  0.0813  0.2116 -0.2986
  419loPI   GL2 6694  15.106   8.741   9.331 -0.0304  0.2105 -0.2614
  419loPI   C1A 6695  15.399   8.597   8.961  0.1732 -0.0354 -0.2365
  419loPI   C2A 6696  15.346   8.699   8.528  0.0645 -0.3227 -0.1285
  419loPI   C3A 6697  15.364   8.521   8.165  0.1959  0.0406  0.3822
  419loPI   C4A 6698  15.257   8.444   7.722  0.0102 -0.0953 -0.4018
  419loPI   C5A 6699  15.377   8.137   7.419  0.1334  0.0164  0.3145
  419loPI   C6A 6700  15.665   7.774   7.233  0.3065  0.1747  0.1412
  419loPI   C1B 6701  15.109   8.989   8.896  0.2183  0.3788 -0.0084
  419loPI   C2B 6702  15.255   9.191   8.504  0.2438 -0.0995  0.2664
  419loPI   C3B 6703  15.384   9.103   8.123  0.2793 -0.0946 -0.0637
  419loPI   C4B 6704  15.382   8.912   7.663  0.4565  0.0405 -0.0301
  420loPI    C1 6705  12.071   6.857  10.150  0.0245  0.0879 -0.0003
  420loPI    C2 6706  12.077   7.105  10.464  0.0567 -0.2369  0.2616
  420loPI    C3 6707  11.773   7.119  10.204 -0.1507 -0.2015  0.5024
  420loPI   PO4 6708  12.110   6.626  10.179  0.0226 -0.0980 -0.0870
  420loPI   GL1 6709  12.321   6.512   9.728  0.1001 -0.1639  0.3264
  420loPI   GL2 6710  12.089   6.629   9.594  0.0600  0.3307 -0.0792
  420loPI   C1A 6711  12.483   6.257   9.398  0.0877 -0.1734 -0.2583
  420loPI   C2A 6712  12.770   6.050   9.144 -0.1245  0.0187 -0.3499
  420loPI   C3A 6713  12.845   5.926   8.690  0.2725  0.0865 -0.1619
  420loPI   C4A 6714  12.732   5.823   8.317  0.1386  0.0669  0.1091
  420loPI   C5A 6715  12.391   5.806   8.038  0.2041  0.1107 -0.2207
  420loPI   C6A 6716  12.119   5.707   7.788  0.0622 -0.1358  0.1314
  420loPI   C1B 6717  12.007   6.386   9.263  0.2014  0.4110 -0.1043
  420loPI   C2B 6718  11.866   6.413   8.899  0.0251  0.1527 -0.0562
  420loPI   C3B 6719  11.906   6.206   8.561 -0.2828 -0.2378  0.2129
  420loPI   C4B 6720  11.997   6.142   8.054 -0.2347 -0.1312 -0.0408
  421loPI    C1 6721   0.107   6.943   9.634  0.1096  0.0879  0.0150
  421loPI    C2 6722   0.460   7.096   9.525  0.2542 -0.1288  0.1700
  421loPI    C3 6723   0.305   7.185   9.883  0.1092  0.0334  0.0686
  421loPI   PO4 6724   0.130   6.662   9.501 -0.1790 -0.1717  0.2046
  421loPI   GL1 6725   0.033   6.763   9.136  0.2522  0.0572 -0.1715
  421loPI   GL2 6726   0.232   6.882   9.075 -0.0216 -0.1165  0.1572
  421loPI   C1A 6727  -0.323   6.924   8.869 -0.1000 -0.1195  0.0885
  421loPI   C2A 6728  -0.429   7.086   8.537 -0.2527  0.0494  0.2609
  421loPI   C3A 6729  -0.466   7.143   8.131 -0.0832 -0.0823  0.1983
  421loPI   C4A 6730  -0.287   7.089   7.684 -0.1286  0.0493  0.0389
  421loPI   C5A 6731  -0.439   7.049   7.289  0.1713  0.1873 -0.2743
  421loPI   C6A 6732  -0.755   7.182   6.996  0.2250  0.2505 -0.0662
  421loPI   C1B 6733   0.359   6.959   8.695 -0.2277  0.2396 -0.1693
  421loPI   C2B 6734   0.332   7.121   8.321 -0.1256  0.3180  0.2235
  421loPI   C3B 6735   0.159   7.187   7.998 -0.0368  0.0902  0.0554
  421loPI   C4B 6736   0.103   7.503   7.680 -0.0583  0.3132 -0.0569
  422loPI    C1 6737   5.061   6.760  10.178  0.2054  0.0556 -0.1369
  422loPI    C2 6738   5.246   6.858  10.519  0.1396  0.0207 -0.0909
  422loPI    C3 6739   4.883   7.005  10.439 -0.0969 -0.4281  0.1246
  422loPI   PO4 6740   5.132   6.858   9.906 -0.2591 -0.0571 -0.2212
  422loPI   GL1 6741   5.303   6.632   9.569  0.3901  0.0116  0.0731
  422loPI   GL2 6742   5.174   6.937   9.400 -0.1504  0.3573 -0.0038
  422loPI   C1A 6743   5.350   6.525   9.169  0.1019  0.1669 -0.0946
  422loPI   C2A 6744   5.476   6.587   8.758  0.2518  0.1065  0.0437
  422loPI   C3A 6745   5.689   6.533   8.334  0.3852 -0.1168  0.1995
  422loPI   C4A 6746   6.014   6.294   8.294  0.0354  0.1968 -0.1540
  422loPI   C5A 6747   6.206   6.162   7.935 -0.0787 -0.0869 -0.0102
  422loPI   C6A 6748   6.340   5.844   7.786  0.0156 -0.3180 -0.2537
  422loPI   C1B 6749   5.295   7.043   8.932  0.0692  0.0219  0.1265
  422loPI   C2B 6750   5.301   6.994   8.561  0.0958  0.3298 -0.0998
  422loPI   C3B 6751   5.071   7.186   8.216 -0.2540  0.3207 -0.4647
  422loPI   C4B 6752   4.797   7.003   7.894  0.2182 -0.2011 -0.3334
  423loPI    C1 6753  17.828   9.824   9.667 -0.2121  0.1954 -0.1651
  423loPI    C2 6754  17.611   9.925   9.988  0.1682 -0.1032  0.1983
  423loPI    C3 6755  17.984  10.063   9.948  0.1482 -0.1246 -0.0834
  423loPI   PO4 6756  17.611   9.761   9.518  0.1557  0.2600  0.0654
  423loPI   GL1 6757  17.434   9.786   9.139 -0.1917 -0.2259 -0.1980
  423loPI   GL2 6758  17.527   9.490   9.072 -0.0725 -0.2049 -0.0143
  423loPI   C1A 6759  17.313  10.130   8.976 -0.3254  0.1959  0.0526
  423loPI   C2A 6760  17.451  10.389   8.734  0.0639 -0.2016  0.2109
  423loPI   C3A 6761  17.360  10.387   8.326  0.0053 -0.0905 -0.1241
  423loPI   C4A 6762  17.631  10.479   7.968  0.1585 -0.1088 -0.5723
  423loPI   C5A 6763  17.791  10.404   7.599  0.0375 -0.2751  0.0477
  423loPI   C6A 6764  18.178  10.184   7.406 -0.2468 -0.1647  0.2184
  423loPI   C1B 6765  17.455   9.580   8.690  0.0481  0.0950  0.1523
  423loPI   C2B 6766  17.439   9.536   8.270 -0.0783 -0.0716  0.1922
  423loPI   C3B 6767  17.438   9.615   7.776  0.0973  0.2477  0.2159
  423loPI   C4B 6768  17.027   9.694   7.472  0.2257  0.1859  0.2660
  424loPI    C1 6769  11.295   0.286  10.621  0.1774 -0.1168  0.1830
  424loPI    C2 6770  11.467   0.592  10.812 -0.1856  0.1128  0.1515
  424loPI    C3 6771  11.240   0.332  11.014  0.1084 -0.1314  0.1752
  424loPI   PO4 6772  11.472   0.244  10.463  0.0170  0.0598  0.1646
  424loPI   GL1 6773  11.352   0.479  10.101  0.1758 -0.1127 -0.2207
  424loPI   GL2 6774  11.398   0.704  10.313 -0.1185  0.4650  0.2410
  424loPI   C1A 6775  11.490   0.526   9.770 -0.2037 -0.1544  0.3754
  424loPI   C2A 6776  11.537   0.679   9.425  0.4119 -0.0196  0.1086
  424loPI   C3A 6777  11.368   0.629   8.906  0.0633  0.2568  0.2326
  424loPI   C4A 6778  11.131   0.682   8.529 -0.1687 -0.0196 -0.1213
  424loPI   C5A 6779  11.255   0.870   8.121 -0.0235  0.2256 -0.1787
  424loPI   C6A 6780  11.267   1.065   7.673 -0.0295  0.0721 -0.0124
  424loPI   C1B 6781  11.565   0.994   9.950 -0.0065 -0.2787  0.1957
  424loPI   C2B 6782  11.531   1.180   9.554  0.0876 -0.2176 -0.1534
  424loPI   C3B 6783  11.557   1.215   9.113  0.3398  0.1667  0.1906
  424loPI   C4B 6784  11.461   1.030   8.681 -0.1011  0.2937 -0.2897
  425loPI    C1 6785   9.941   9.152  10.257  0.1413 -0.0336  0.0836
  425loPI    C2 6786  10.017   9.438   9.988 -0.2001 -0.0972 -0.0865
  425loPI    C3 6787  10.319   9.239  10.160  0.0245  0.0021 -0.3589
  425loPI   PO4 6788   9.738   9.060  10.110  0.0395 -0.1184 -0.0960
  425loPI   GL1 6789   9.635   9.182   9.802 -0.1563 -0.0030 -0.1355
  425loPI   GL2 6790   9.878   9.040   9.647  0.2135  0.1621 -0.0429
  425loPI   C1A 6791   9.481   9.292   9.427  0.1188 -0.3200 -0.1321
  425loPI   C2A 6792   9.370   9.659   9.042  0.0702 -0.0113  0.0188
  425loPI   C3A 6793   9.210   9.792   8.673  0.0743  0.1984  0.1895
  425loPI   C4A 6794   9.229   9.555   8.248  0.3264 -0.0302  0.1517
  425loPI   C5A 6795   9.227   9.395   7.789 -0.0449 -0.0865  0.2271
  425loPI   C6A 6796   8.976   9.444   7.458 -0.1194 -0.0396  0.1538
  425loPI   C1B 6797  10.277   8.886   9.364  0.0505 -0.2002  0.0632
  425loPI   C2B 6798  10.236   8.672   8.941 -0.2248  0.0184 -0.1273
  425loPI   C3B 6799  10.430   8.812   8.429 -0.3028 -0.2817 -0.1107
  425loPI   C4B 6800  10.482   8.741   7.945  0.2877  0.0218 -0.0292
  426loPI    C1 6801   9.169  18.221  10.551  0.2731  0.1954  0.0404
  426loPI    C2 6802   8.931  18.519  10.674  0.0142  0.0326 -0.0573
  426loPI    C3 6803   9.053  18.240  10.934 -0.1905 -0.0786 -0.0784
  426loPI   PO4 6804   9.052  18.113  10.348  0.0088  0.0020  0.0167
  426loPI   GL1 6805   8.884  18.106   9.926 -0.3278  0.0310  0.0329
  426loPI   GL2 6806   9.179  17.962   9.892  0.1139  0.3390  0.0287
  426loPI   C1A 6807   8.640  18.321   9.668  0.1686  0.0128 -0.2557
  426loPI   C2A 6808   8.535  18.268   9.240 -0.0277 -0.1055 -0.1584
  426loPI   C3A 6809   8.499  18.138   8.841 -0.0089 -0.2120  0.1120
  426loPI   C4A 6810   8.309  17.818   8.611  0.2294 -0.1536 -0.2426
  426loPI   C5A 6811   7.987  17.855   8.310 -0.0794 -0.0122 -0.0743
  426loPI   C6A 6812   7.795  17.887   7.946  0.2762  0.0317 -0.0855
  426loPI   C1B 6813   9.066  18.054   9.428  0.0479  0.0141  0.1889
  426loPI   C2B 6814   8.998  18.292   9.173 -0.3523  0.0279  0.5520
  426loPI   C3B 6815   8.886  18.448   8.754 -0.0594 -0.0821  0.2204
  426loPI   C4B 6816   9.050  18.648   8.369 -0.1767 -0.0412 -0.0790
  427loPI    C1 6817   8.550   4.554  10.279  0.3801  0.0965 -0.2048
  427loPI    C2 6818   8.676   4.306  10.566 -0.0206  0.0181 -0.0908
  427loPI    C3 6819   8.523   4.663  10.663  0.1082  0.1117 -0.2265
  427loPI   PO4 6820   8.427   4.371  10.140  0.1393 -0.0245  0.1761
  427loPI   GL1 6821   8.189   4.329   9.806 -0.0165 -0.0384 -0.0975
  427loPI   GL2 6822   8.450   4.483   9.656 -0.1216  0.1284 -0.1570
  427loPI   C1A 6823   8.016   4.485   9.434  0.0646 -0.1132 -0.0790
  427loPI   C2A 6824   7.929   4.448   9.083 -0.0660  0.0213 -0.0721
  427loPI   C3A 6825   7.664   4.443   8.775  0.0233  0.0002 -0.0674
  427loPI   C4A 6826   7.280   4.377   8.408 -0.3058  0.1790  0.1061
  427loPI   C5A 6827   7.221   4.185   8.111  0.1321 -0.2578  0.1511
  427loPI   C6A 6828   7.309   4.018   7.666  0.0453 -0.4563 -0.0904
  427loPI   C1B 6829   8.417   4.811   9.453 -0.3098 -0.0670 -0.1278
  427loPI   C2B 6830   8.287   4.754   9.011 -0.1272  0.2205  0.3395
  427loPI   C3B 6831   8.135   4.732   8.570 -0.0578  0.0191 -0.0402
  427loPI   C4B 6832   8.271   4.774   8.192  0.1250  0.1944  0.1604
  428loPI    C1 6833   3.562  16.709  10.310 -0.0934  0.1222 -0.1758
  428loPI    C2 6834   3.908  16.533  10.405 -0.2623 -0.0989  0.0465
  428loPI    C3 6835   3.597  16.509  10.655 -0.3671  0.3053 -0.0379
  428loPI   PO4 6836   3.412  16.640  10.091  0.0000 -0.0249 -0.2169
  428loPI   GL1 6837   3.391  16.629   9.647  0.1061  0.1755  0.2627
  428loPI   GL2 6838   3.205  16.858   9.456  0.3302  0.1835  0.1434
  428loPI   C1A 6839   3.577  16.658   9.174 -0.1713 -0.2063 -0.0686
  428loPI   C2A 6840   3.600  16.420   8.828  0.1599 -0.2157  0.3508
  428loPI   C3A 6841   3.329  16.577   8.542 -0.2094  0.0839 -0.1263
  428loPI   C4A 6842   3.244  16.799   8.154 -0.0816 -0.2104 -0.0518
  428loPI   C5A 6843   3.306  16.733   7.801 -0.1462 -0.1133  0.0129
  428loPI   C6A 6844   3.326  16.325   7.552 -0.1681  0.0492  0.0703
  428loPI   C1B 6845   3.140  16.784   9.048  0.0532 -0.0649  0.1484
  428loPI   C2B 6846   3.352  17.021   8.707 -0.1102  0.2290  0.1391
  428loPI   C3B 6847   3.158  17.226   8.422 -0.1874  0.0771 -0.0269
  428loPI   C4B 6848   3.227  17.350   7.984 -0.2098 -0.0461 -0.2495
  429loPI    C1 6849   9.522   1.906  10.398 -0.1997 -0.1625 -0.0005
  429loPI    C2 6850   9.720   1.877  10.745  0.0363 -0.0415 -0.1222
  429loPI    C3 6851   9.445   1.603  10.648  0.0418 -0.1331  0.1131
  429loPI   PO4 6852   9.546   2.225  10.396 -0.4186  0.2282 -0.1037
  429loPI   GL1 6853   9.810   2.465  10.194 -0.4197  0.0356  0.0147
  429loPI   GL2 6854   9.905   2.339   9.918  0.0532 -0.0489  0.2266
  429loPI   C1A 6855   9.624   2.766   9.923 -0.1892 -0.0494 -0.1398
  429loPI   C2A 6856   9.616   2.784   9.475  0.1808 -0.3472 -0.0589
  429loPI   C3A 6857   9.685   2.666   9.160  0.0646 -0.2658  0.2254
  429loPI   C4A 6858   9.827   2.622   8.761  0.3611 -0.0530 -0.0313
  429loPI   C5A 6859   9.845   2.861   8.427 -0.0336  0.1634 -0.2971
  429loPI   C6A 6860   9.767   2.924   8.026  0.4437  0.0002  0.1754
  429loPI   C1B 6861  10.062   2.421   9.446  0.0365 -0.1467  0.0074
  429loPI   C2B 6862  10.172   2.347   9.096  0.1695  0.2227 -0.1156
  429loPI   C3B 6863  10.261   2.162   8.738  0.1051 -0.0378 -0.1551
  429loPI   C4B 6864  10.488   2.291   8.372  0.1682  0.0401 -0.2083
  430loPI    C1 6865   3.770  12.374  10.243 -0.0333 -0.0029  0.2374
  430loPI    C2 6866   3.680  12.108   9.958 -0.0240  0.1672  0.0743
  430loPI    C3 6867   3.528  12.067  10.326  0.1616 -0.1928  0.1147
  430loPI   PO4 6868   4.024  12.443  10.009 -0.0706  0.1235  0.0492
  430loPI   GL1 6869   4.160  12.389   9.609 -0.1698  0.1179 -0.1071
  430loPI   GL2 6870   4.447  12.283   9.468 -0.0912  0.2088  0.2459
  430loPI   C1A 6871   3.978  12.591   9.192  0.4964  0.0459 -0.0446
  430loPI   C2A 6872   3.797  12.699   8.863 -0.2053  0.1852 -0.2139
  430loPI   C3A 6873   3.737  12.597   8.468 -0.0009  0.1096 -0.1251
  430loPI   C4A 6874   3.691  12.552   8.046  0.2639  0.0817 -0.2843
  430loPI   C5A 6875   3.465  12.518   7.611 -0.0882  0.5051  0.0184
  430loPI   C6A 6876   3.142  12.772   7.431  0.2260 -0.2594  0.0951
  430loPI   C1B 6877   4.498  12.699   9.273  0.0246 -0.0745 -0.2599
  430loPI   C2B 6878   4.339  12.755   8.906 -0.1590  0.1093  0.2783
  430loPI   C3B 6879   4.274  12.784   8.521 -0.0059 -0.0354 -0.2589
  430loPI   C4B 6880   4.201  12.858   8.114 -0.2804 -0.1246  0.0150
  431loPI    C1 6881   4.200   8.457  10.011 -0.0842 -0.0430 -0.1937
  431loPI    C2 6882   3.838   8.384   9.857 -0.1524 -0.0313 -0.0407
  431loPI    C3 6883   3.872   8.545  10.221  0.0048  0.1654 -0.1396
  431loPI   PO4 6884   4.270   8.617   9.787  0.0298  0.3772 -0.0678
  431loPI   GL1 6885   4.171   8.755   9.427 -0.0894 -0.0970  0.0594
  431loPI   GL2 6886   3.811   8.716   9.437 -0.2830  0.3215 -0.1012
  431loPI   C1A 6887   4.088   8.801   9.058  0.0062 -0.0208  0.1224
  431loPI   C2A 6888   3.920   8.904   8.679  0.0817 -0.2802 -0.1522
  431loPI   C3A 6889   4.034   8.747   8.254  0.3613 -0.0718 -0.1588
  431loPI   C4A 6890   4.133   8.654   7.922 -0.0678  0.0413 -0.2477
  431loPI   C5A 6891   4.366   8.351   7.758 -0.1645 -0.1239  0.1905
  431loPI   C6A 6892   4.452   7.950   7.457 -0.3201  0.1906 -0.0208
  431loPI   C1B 6893   3.558   8.619   9.098 -0.0123  0.0558  0.3458
  431loPI   C2B 6894   3.565   8.505   8.650 -0.1449  0.2301 -0.1289
  431loPI   C3B 6895   3.591   8.428   8.383 -0.0220  0.1875  0.0712
  431loPI   C4B 6896   3.256   8.500   8.147 -0.2004 -0.1358 -0.0452
  432loPI    C1 6897  12.084   1.259  10.496 -0.0985 -0.0063  0.0467
  432loPI    C2 6898  12.193   1.528  10.772 -0.0382  0.0316 -0.0140
  432loPI    C3 6899  11.839   1.561  10.588 -0.0069  0.1015 -0.0617
  432loPI   PO4 6900  12.260   1.267  10.345  0.2215 -0.2061  0.0052
  432loPI   GL1 6901  12.062   1.123   9.968 -0.0729  0.3267 -0.1046
  432loPI   GL2 6902  12.389   1.121   9.799  0.0274 -0.0699 -0.1918
  432loPI   C1A 6903  11.990   1.381   9.606  0.0659  0.1107  0.3231
  432loPI   C2A 6904  12.046   1.358   9.158 -0.1780 -0.0593  0.2847
  432loPI   C3A 6905  11.958   1.244   8.658  0.2883  0.2010 -0.0042
  432loPI   C4A 6906  12.117   1.177   8.285  0.2067  0.2404  0.1133
  432loPI   C5A 6907  12.066   0.831   7.977  0.2218 -0.1430  0.0446
  432loPI   C6A 6908  11.735   0.603   7.976 -0.1826 -0.2740 -0.3310
  432loPI   C1B 6909  12.480   1.110   9.378  0.0780 -0.5512  0.1777
  432loPI   C2B 6910  12.425   1.086   8.854  0.2547  0.1768 -0.0783
  432loPI   C3B 6911  12.595   1.047   8.388 -0.1414 -0.0079  0.3416
  432loPI   C4B 6912  12.523   1.200   8.007  0.2240 -0.1492  0.1475
  433loPI    C1 6913   2.351   7.526  10.189 -0.1593  0.2381  0.0789
  433loPI    C2 6914   1.978   7.491  10.050 -0.0331  0.0697 -0.2271
  433loPI    C3 6915   2.091   7.825  10.238 -0.3828  0.0577  0.0141
  433loPI   PO4 6916   2.472   7.400  10.018  0.1430 -0.3034  0.1902
  433loPI   GL1 6917   2.699   7.676   9.646 -0.2206  0.5261  0.0650
  433loPI   GL2 6918   3.075   7.558   9.723  0.0356 -0.0122 -0.0763
  433loPI   C1A 6919   2.541   7.707   9.265  0.1661  0.3143 -0.0382
  433loPI   C2A 6920   2.327   7.591   8.927  0.0566  0.2862  0.0134
  433loPI   C3A 6921   2.383   7.596   8.490  0.1412 -0.2011 -0.0702
  433loPI   C4A 6922   2.256   7.670   8.169 -0.5806 -0.1190  0.1487
  433loPI   C5A 6923   2.117   7.654   7.752  0.0670 -0.4088  0.0664
  433loPI   C6A 6924   1.886   7.438   7.415 -0.2519  0.2544  0.0732
  433loPI   C1B 6925   3.411   7.637   9.417  0.0304 -0.3484  0.0785
  433loPI   C2B 6926   3.679   7.548   9.153  0.0171 -0.2602 -0.1298
  433loPI   C3B 6927   3.834   7.379   8.813  0.0009 -0.1605 -0.3408
  433loPI   C4B 6928   3.890   7.432   8.393  0.0112  0.1824 -0.1622
  434loPI    C1 6929   0.385   4.158   9.779  0.0529 -0.2308  0.0208
  434loPI    C2 6930   0.326   3.772   9.866  0.1413 -0.2173  0.1429
  434loPI    C3 6931   0.247   4.052  10.140 -0.1169 -0.1330 -0.0139
  434loPI   PO4 6932   0.238   4.182   9.538 -0.3935  0.2029  0.2849
  434loPI   GL1 6933   0.157   4.117   9.055 -0.0327  0.0328  0.0028
  434loPI   GL2 6934   0.282   3.794   9.033 -0.0867 -0.3648 -0.0249
  434loPI   C1A 6935   0.427   4.125   8.663 -0.4605 -0.0849 -0.1834
  434loPI   C2A 6936   0.268   3.954   8.237 -0.0671 -0.2443  0.0934
  434loPI   C3A 6937   0.183   4.095   7.808 -0.0175 -0.2704 -0.0996
  434loPI   C4A 6938   0.319   4.330   7.427  0.0169 -0.2892  0.2164
  434loPI   C5A 6939   0.151   4.314   7.016 -0.2524 -0.2170 -0.1539
  434loPI   C6A 6940   0.016   4.035   6.757 -0.0811 -0.0516 -0.3158
  434loPI   C1B 6941   0.252   3.389   8.903 -0.2089  0.0369 -0.0876
  434loPI   C2B 6942   0.474   3.024   8.786 -0.1857  0.0168 -0.1228
  434loPI   C3B 6943   0.542   2.996   8.291  0.0761  0.2568  0.0902
  434loPI   C4B 6944   0.859   2.971   8.052  0.1124 -0.0680 -0.0839
  435loPI    C1 6945  13.816  18.496  10.715 -0.1500  0.1974 -0.0402
  435loPI    C2 6946  13.937  18.872  10.656  0.2065  0.0942  0.0093
  435loPI    C3 6947  14.193  18.600  10.798 -0.0268 -0.1862 -0.0982
  435loPI   PO4 6948  13.661  18.480  10.503 -0.0796  0.1880  0.4329
  435loPI   GL1 6949  13.500  18.439  10.046  0.0681  0.1195 -0.0525
  435loPI   GL2 6950  13.243  18.689  10.022  0.0886  0.0738 -0.2934
  435loPI   C1A 6951  13.735  18.363   9.635 -0.1472  0.0233 -0.1151
  435loPI   C2A 6952  13.703  18.281   9.211  0.1536  0.1323 -0.3339
  435loPI   C3A 6953  13.854  18.364   8.852  0.1945  0.1701  0.1290
  435loPI   C4A 6954  13.904  18.331   8.421 -0.2042  0.3619  0.0032
  435loPI   C5A 6955  13.899  18.403   8.054 -0.2834  0.1620 -0.1233
  435loPI   C6A 6956  13.663  18.258   7.757  0.2194 -0.0518 -0.0674
  435loPI   C1B 6957  13.146  18.329   9.711  0.2830 -0.1790  0.0991
  435loPI   C2B 6958  12.896  18.291   9.272 -0.3133 -0.1500 -0.2392
  435loPI   C3B 6959  12.627  18.163   9.024 -0.0038  0.0635 -0.2899
  435loPI   C4B 6960  12.437  17.823   8.756 -0.3211 -0.0501  0.2701
  436loPI    C1 6961  14.952   1.376  10.310 -0.1321 -0.1880 -0.0094
  436loPI    C2 6962  15.311   1.264  10.174 -0.0796 -0.0813  0.0401
  436loPI    C3 6963  15.233   1.253  10.566 -0.0777  0.0432  0.0443
  436loPI   PO4 6964  14.897   1.532  10.191  0.0238  0.0885 -0.1629
  436loPI   GL1 6965  14.769   1.561   9.839  0.2678 -0.0811 -0.0660
  436loPI   GL2 6966  14.975   1.283   9.790  0.0415 -0.2389 -0.3027
  436loPI   C1A 6967  14.672   1.404   9.404  0.2769  0.0356  0.2378
  436loPI   C2A 6968  14.608   1.393   8.975 -0.2953 -0.3361 -0.1211
  436loPI   C3A 6969  14.393   1.214   8.548 -0.0191  0.4446  0.1248
  436loPI   C4A 6970  14.429   1.182   8.118  0.1956 -0.1603 -0.1158
  436loPI   C5A 6971  14.300   1.425   7.870  0.1174  0.0625  0.3149
  436loPI   C6A 6972  14.261   1.957   7.886 -0.1582  0.1623 -0.2938
  436loPI   C1B 6973  14.636   0.985   9.733  0.0894 -0.0266 -0.0936
  436loPI   C2B 6974  14.411   1.004   9.470 -0.0090  0.2090 -0.1719
  436loPI   C3B 6975  14.173   1.362   9.296 -0.1105 -0.2284  0.1207
  436loPI   C4B 6976  14.271   1.747   9.202 -0.0074 -0.2399 -0.0877
  437loPI    C1 6977   6.473   0.976  10.766  0.1483 -0.1542 -0.0050
  437loPI    C2 6978   6.631   1.135  11.097  0.2077  0.0980 -0.1517
  437loPI    C3 6979   6.243   1.041  11.086  0.2230  0.0115  0.0165
  437loPI   PO4 6980   6.594   1.061  10.569  0.1782 -0.1465  0.1949
  437loPI   GL1 6981   6.584   1.026  10.039  0.1362 -0.0886 -0.3103
  437loPI   GL2 6982   6.640   1.159   9.760  0.1495 -0.2279 -0.1451
  437loPI   C1A 6983   6.343   0.803   9.811  0.0265  0.3527 -0.0427
  437loPI   C2A 6984   6.380   0.611   9.504 -0.2729  0.0887 -0.0245
  437loPI   C3A 6985   6.374   0.346   9.199 -0.1757  0.1604  0.0800
  437loPI   C4A 6986   6.742   0.119   8.910 -0.0042  0.0443  0.1165
  437loPI   C5A 6987   6.809   0.045   8.555 -0.0883 -0.0343 -0.1087
  437loPI   C6A 6988   6.854  -0.236   8.124 -0.1037 -0.2545 -0.0805
  437loPI   C1B 6989   6.503   1.185   9.353 -0.5992  0.0311  0.2599
  437loPI   C2B 6990   6.656   1.230   8.948 -0.2719  0.0297 -0.0705
  437loPI   C3B 6991   6.818   1.069   8.577  0.0465  0.2950 -0.0225
  437loPI   C4B 6992   6.706   0.811   8.177  0.3234 -0.0408  0.0774
  438loPI    C1 6993   2.592  14.664   9.814  0.1643  0.0853 -0.4349
  438loPI    C2 6994   2.449  14.295   9.873 -0.0989  0.2413 -0.0590
  438loPI    C3 6995   2.769  14.351   9.639  0.0068 -0.2340 -0.0365
  438loPI   PO4 6996   2.411  14.819   9.707  0.0565  0.0361  0.0457
  438loPI   GL1 6997   2.258  15.010   9.404 -0.2092 -0.0473  0.1709
  438loPI   GL2 6998   2.037  15.285   9.554  0.0832 -0.2411 -0.0422
  438loPI   C1A 6999   2.133  15.108   8.985  0.0801  0.0628  0.1442
  438loPI   C2A 7000   2.193  14.972   8.526 -0.1046 -0.1284  0.0127
  438loPI   C3A 7001   2.015  15.080   8.179 -0.2437 -0.2349  0.0799
  438loPI   C4A 7002   1.943  15.133   7.722  0.3134 -0.3608 -0.0727
  438loPI   C5A 7003   2.025  15.280   7.319  0.1866 -0.1407  0.0298
  438loPI   C6A 7004   1.826  15.189   6.878 -0.0417  0.1554  0.1069
  438loPI   C1B 7005   2.207  15.542   9.240 -0.1454 -0.2971  0.3723
  438loPI   C2B 7006   2.348  15.806   8.914  0.0815  0.2482  0.2243
  438loPI   C3B 7007   2.413  16.083   8.528  0.1620  0.0622 -0.0317
  438loPI   C4B 7008   2.500  16.150   7.974  0.0045 -0.2095 -0.2481
  439loPI    C1 7009  18.066  13.024  10.018 -0.1502  0.0113  0.0884
  439loPI    C2 7010  17.935  13.085  10.391 -0.2822 -0.2506  0.0868
  439loPI    C3 7011  18.319  12.992  10.327 -0.1857  0.1072  0.1277
  439loPI   PO4 7012  18.008  13.254   9.831  0.1613  0.1267  0.0521
  439loPI   GL1 7013  18.157  13.422   9.422  0.0431 -0.2343  0.3814
  439loPI   GL2 7014  17.850  13.360   9.246  0.0272 -0.1066 -0.1266
  439loPI   C1A 7015  18.381  13.151   9.239 -0.3205 -0.1601 -0.3564
  439loPI   C2A 7016  18.411  13.090   8.833 -0.4604 -0.2254  0.3294
  439loPI   C3A 7017  18.209  13.200   8.364  0.3196 -0.2487 -0.2048
  439loPI   C4A 7018  18.034  13.433   8.139  0.2098 -0.0483  0.0998
  439loPI   C5A 7019  18.146  13.675   7.767 -0.3240 -0.0925  0.3283
  439loPI   C6A 7020  18.433  14.043   7.765 -0.2913 -0.3056  0.0254
  439loPI   C1B 7021  17.961  13.298   8.848 -0.2410  0.1645  0.0604
  439loPI   C2B 7022  17.706  13.485   8.494  0.2683  0.2896 -0.1825
  439loPI   C3B 7023  17.537  13.688   8.188 -0.0139  0.0554 -0.1369
  439loPI   C4B 7024  17.645  13.716   7.825  0.1921  0.2683 -0.4448
  440loPI    C1 7025   1.358   2.518  10.153  0.1533 -0.2407 -0.0127
  440loPI    C2 7026   1.404   2.590   9.763 -0.2831  0.3078  0.0236
  440loPI    C3 7027   1.722   2.504   9.989 -0.0452 -0.1884 -0.4740
  440loPI   PO4 7028   1.060   2.410  10.108  0.0499 -0.1709 -0.1872
  440loPI   GL1 7029   0.922   2.369   9.619 -0.1480  0.1173  0.0493
  440loPI   GL2 7030   1.032   1.983   9.566 -0.4032 -0.0202 -0.1072
  440loPI   C1A 7031   1.234   2.397   9.288  0.1259 -0.3928 -0.0857
  440loPI   C2A 7032   1.315   2.494   9.062 -0.1610  0.0510  0.1806
  440loPI   C3A 7033   1.685   2.557   8.800 -0.4187 -0.0051  0.3694
  440loPI   C4A 7034   1.897   2.867   8.578  0.3428 -0.0848 -0.1984
  440loPI   C5A 7035   1.714   3.030   8.149  0.0350  0.3572  0.1734
  440loPI   C6A 7036   1.827   3.049   7.724  0.0698  0.0929 -0.1279
  440loPI   C1B 7037   1.209   1.854   9.180  0.1917  0.1778 -0.1260
  440loPI   C2B 7038   1.338   2.043   8.739 -0.2389 -0.2261 -0.3075
  440loPI   C3B 7039   1.301   2.358   8.542  0.0068  0.2154  0.1453
  440loPI   C4B 7040   1.396   2.668   8.338  0.1720  0.3384 -0.0541
  441loPI    C1 7041  15.616   2.118  10.523 -0.0655  0.4808  0.0425
  441loPI    C2 7042  15.829   2.080  10.860 -0.0694  0.0311  0.0011
  441loPI    C3 7043  15.441   2.176  10.878 -0.0572  0.0592  0.1214
  441loPI   PO4 7044  15.804   1.936  10.340  0.0374  0.0156  0.0021
  441loPI   GL1 7045  15.622   1.763   9.884 -0.4867 -0.3579  0.0086
  441loPI   GL2 7046  15.286   1.747  10.012  0.0112  0.0610  0.1471
  441loPI   C1A 7047  15.560   2.009   9.465 -0.1743  0.3146 -0.0726
  441loPI   C2A 7048  15.558   2.024   9.000  0.2560  0.2226 -0.1106
  441loPI   C3A 7049  15.517   2.050   8.527  0.0160 -0.1897 -0.1138
  441loPI   C4A 7050  15.273   1.962   8.147  0.0859 -0.2240  0.1380
  441loPI   C5A 7051  14.858   1.832   8.089 -0.0608 -0.0963  0.4331
  441loPI   C6A 7052  14.542   1.675   8.358  0.3666  0.1536  0.0397
  441loPI   C1B 7053  15.095   1.911   9.679 -0.2062  0.1725  0.0184
  441loPI   C2B 7054  15.114   2.183   9.269  0.1456  0.0599  0.1938
  441loPI   C3B 7055  14.856   2.478   8.876  0.3964  0.1245  0.1097
  441loPI   C4B 7056  14.939   2.532   8.371 -0.1925 -0.3966  0.0939
  442loPI    C1 7057  14.063   4.096  10.502  0.3233 -0.2550  0.1355
  442loPI    C2 7058  13.773   4.184  10.763  0.0947  0.0701 -0.2165
  442loPI    C3 7059  14.152   4.155  10.888 -0.0655 -0.2332  0.2265
  442loPI   PO4 7060  13.997   4.296  10.275 -0.0630  0.1664  0.1220
  442loPI   GL1 7061  14.011   4.277   9.791  0.0031 -0.3020 -0.0411
  442loPI   GL2 7062  13.995   4.568   9.614  0.0434 -0.0664  0.3571
  442loPI   C1A 7063  13.591   4.247   9.745  0.2730  0.1403 -0.2093
  442loPI   C2A 7064  13.477   4.151   9.264  0.0740 -0.2159  0.2392
  442loPI   C3A 7065  13.488   4.078   8.880  0.0939  0.0886  0.1460
  442loPI   C4A 7066  13.472   4.327   8.461 -0.0516 -0.1398 -0.0641
  442loPI   C5A 7067  13.551   4.729   8.234 -0.1813 -0.1327  0.1137
  442loPI   C6A 7068  13.461   5.094   8.166 -0.2674 -0.1702  0.2631
  442loPI   C1B 7069  13.789   4.583   9.202 -0.0947 -0.1347  0.2150
  442loPI   C2B 7070  13.851   4.552   8.765  0.1979  0.2243 -0.3548
  442loPI   C3B 7071  13.965   4.363   8.358 -0.0948 -0.0613  0.0692
  442loPI   C4B 7072  14.100   4.196   7.974  0.0172 -0.0990 -0.1480
  443loPI    C1 7073  10.005   1.376  10.647 -0.0118 -0.1141 -0.0144
  443loPI    C2 7074  10.271   1.108  10.518  0.0634  0.0755 -0.2604
  443loPI    C3 7075  10.375   1.373  10.799 -0.0567 -0.2447  0.0942
  443loPI   PO4 7076   9.905   1.443  10.411 -0.0156  0.0063 -0.2495
  443loPI   GL1 7077  10.035   1.596  10.008  0.0722  0.2516  0.1435
  443loPI   GL2 7078   9.734   1.879   9.962 -0.2146  0.1007  0.1064
  443loPI   C1A 7079  10.328   1.976   9.922 -0.1292 -0.3197 -0.0790
  443loPI   C2A 7080  10.415   2.107   9.462 -0.1490 -0.0097  0.0990
  443loPI   C3A 7081  10.625   1.720   9.214 -0.0540 -0.0223 -0.1173
  443loPI   C4A 7082  10.577   1.438   8.919 -0.1367  0.0452 -0.2230
  443loPI   C5A 7083  10.379   1.089   8.634  0.0282  0.4876  0.0444
  443loPI   C6A 7084  10.368   0.855   8.203 -0.0898 -0.0424 -0.1410
  443loPI   C1B 7085   9.904   1.911   9.601  0.0751 -0.1666  0.1913
  443loPI   C2B 7086  10.025   1.750   9.122  0.1474 -0.0365  0.0703
  443loPI   C3B 7087  10.137   1.659   8.806 -0.1342  0.0950 -0.4939
  443loPI   C4B 7088  10.316   1.609   8.409  0.1573 -0.0388  0.2166
  444loPI    C1 7089   5.052  13.946  10.149 -0.0294  0.0776 -0.0535
  444loPI    C2 7090   5.055  14.228  10.432  0.0970  0.1163 -0.0930
  444loPI    C3 7091   4.766  13.952  10.429  0.1056  0.1040  0.0851
  444loPI   PO4 7092   5.121  14.036   9.899 -0.1787  0.0804 -0.0710
  444loPI   GL1 7093   4.924  13.826   9.548 -0.2541  0.1452 -0.3551
  444loPI   GL2 7094   4.564  13.741   9.532  0.0238  0.1565 -0.0571
  444loPI   C1A 7095   4.923  13.609   9.197  0.0222 -0.1630 -0.0905
  444loPI   C2A 7096   4.786  13.544   8.786  0.2622  0.1881  0.2590
  444loPI   C3A 7097   4.788  13.578   8.306 -0.0207  0.0821 -0.0655
  444loPI   C4A 7098   4.904  13.526   7.914 -0.1389 -0.0983  0.0871
  444loPI   C5A 7099   4.773  13.570   7.504  0.0595 -0.4324 -0.1813
  444loPI   C6A 7100   4.578  13.641   7.194 -0.0344 -0.3501 -0.3725
  444loPI   C1B 7101   4.436  13.748   9.151 -0.1020 -0.1558  0.0022
  444loPI   C2B 7102   4.346  13.857   8.736  0.0122  0.2358 -0.4344
  444loPI   C3B 7103   4.428  13.876   8.330 -0.1501  0.0734  0.1535
  444loPI   C4B 7104   4.465  13.818   7.959  0.4677  0.2314  0.1115
  445loPI    C1 7105   3.835  18.039  10.005 -0.2265  0.2333  0.0765
  445loPI    C2 7106   3.610  17.903  10.307 -0.0640  0.0305  0.1086
  445loPI    C3 7107   3.996  17.990  10.368 -0.0373  0.0155 -0.0342
  445loPI   PO4 7108   3.714  18.140   9.919  0.2822 -0.1938  0.0567
  445loPI   GL1 7109   3.480  18.263   9.576  0.1483 -0.2121 -0.1223
  445loPI   GL2 7110   3.193  18.282   9.572 -0.2725 -0.0115 -0.1134
  445loPI   C1A 7111   3.698  18.385   9.234  0.1890  0.1954 -0.2021
  445loPI   C2A 7112   3.820  18.482   8.770  0.0266 -0.3936  0.1574
  445loPI   C3A 7113   3.940  18.348   8.442  0.0112 -0.2201  0.1211
  445loPI   C4A 7114   3.843  18.079   8.014  0.0290 -0.1279 -0.2583
  445loPI   C5A 7115   4.011  17.812   7.739 -0.2243  0.1634  0.0630
  445loPI   C6A 7116   4.153  17.355   7.653  0.2571  0.1849 -0.0859
  445loPI   C1B 7117   3.245  18.162   9.100 -0.1021 -0.0605 -0.3029
  445loPI   C2B 7118   3.376  18.318   8.751  0.1141  0.6178 -0.0592
  445loPI   C3B 7119   3.501  18.207   8.319 -0.1303 -0.1872  0.0637
  445loPI   C4B 7120   3.327  18.218   7.916 -0.0534 -0.2001  0.1092
  446loPI    C1 7121   1.216  16.734   9.976 -0.2168 -0.0855  0.0207
  446loPI    C2 7122   1.404  16.710  10.328 -0.0226  0.0736 -0.0703
  446loPI    C3 7123   1.359  16.383  10.102 -0.0775 -0.0134  0.0649
  446loPI   PO4 7124   1.091  17.031   9.979  0.2162  0.1148  0.0594
  446loPI   GL1 7125   0.829  17.241   9.690 -0.1311 -0.3187 -0.0462
  446loPI   GL2 7126   0.643  17.251   9.827 -0.3001 -0.1398 -0.0631
  446loPI   C1A 7127   0.994  17.039   9.330 -0.2563  0.1568 -0.1068
  446loPI   C2A 7128   1.148  16.713   9.240  0.2047 -0.3175 -0.1785
  446loPI   C3A 7129   1.219  16.508   8.866  0.1185  0.3325  0.1169
  446loPI   C4A 7130   1.088  16.592   8.543  0.1494  0.2568 -0.4983
  446loPI   C5A 7131   0.781  16.623   8.227 -0.0357 -0.1945  0.1739
  446loPI   C6A 7132   0.786  16.648   7.721  0.1721 -0.0363  0.1356
  446loPI   C1B 7133   0.553  17.326   9.331 -0.0506  0.0471 -0.2734
  446loPI   C2B 7134   0.616  17.322   8.843  0.0017 -0.1301 -0.0025
  446loPI   C3B 7135   0.758  17.525   8.421 -0.2001 -0.2131  0.0669
  446loPI   C4B 7136   0.757  17.518   7.888  0.1813 -0.3689  0.0362
  447loPI    C1 7137  11.782  11.245  10.755 -0.0432 -0.1290 -0.0874
  447loPI    C2 7138  11.421  11.099  10.845 -0.0678 -0.0827 -0.1109
  447loPI    C3 7139  11.745  10.956  11.029 -0.1143 -0.0141  0.0255
  447loPI   PO4 7140  11.792  11.585  10.670 -0.3291  0.1579  0.0229
  447loPI   GL1 7141  11.590  11.711  10.208 -0.3224  0.1876 -0.4517
  447loPI   GL2 7142  11.622  11.447  10.172 -0.2093 -0.1208 -0.1263
  447loPI   C1A 7143  11.455  11.868   9.784 -0.1292  0.2366  0.2845
  447loPI   C2A 7144  11.422  11.724   9.371 -0.0618  0.3594  0.2165
  447loPI   C3A 7145  11.674  11.607   8.914 -0.1509  0.1213 -0.2244
  447loPI   C4A 7146  11.700  11.543   8.548  0.1314  0.2426  0.1840
  447loPI   C5A 7147  11.779  11.498   8.054 -0.2351 -0.0068 -0.0350
  447loPI   C6A 7148  11.765  11.230   7.715  0.2470  0.4255 -0.0574
  447loPI   C1B 7149  11.838  11.482   9.769 -0.2767 -0.2457 -0.0721
  447loPI   C2B 7150  11.952  11.571   9.315  0.3060  0.2182 -0.4393
  447loPI   C3B 7151  12.005  11.260   8.989  0.1501  0.0367 -0.1302
  447loPI   C4B 7152  12.151  10.854   8.849 -0.0957  0.0375  0.2151
  448loPI    C1 7153   1.203  13.164   9.988 -0.1535 -0.0830  0.0781
  448loPI    C2 7154   1.507  13.092   9.737 -0.1652  0.3430 -0.0661
  448loPI    C3 7155   1.560  13.334  10.052 -0.2706  0.1598  0.0947
  448loPI   PO4 7156   0.999  13.170   9.832 -0.0701 -0.1151  0.0264
  448loPI   GL1 7157   0.966  13.324   9.421 -0.2903 -0.1291  0.3855
  448loPI   GL2 7158   0.778  13.559   9.482 -0.0495  0.0424  0.0779
  448loPI   C1A 7159   1.129  13.179   8.962 -0.1014  0.0458 -0.0890
  448loPI   C2A 7160   1.209  13.363   8.434  0.0171 -0.1248 -0.1327
  448loPI   C3A 7161   1.243  13.662   8.092  0.1475  0.0077  0.0651
  448loPI   C4A 7162   1.194  13.782   7.706  0.0489  0.2428  0.3304
  448loPI   C5A 7163   0.971  13.980   7.371 -0.2282 -0.4191  0.0474
  448loPI   C6A 7164   0.565  14.113   7.179  0.2508 -0.2082  0.0705
  448loPI   C1B 7165   0.577  13.844   9.182  0.1717 -0.1071 -0.1285
  448loPI   C2B 7166   0.537  13.983   8.691 -0.0444  0.1920 -0.1766
  448loPI   C3B 7167   0.333  13.818   8.329  0.1150 -0.1686  0.0317
  448loPI   C4B 7168   0.231  13.899   7.801 -0.0910 -0.1963  0.0902
  449loPI    C1 7169   2.058   3.285  10.124 -0.0241  0.0515 -0.3331
  449loPI    C2 7170   2.198   2.914  10.171 -0.1175  0.0491 -0.0570
  449loPI    C3 7171   2.424   3.228  10.275 -0.1930  0.0551  0.0923
  449loPI   PO4 7172   2.014   3.299   9.936 -0.2285  0.2184 -0.1855
  449loPI   GL1 7173   1.922   3.451   9.482  0.0682  0.0839 -0.1190
  449loPI   GL2 7174   2.131   3.303   9.449 -0.3922 -0.0756 -0.0432
  449loPI   C1A 7175   1.737   3.280   9.065  0.1808 -0.0905  0.0599
  449loPI   C2A 7176   1.736   3.327   8.612  0.5204 -0.0406  0.1295
  449loPI   C3A 7177   1.854   3.551   8.166 -0.3138  0.1997  0.1752
  449loPI   C4A 7178   1.737   3.691   7.709 -0.0880  0.1275 -0.0769
  449loPI   C5A 7179   1.463   4.050   7.505  0.1422 -0.0058  0.1416
  449loPI   C6A 7180   1.101   4.328   7.311 -0.1685  0.1245  0.0820
  449loPI   C1B 7181   2.532   3.324   9.471  0.1421  0.1798  0.1599
  449loPI   C2B 7182   2.670   3.186   8.960  0.3088  0.1389 -0.2816
  449loPI   C3B 7183   2.893   3.104   8.513  0.0566 -0.0030 -0.1022
  449loPI   C4B 7184   2.991   3.139   8.088  0.1286 -0.0962 -0.2443
  450loPI    C1 7185  14.275  15.208  10.146 -0.1052 -0.1102  0.0611
  450loPI    C2 7186  14.179  15.058  10.504  0.1525 -0.0783  0.1460
  450loPI    C3 7187  14.563  15.101  10.403  0.0808  0.0904 -0.0606
  450loPI   PO4 7188  14.055  15.111  10.014 -0.2034  0.2508  0.1134
  450loPI   GL1 7189  13.908  15.172   9.532 -0.1565  0.2468 -0.0748
  450loPI   GL2 7190  13.986  14.903   9.409 -0.0672 -0.1681 -0.1490
  450loPI   C1A 7191  13.569  15.078   9.176 -0.0536 -0.1619  0.0846
  450loPI   C2A 7192  13.330  14.742   9.079 -0.2517  0.0635  0.1146
  450loPI   C3A 7193  13.227  14.464   8.822  0.3724  0.3273 -0.0694
  450loPI   C4A 7194  13.232  14.274   8.389  0.0852 -0.0281  0.0045
  450loPI   C5A 7195  12.994  14.092   8.090  0.1954 -0.0601 -0.0910
  450loPI   C6A 7196  12.662  13.825   8.120 -0.0173 -0.1785 -0.3007
  450loPI   C1B 7197  14.009  14.917   8.980  0.1120  0.1352  0.2811
  450loPI   C2B 7198  13.606  14.896   8.708  0.0524  0.1135  0.0756
  450loPI   C3B 7199  13.285  14.761   8.417  0.1593 -0.2084 -0.1450
  450loPI   C4B 7200  13.170  14.555   7.974 -0.1409  0.2521 -0.0666
  451loPI    C1 7201   5.853   2.760  10.246 -0.1973 -0.1435  0.5410
  451loPI    C2 7202   6.241   2.789  10.337  0.0196 -0.0306 -0.3282
  451loPI    C3 7203   6.084   2.434  10.245 -0.0716 -0.0643 -0.0518
  451loPI   PO4 7204   5.829   2.976  10.102  0.1879 -0.0441  0.1676
  451loPI   GL1 7205   5.615   2.995   9.694  0.1890  0.1508  0.3869
  451loPI   GL2 7206   5.392   2.844   9.878 -0.2086  0.0321 -0.1191
  451loPI   C1A 7207   5.515   2.989   9.241 -0.1210  0.0526 -0.1413
  451loPI   C2A 7208   5.528   2.993   8.878  0.3071  0.1259 -0.0068
  451loPI   C3A 7209   5.712   3.033   8.496 -0.2094  0.1668  0.2507
  451loPI   C4A 7210   5.845   3.331   8.180 -0.2201  0.0227  0.1130
  451loPI   C5A 7211   5.837   3.541   7.840  0.1095 -0.1528 -0.1315
  451loPI   C6A 7212   5.901   3.780   7.526 -0.1903 -0.0167  0.0870
  451loPI   C1B 7213   5.323   2.596   9.474 -0.3171  0.2213  0.1362
  451loPI   C2B 7214   5.430   2.540   9.026 -0.2929  0.1222 -0.0495
  451loPI   C3B 7215   5.543   2.523   8.562 -0.2894  0.0234 -0.2903
  451loPI   C4B 7216   5.558   2.266   8.304 -0.0525  0.2108  0.0438
  452loPI    C1 7217   6.091   5.227  10.222 -0.1220 -0.0330  0.0360
  452loPI    C2 7218   6.292   4.908  10.356  0.2445  0.0446 -0.3104
  452loPI    C3 7219   6.400   5.275  10.471 -0.0044  0.0624 -0.1261
  452loPI   PO4 7220   6.093   5.203   9.941 -0.0700  0.3218  0.2293
  452loPI   GL1 7221   5.800   5.069   9.613  0.1569 -0.0500  0.1975
  452loPI   GL2 7222   5.902   4.758   9.467  0.0208  0.2313 -0.0358
  452loPI   C1A 7223   5.873   5.314   9.292  0.2175  0.0647  0.3880
  452loPI   C2A 7224   5.764   5.222   8.826 -0.0711 -0.2801  0.0613
  452loPI   C3A 7225   5.750   5.010   8.459  0.0719 -0.2212 -0.1763
  452loPI   C4A 7226   5.803   4.735   8.070  0.1355  0.4261  0.3658
  452loPI   C5A 7227   6.087   4.718   7.649 -0.2664  0.3909 -0.2289
  452loPI   C6A 7228   6.466   4.819   7.514  0.1294  0.0693 -0.1079
  452loPI   C1B 7229   5.947   4.457   9.088  0.1151 -0.3206  0.3192
  452loPI   C2B 7230   5.907   4.386   8.585  0.1651  0.0878  0.0878
  452loPI   C3B 7231   6.259   4.350   8.273  0.0514 -0.3930  0.0967
  452loPI   C4B 7232   6.483   4.439   7.939  0.0688  0.0243  0.1903
  453loPI    C1 7233  17.644   4.299   9.682 -0.1720  0.1991 -0.0669
  453loPI    C2 7234  17.923   4.209   9.954 -0.0600  0.2228 -0.1724
  453loPI    C3 7235  17.547   4.082  10.003  0.0365 -0.0736 -0.1842
  453loPI   PO4 7236  17.741   4.312   9.465 -0.0404  0.1079  0.1014
  453loPI   GL1 7237  17.592   4.355   8.949  0.2369 -0.1113  0.0928
  453loPI   GL2 7238  17.415   4.630   8.834  0.0120 -0.2883 -0.1495
  453loPI   C1A 7239  17.628   4.041   8.572 -0.2363  0.0550  0.0992
  453loPI   C2A 7240  17.484   3.958   8.292 -0.2244  0.1496  0.0854
  453loPI   C3A 7241  17.418   4.268   7.878  0.1828 -0.3747 -0.1434
  453loPI   C4A 7242  17.488   4.262   7.407 -0.1575  0.1457 -0.0333
  453loPI   C5A 7243  17.654   4.407   7.100  0.1932  0.1836 -0.1530
  453loPI   C6A 7244  17.957   4.529   6.776  0.1682 -0.3048  0.4275
  453loPI   C1B 7245  17.483   4.498   8.369  0.0835 -0.1826  0.0599
  453loPI   C2B 7246  17.700   4.736   8.118  0.0602  0.2462  0.2064
  453loPI   C3B 7247  17.670   4.761   7.678 -0.0438  0.2396  0.0555
  453loPI   C4B 7248  17.796   4.898   7.271  0.0553  0.1706 -0.0708
  454loPI    C1 7249  17.784  17.025  10.208  0.0905 -0.1804  0.1100
  454loPI    C2 7250  17.425  17.128  10.352 -0.0141 -0.2123 -0.1238
  454loPI    C3 7251  17.712  17.004  10.601 -0.1223 -0.0603  0.0791
  454loPI   PO4 7252  17.793  16.916   9.858 -0.0988 -0.0771  0.2209
  454loPI   GL1 7253  17.628  16.682   9.548 -0.3467 -0.0819 -0.0352
  454loPI   GL2 7254  17.978  16.637   9.474  0.0065 -0.1616  0.3224
  454loPI   C1A 7255  17.606  16.755   9.121  0.0775  0.2392 -0.1441
  454loPI   C2A 7256  17.741  16.836   8.717  0.2495  0.0932  0.1571
  454loPI   C3A 7257  17.653  17.181   8.488 -0.0935 -0.0182  0.2008
  454loPI   C4A 7258  17.825  17.277   8.080 -0.3358  0.0512  0.0647
  454loPI   C5A 7259  17.874  17.497   7.824 -0.0342 -0.3131 -0.2047
  454loPI   C6A 7260  17.923  17.868   7.529  0.0865  0.1564 -0.0320
  454loPI   C1B 7261  18.141  16.776   9.004  0.2570  0.1087  0.0533
  454loPI   C2B 7262  18.225  16.655   8.621 -0.0848  0.1630  0.0482
  454loPI   C3B 7263  17.874  16.695   8.241  0.1437  0.1125  0.0088
  454loPI   C4B 7264  17.491  16.914   7.992  0.1074  0.0793  0.0746
  455loPI    C1 7265   2.478  16.881   9.940 -0.0160 -0.2817 -0.0532
  455loPI    C2 7266   2.098  16.991  10.001  0.0182 -0.1749 -0.0308
  455loPI    C3 7267   2.370  17.044  10.289  0.0693 -0.1657 -0.0804
  455loPI   PO4 7268   2.542  16.893   9.760 -0.0237 -0.3564 -0.1874
  455loPI   GL1 7269   2.546  17.200   9.479  0.0773  0.1567  0.0066
  455loPI   GL2 7270   2.783  17.311   9.571 -0.0221 -0.0223 -0.2794
  455loPI   C1A 7271   2.456  17.310   9.096 -0.1199  0.1467  0.0988
  455loPI   C2A 7272   2.475  17.527   8.802  0.1500  0.0729 -0.1213
  455loPI   C3A 7273   2.708  17.579   8.462 -0.0485 -0.4966  0.1310
  455loPI   C4A 7274   2.870  17.727   8.084  0.2012 -0.1392  0.3375
  455loPI   C5A 7275   3.090  17.760   7.784  0.4578 -0.1099 -0.3057
  455loPI   C6A 7276   3.505  17.685   7.780  0.1566 -0.0011 -0.0700
  455loPI   C1B 7277   2.961  17.266   9.117  0.0515  0.1255 -0.0961
  455loPI   C2B 7278   2.884  17.211   8.821 -0.3444  0.3240 -0.0420
  455loPI   C3B 7279   2.880  16.797   8.477 -0.0067 -0.2179  0.0733
  455loPI   C4B 7280   2.827  16.320   8.396  0.0427  0.3004 -0.1051
  456loPI    C1 7281  16.398   4.845   9.617 -0.0720  0.1666 -0.0743
  456loPI    C2 7282  16.442   4.990   9.987 -0.1494  0.1426 -0.0555
  456loPI    C3 7283  16.746   4.802   9.809 -0.1186  0.1358  0.0041
  456loPI   PO4 7284  16.191   5.005   9.540  0.1107  0.0779 -0.0471
  456loPI   GL1 7285  16.113   4.936   9.083  0.2371  0.0414  0.0323
  456loPI   GL2 7286  16.384   5.019   9.051  0.0602 -0.3548 -0.2434
  456loPI   C1A 7287  15.786   5.113   8.941 -0.1420  0.0320 -0.2008
  456loPI   C2A 7288  15.908   5.000   8.493 -0.2452 -0.0215 -0.1317
  456loPI   C3A 7289  15.691   4.843   8.126  0.1309 -0.1609  0.2776
  456loPI   C4A 7290  15.548   4.916   7.735 -0.0418  0.1626 -0.1697
  456loPI   C5A 7291  15.305   5.085   7.550 -0.3397 -0.1869  0.0184
  456loPI   C6A 7292  14.993   5.153   7.944  0.1879  0.1634  0.1559
  456loPI   C1B 7293  16.375   4.956   8.590 -0.2162  0.1936  0.0727
  456loPI   C2B 7294  16.285   5.058   8.129  0.1778 -0.1059 -0.0453
  456loPI   C3B 7295  16.222   5.020   7.708  0.1777 -0.0836 -0.2665
  456loPI   C4B 7296  16.403   5.344   7.433 -0.1543 -0.0106 -0.0438
  457loPI    C1 7297   7.966  16.026  10.235 -0.1637  0.1211 -0.1206
  457loPI    C2 7298   7.847  15.758   9.962 -0.2543  0.0766 -0.0379
  457loPI    C3 7299   7.938  15.639  10.333  0.1729  0.0908 -0.1326
  457loPI   PO4 7300   8.154  16.193  10.018  0.0195  0.0372  0.0456
  457loPI   GL1 7301   8.044  16.119   9.688 -0.1739  0.2236 -0.3017
  457loPI   GL2 7302   8.321  16.169   9.503  0.0905  0.0477 -0.0857
  457loPI   C1A 7303   7.861  15.942   9.305  0.2903 -0.2317 -0.2545
  457loPI   C2A 7304   7.903  15.962   8.941 -0.0367 -0.0884  0.1111
  457loPI   C3A 7305   7.968  15.954   8.582  0.1849  0.0043 -0.0388
  457loPI   C4A 7306   7.899  15.847   8.207 -0.0204 -0.2318 -0.1803
  457loPI   C5A 7307   8.033  15.667   7.851 -0.1187 -0.1996  0.0084
  457loPI   C6A 7308   8.103  15.235   7.663 -0.1156  0.1141 -0.1967
  457loPI   C1B 7309   8.359  16.235   9.187  0.0463 -0.0977 -0.2869
  457loPI   C2B 7310   8.395  16.332   8.800 -0.1066 -0.0929 -0.1326
  457loPI   C3B 7311   8.393  16.257   8.358  0.1162  0.3826 -0.3449
  457loPI   C4B 7312   8.298  16.035   7.938 -0.3795 -0.0381  0.2565
  458loPI    C1 7313   4.507   2.399  10.417  0.0262 -0.1206 -0.0662
  458loPI    C2 7314   4.525   2.003  10.466 -0.2059 -0.1310 -0.0531
  458loPI    C3 7315   4.427   2.238  10.774 -0.1490 -0.0697 -0.0816
  458loPI   PO4 7316   4.334   2.407  10.102  0.0656  0.1097  0.1541
  458loPI   GL1 7317   4.218   2.452   9.656  0.1703 -0.4009  0.1105
  458loPI   GL2 7318   4.312   2.821   9.664 -0.1741 -0.0669 -0.1042
  458loPI   C1A 7319   4.400   2.436   9.315 -0.2707  0.1816  0.1665
  458loPI   C2A 7320   4.537   2.300   8.878 -0.1510  0.1823 -0.0350
  458loPI   C3A 7321   4.631   2.328   8.397  0.1854  0.1211 -0.1765
  458loPI   C4A 7322   4.663   2.330   7.920  0.0810 -0.2725  0.0122
  458loPI   C5A 7323   5.046   2.326   7.596 -0.0894 -0.2716 -0.1911
  458loPI   C6A 7324   5.429   2.394   7.439 -0.0407  0.1277  0.1785
  458loPI   C1B 7325   4.098   2.830   9.288 -0.1142  0.0109  0.1549
  458loPI   C2B 7326   3.895   2.876   8.833 -0.2234 -0.1163  0.2475
  458loPI   C3B 7327   3.870   2.744   8.420 -0.0255 -0.2356  0.0751
  458loPI   C4B 7328   3.768   2.645   8.090  0.0576  0.1035  0.1949
  459loPI    C1 7329  17.430  11.977  10.184 -0.0085  0.1125  0.1043
  459loPI    C2 7330  17.220  11.842  10.496  0.1704 -0.1084  0.1323
  459loPI    C3 7331  17.035  12.034  10.197 -0.0626 -0.2563  0.1789
  459loPI   PO4 7332  17.526  11.790  10.104  0.0529  0.0384  0.1810
  459loPI   GL1 7333  17.722  11.704   9.673 -0.0459 -0.3360  0.1321
  459loPI   GL2 7334  17.884  11.856   9.416 -0.1682  0.1457  0.0691
  459loPI   C1A 7335  17.402  11.721   9.307 -0.3274 -0.1913  0.1118
  459loPI   C2A 7336  17.499  11.629   8.932 -0.1207 -0.1901 -0.0312
  459loPI   C3A 7337  17.413  11.512   8.443  0.3698 -0.0745 -0.3776
  459loPI   C4A 7338  17.327  11.622   8.001 -0.0749 -0.0903 -0.2438
  459loPI   C5A 7339  17.538  11.484   7.530  0.1113 -0.0697  0.1130
  459loPI   C6A 7340  17.375  11.137   7.277 -0.2123  0.0654  0.0395
  459loPI   C1B 7341  18.005  11.974   9.013 -0.3019  0.1581  0.4475
  459loPI   C2B 7342  17.831  11.885   8.626 -0.4471  0.0313 -0.2325
  459loPI   C3B 7343  17.730  11.894   8.186 -0.0684 -0.0836 -0.2003
  459loPI   C4B 7344  17.645  11.880   7.775 -0.2908  0.0831 -0.2227
  460loPI    C1 7345   0.428  13.346  10.016 -0.1489  0.0408  0.2937
  460loPI    C2 7346   0.088  13.435   9.824 -0.0090 -0.0696 -0.0108
  460loPI    C3 7347   0.078  13.208  10.153 -0.2060 -0.3011 -0.1727
  460loPI   PO4 7348   0.521  13.226   9.818 -0.1455 -0.0542 -0.0859
  460loPI   GL1 7349   0.408  13.218   9.471  0.1332  0.1178 -0.1082
  460loPI   GL2 7350   0.186  12.984   9.256  0.1466  0.1167 -0.2027
  460loPI   C1A 7351   0.121  13.541   9.199  0.2403 -0.2074  0.1444
  460loPI   C2A 7352  -0.299  13.560   8.978 -0.1382 -0.3554 -0.4300
  460loPI   C3A 7353  -0.433  13.690   8.581 -0.0086 -0.2764  0.1203
  460loPI   C4A 7354  -0.603  13.950   8.277 -0.0281  0.0510  0.2194
  460loPI   C5A 7355  -0.706  14.164   7.907  0.2533 -0.2300 -0.0584
  460loPI   C6A 7356  -1.142  14.220   7.813 -0.1252  0.0571  0.1637
  460loPI   C1B 7357  -0.033  12.633   8.926 -0.4951  0.1145  0.0494
  460loPI   C2B 7358  -0.159  12.568   8.435 -0.0379  0.0406  0.1252
  460loPI   C3B 7359  -0.076  12.568   7.934  0.0776  0.1511  0.0158
  460loPI   C4B 7360  -0.432  12.584   7.680  0.5069  0.0217  0.1415
  461loPI    C1 7361   7.307   5.354   9.997 -0.1984  0.1094 -0.0081
  461loPI    C2 7362   7.278   5.178  10.355 -0.3315  0.1659  0.0098
  461loPI    C3 7363   7.612   5.138  10.138 -0.1997  0.2387  0.1969
  461loPI   PO4 7364   7.116   5.308   9.868  0.1727  0.0209 -0.1890
  461loPI   GL1 7365   7.103   5.393   9.386 -0.0202  0.0278 -0.1224
  461loPI   GL2 7366   6.731   5.277   9.472 -0.2037 -0.2278 -0.1717
  461loPI   C1A 7367   7.185   5.462   8.992 -0.0428  0.1214  0.3203
  461loPI   C2A 7368   7.149   5.478   8.492 -0.1463 -0.1032  0.1135
  461loPI   C3A 7369   7.180   5.765   8.083 -0.1909 -0.1683  0.0369
  461loPI   C4A 7370   7.525   5.882   7.998  0.3254 -0.1250 -0.0526
  461loPI   C5A 7371   7.877   5.693   7.939  0.0503  0.0668 -0.0037
  461loPI   C6A 7372   8.054   5.265   7.890 -0.0707 -0.0072 -0.2236
  461loPI   C1B 7373   6.717   5.242   9.081 -0.0598 -0.0279 -0.0739
  461loPI   C2B 7374   6.701   5.153   8.570  0.5441  0.4107  0.0678
  461loPI   C3B 7375   6.847   5.122   8.203 -0.2144 -0.0857 -0.4234
  461loPI   C4B 7376   6.740   4.823   7.895  0.0294 -0.1760 -0.0627
  462loPI    C1 7377   9.301   8.333  10.371 -0.1415 -0.1056  0.0606
  462loPI    C2 7378   9.300   8.634  10.634 -0.0974  0.1778 -0.2559
  462loPI    C3 7379   8.969   8.549  10.426 -0.1275 -0.0347 -0.1245
  462loPI   PO4 7380   9.553   8.364  10.178  0.0389 -0.2041 -0.0428
  462loPI   GL1 7381   9.661   8.614   9.836 -0.2122  0.0867  0.2047
  462loPI   GL2 7382   9.837   8.529   9.661  0.0394 -0.0228 -0.1171
  462loPI   C1A 7383   9.485   8.304   9.384  0.1624 -0.1749  0.0120
  462loPI   C2A 7384   9.282   8.318   9.059 -0.0977 -0.1364  0.0219
  462loPI   C3A 7385   9.347   8.581   8.733 -0.1323 -0.0501 -0.4090
  462loPI   C4A 7386   9.438   8.674   8.301  0.3435  0.0058 -0.2861
  462loPI   C5A 7387   9.810   8.839   8.186 -0.2962  0.2076 -0.1107
  462loPI   C6A 7388  10.095   9.203   8.414  0.0479 -0.0731 -0.1002
  462loPI   C1B 7389   9.791   8.681   9.272 -0.1245  0.0001 -0.0528
  462loPI   C2B 7390   9.757   8.964   9.175  0.0974  0.2159  0.0292
  462loPI   C3B 7391   9.753   9.304   8.965  0.1122  0.4142  0.4200
  462loPI   C4B 7392   9.831   9.708   9.077 -0.2110 -0.1805 -0.1879
  463loPI    C1 7393  10.631   1.951  10.526 -0.0939  0.3005 -0.0626
  463loPI    C2 7394  10.409   1.654  10.376  0.2029 -0.0337  0.1443
  463loPI    C3 7395  10.712   1.805  10.163  0.1028  0.0669  0.0722
  463loPI   PO4 7396  10.450   2.161  10.617 -0.5812  0.2981 -0.0760
  463loPI   GL1 7397  10.323   2.435  10.268  0.2885 -0.1504  0.1432
  463loPI   GL2 7398  10.598   2.343  10.197 -0.1717  0.1931  0.0869
  463loPI   C1A 7399  10.518   2.718   9.864 -0.1518 -0.1709 -0.1017
  463loPI   C2A 7400  10.568   2.678   9.416  0.3697  0.0044 -0.0599
  463loPI   C3A 7401  10.695   2.523   9.043 -0.0889  0.1363 -0.0723
  463loPI   C4A 7402  10.933   2.500   8.757  0.2652  0.0138  0.3508
  463loPI   C5A 7403  11.345   2.453   8.597 -0.1069  0.4113 -0.0601
  463loPI   C6A 7404  11.716   2.583   8.550 -0.0666 -0.2646  0.4471
  463loPI   C1B 7405  10.825   2.200   9.848  0.1635 -0.2225 -0.2234
  463loPI   C2B 7406  10.934   2.358   9.456  0.3674  0.1524  0.1327
  463loPI   C3B 7407  11.171   2.661   9.232  0.2490 -0.0449  0.3401
  463loPI   C4B 7408  11.153   2.964   8.813 -0.0477 -0.0097  0.0557
  464loPI    C1 7409   4.390   1.096  10.381  0.1145  0.1536  0.0395
  464loPI    C2 7410   4.458   0.827  10.669 -0.1107 -0.0317 -0.0768
  464loPI    C3 7411   4.765   1.014  10.493  0.0301  0.0729  0.2706
  464loPI   PO4 7412   4.230   0.968  10.276 -0.4298 -0.2549 -0.1387
  464loPI   GL1 7413   4.323   0.929   9.822 -0.0764  0.0445  0.3414
  464loPI   GL2 7414   4.070   1.064   9.784  0.0590  0.0619 -0.0350
  464loPI   C1A 7415   4.559   1.131   9.570 -0.0692 -0.0502  0.1914
  464loPI   C2A 7416   4.897   1.016   9.387 -0.0315 -0.0839  0.1432
  464loPI   C3A 7417   5.173   0.935   8.961 -0.0398  0.0877  0.1604
  464loPI   C4A 7418   5.433   0.979   8.593 -0.0176  0.1516 -0.0141
  464loPI   C5A 7419   5.754   0.882   8.280  0.0068 -0.3754  0.3126
  464loPI   C6A 7420   5.809   0.629   7.988 -0.0108  0.3645  0.0670
  464loPI   C1B 7421   4.139   1.045   9.333  0.0480 -0.2002 -0.2869
  464loPI   C2B 7422   4.133   1.128   8.890  0.2294  0.4537  0.0993
  464loPI   C3B 7423   3.790   1.128   8.624  0.1924  0.1818 -0.0903
  464loPI   C4B 7424   3.844   1.112   8.149 -0.1883 -0.2329 -0.3879
  465loPI    C1 7425  15.562   7.672   9.892 -0.1872 -0.0781  0.0531
  465loPI    C2 7426  15.714   7.315   9.991 -0.5573 -0.1808  0.2717
  465loPI    C3 7427  15.598   7.570  10.277  0.0985  0.3014  0.1333
  465loPI   PO4 7428  15.415   7.577   9.719  0.0481 -0.1888  0.1096
  465loPI   GL1 7429  15.340   7.344   9.346  0.0691 -0.2349  0.0079
  465loPI   GL2 7430  15.599   7.652   9.286  0.2078 -0.1115 -0.1500
  465loPI   C1A 7431  14.979   7.296   8.987  0.0038 -0.2657 -0.2702
  465loPI   C2A 7432  15.066   7.272   8.538  0.0955 -0.2380  0.0160
  465loPI   C3A 7433  14.925   7.629   8.144 -0.4514 -0.1221  0.0951
  465loPI   C4A 7434  15.201   7.463   7.733  0.0498 -0.1489  0.2897
  465loPI   C5A 7435  15.382   7.023   7.543 -0.2020  0.0687 -0.0017
  465loPI   C6A 7436  15.724   6.729   7.492 -0.2409  0.1789 -0.0117
  465loPI   C1B 7437  15.515   7.447   8.895 -0.1487 -0.1933 -0.4451
  465loPI   C2B 7438  15.568   7.233   8.623 -0.1220  0.0601  0.1491
  465loPI   C3B 7439  15.683   6.850   8.534  0.1134  0.0573 -0.0606
  465loPI   C4B 7440  15.817   6.414   8.548  0.0699 -0.1238 -0.1491
  466loPI    C1 7441  14.834   4.572  10.237 -0.1025 -0.2367  0.1335
  466loPI    C2 7442  15.063   4.513  10.560  0.0292  0.1411  0.1141
  466loPI    C3 7443  14.752   4.765  10.578 -0.0029  0.1130 -0.0350
  466loPI   PO4 7444  14.983   4.385  10.074  0.0857  0.1374 -0.0675
  466loPI   GL1 7445  14.844   4.232   9.725  0.1155  0.0246 -0.1870
  466loPI   GL2 7446  14.605   4.031   9.754  0.0274  0.0988 -0.1653
  466loPI   C1A 7447  14.823   3.940   9.272  0.2398  0.0523 -0.1215
  466loPI   C2A 7448  14.882   3.833   8.842  0.3016 -0.1322 -0.0811
  466loPI   C3A 7449  14.761   3.706   8.482 -0.2400 -0.0719  0.0073
  466loPI   C4A 7450  14.709   3.295   8.163  0.1204  0.1210  0.0412
  466loPI   C5A 7451  14.964   2.974   8.093  0.1231 -0.0327 -0.1279
  466loPI   C6A 7452  15.059   2.767   7.797  0.1750 -0.0692  0.0860
  466loPI   C1B 7453  14.303   3.848   9.567 -0.0259  0.2517  0.1571
  466loPI   C2B 7454  13.977   4.020   9.291 -0.2908  0.0284 -0.1361
  466loPI   C3B 7455  13.947   3.950   8.846 -0.3634 -0.0955 -0.0434
  466loPI   C4B 7456  13.744   3.904   8.405 -0.1052  0.1159 -0.1619
  467loPI    C1 7457  11.322  17.606  10.776 -0.1031  0.0062  0.2741
  467loPI    C2 7458  11.313  18.006  10.776  0.1467  0.0187 -0.1617
  467loPI    C3 7459  11.389  17.808  11.115  0.1165  0.3410  0.0385
  467loPI   PO4 7460  11.491  17.568  10.556 -0.1041  0.2367 -0.0374
  467loPI   GL1 7461  11.562  17.938  10.326  0.3873  0.1388  0.0130
  467loPI   GL2 7462  11.271  18.139  10.195 -0.0723 -0.0456 -0.0434
  467loPI   C1A 7463  11.622  17.884   9.851 -0.2206  0.1047  0.1698
  467loPI   C2A 7464  11.797  17.905   9.488  0.2159 -0.0210 -0.1067
  467loPI   C3A 7465  11.619  17.986   9.037 -0.1068  0.1944 -0.0705
  467loPI   C4A 7466  11.502  17.980   8.605  0.3564 -0.1144  0.0864
  467loPI   C5A 7467  11.183  18.097   8.334 -0.0309 -0.0454 -0.1271
  467loPI   C6A 7468  10.833  17.958   8.066 -0.1482  0.1231 -0.0783
  467loPI   C1B 7469  11.201  18.235   9.829  0.2485 -0.0324  0.1120
  467loPI   C2B 7470  11.373  18.230   9.476  0.1549  0.0583 -0.0004
  467loPI   C3B 7471  11.244  18.298   9.121 -0.0506 -0.2736 -0.1343
  467loPI   C4B 7472  11.065  18.352   8.740 -0.1675 -0.1576 -0.1114
  468loPI    C1 7473   9.284  10.941  10.175 -0.3948 -0.1357  0.0579
  468loPI    C2 7474   9.423  10.592  10.312  0.0124  0.0029  0.0094
  468loPI    C3 7475   9.251  10.852  10.563  0.1180 -0.0425  0.1304
  468loPI   PO4 7476   9.117  10.912   9.995  0.1123 -0.0721 -0.0003
  468loPI   GL1 7477   9.217  11.129   9.652  0.1159 -0.2957  0.3487
  468loPI   GL2 7478   9.554  11.087   9.709 -0.0152  0.2474 -0.1259
  468loPI   C1A 7479   9.174  10.857   9.281  0.0190 -0.2438 -0.3068
  468loPI   C2A 7480   9.069  10.697   8.788 -0.1347 -0.0447  0.0226
  468loPI   C3A 7481   9.064  10.844   8.340 -0.0943  0.1105 -0.0395
  468loPI   C4A 7482   9.074  10.952   7.869  0.0372  0.2455 -0.0895
  468loPI   C5A 7483   8.806  10.888   7.504 -0.1387  0.2331 -0.3029
  468loPI   C6A 7484   8.407  10.949   7.485  0.1575 -0.2513  0.1500
  468loPI   C1B 7485   9.631  11.238   9.306  0.0922  0.0003  0.1277
  468loPI   C2B 7486   9.407  11.136   8.898 -0.2708 -0.1272  0.2288
  468loPI   C3B 7487   9.313  11.235   8.423 -0.1079 -0.0805  0.1471
  468loPI   C4B 7488   9.675  11.076   8.105  0.0623 -0.2127  0.0523
  469loPI    C1 7489   2.869   6.608   9.727 -0.0300 -0.0476 -0.2562
  469loPI    C2 7490   3.049   6.805  10.025  0.0420  0.0628 -0.3715
  469loPI    C3 7491   2.744   6.559  10.104  0.2095 -0.0877 -0.1798
  469loPI   PO4 7492   3.036   6.605   9.526 -0.0089 -0.0692  0.3547
  469loPI   GL1 7493   3.181   6.553   9.142  0.0523 -0.2933 -0.0792
  469loPI   GL2 7494   3.283   6.259   9.046 -0.0107 -0.2092  0.2123
  469loPI   C1A 7495   3.044   6.956   8.841  0.1240 -0.1463  0.0748
  469loPI   C2A 7496   2.915   7.128   8.513  0.0627 -0.0993 -0.2988
  469loPI   C3A 7497   2.567   7.096   8.197  0.2497 -0.2878 -0.1804
  469loPI   C4A 7498   2.431   7.094   7.741 -0.3406  0.1949  0.1564
  469loPI   C5A 7499   2.873   7.096   7.454 -0.1094 -0.2963  0.1981
  469loPI   C6A 7500   3.057   6.710   7.233  0.2154 -0.0731  0.1036
  469loPI   C1B 7501   3.444   6.358   8.707  0.0916  0.1888 -0.0098
  469loPI   C2B 7502   3.240   6.651   8.441  0.1725 -0.1334 -0.0050
  469loPI   C3B 7503   3.199   6.856   8.007 -0.1869  0.1206  0.6468
  469loPI   C4B 7504   2.989   7.201   7.911 -0.0412 -0.2367  0.0185
  470loPI    C1 7505  12.229  12.851  10.675 -0.1693 -0.0370  0.0306
  470loPI    C2 7506  12.225  13.251  10.665 -0.2647 -0.0416 -0.1555
  470loPI    C3 7507  12.531  13.058  10.836 -0.1851  0.1098 -0.1259
  470loPI   PO4 7508  12.194  12.808  10.397  0.1170  0.1980 -0.1784
  470loPI   GL1 7509  12.120  12.878   9.992  0.2797 -0.1946  0.0178
  470loPI   GL2 7510  12.122  12.549   9.969 -0.1336  0.0330  0.2390
  470loPI   C1A 7511  12.111  12.949   9.578  0.1837 -0.1317 -0.0167
  470loPI   C2A 7512  12.118  12.978   9.204 -0.1502  0.0189 -0.0196
  470loPI   C3A 7513  11.954  12.918   8.794 -0.3015 -0.1517 -0.1730
  470loPI   C4A 7514  11.598  13.027   8.580  0.0910 -0.0993 -0.0984
  470loPI   C5A 7515  11.330  13.344   8.395  0.1615 -0.0311 -0.0038
  470loPI   C6A 7516  11.102  13.620   8.156 -0.4014  0.1522  0.0215
  470loPI   C1B 7517  12.269  12.501   9.567 -0.0610  0.0671 -0.1882
  470loPI   C2B 7518  12.376  12.553   9.104  0.0902 -0.0910  0.0495
  470loPI   C3B 7519  12.411  12.527   8.614 -0.0597  0.0126 -0.0587
  470loPI   C4B 7520  12.590  12.743   8.265 -0.1974  0.0799 -0.3297
  471loPI    C1 7521   6.529   5.875  10.256 -0.1054  0.3164 -0.0074
  471loPI    C2 7522   6.614   5.745  10.625 -0.2298  0.1902 -0.0222
  471loPI    C3 7523   6.886   5.954  10.419  0.0351 -0.1811 -0.0581
  471loPI   PO4 7524   6.449   5.592  10.112  0.0760 -0.0137 -0.0506
  471loPI   GL1 7525   6.429   5.551   9.741 -0.0684  0.0710  0.0281
  471loPI   GL2 7526   6.414   5.875   9.730  0.0127 -0.0420 -0.2112
  471loPI   C1A 7527   6.315   5.531   9.295  0.0681 -0.1259  0.0214
  471loPI   C2A 7528   6.291   5.461   8.946  0.0730  0.2022  0.0826
  471loPI   C3A 7529   6.296   5.369   8.417  0.2219  0.4521  0.4169
  471loPI   C4A 7530   6.150   5.416   7.978  0.1425  0.1398  0.0840
  471loPI   C5A 7531   5.831   5.648   7.693 -0.0037 -0.1475  0.1459
  471loPI   C6A 7532   5.704   6.060   7.657 -0.1575 -0.2702 -0.1836
  471loPI   C1B 7533   6.446   6.104   9.357  0.5811 -0.2267 -0.1740
  471loPI   C2B 7534   6.440   6.033   8.965 -0.0144  0.1568  0.1492
  471loPI   C3B 7535   6.339   6.070   8.576 -0.3155  0.2225 -0.0433
  471loPI   C4B 7536   6.104   5.802   8.245  0.0047  0.2779 -0.0849
  472loPI    C1 7537  15.031   7.813   9.909 -0.0676  0.1883 -0.0212
  472loPI    C2 7538  15.104   7.754  10.298 -0.0886  0.1040 -0.0297
  472loPI    C3 7539  14.795   7.570  10.123 -0.0957  0.1635 -0.0803
  472loPI   PO4 7540  14.986   8.030   9.858  0.0159  0.1540 -0.0778
  472loPI   GL1 7541  14.978   8.247   9.381  0.0475 -0.0939 -0.0752
  472loPI   GL2 7542  15.040   7.979   9.350  0.0012  0.0897  0.0051
  472loPI   C1A 7543  14.917   8.421   8.974  0.0591 -0.2183 -0.0777
  472loPI   C2A 7544  15.119   8.328   8.659  0.0400 -0.1304  0.1418
  472loPI   C3A 7545  14.812   8.383   8.261  0.0299  0.1660  0.0785
  472loPI   C4A 7546  14.841   8.148   7.869  0.0953 -0.2177  0.1896
  472loPI   C5A 7547  14.929   7.854   7.548 -0.0769  0.0194  0.1149
  472loPI   C6A 7548  15.173   7.632   7.226  0.1650 -0.2475  0.3381
  472loPI   C1B 7549  15.180   7.898   9.045 -0.0762 -0.1525  0.1193
  472loPI   C2B 7550  15.291   7.766   8.601  0.2058 -0.2801  0.1555
  472loPI   C3B 7551  15.261   8.031   8.289 -0.0648 -0.0386  0.0715
  472loPI   C4B 7552  15.358   7.920   7.841  0.0620 -0.2499  0.1756
  473loPI    C1 7553   3.272   7.500  10.296  0.1258 -0.0411 -0.1606
  473loPI    C2 7554   2.996   7.297  10.091 -0.0296  0.1048 -0.0981
  473loPI    C3 7555   3.097   7.180  10.459 -0.0999  0.1249 -0.0723
  473loPI   PO4 7556   3.411   7.659  10.125 -0.2886  0.0327 -0.0908
  473loPI   GL1 7557   3.248   8.000   9.859  0.3105  0.1342 -0.2901
  473loPI   GL2 7558   3.008   8.010   9.800  0.0114 -0.1347 -0.2929
  473loPI   C1A 7559   3.459   8.300   9.616 -0.1042 -0.0199  0.2813
  473loPI   C2A 7560   3.529   8.114   9.231 -0.0765 -0.1592 -0.2783
  473loPI   C3A 7561   3.580   8.033   8.826  0.1065 -0.0861 -0.0806
  473loPI   C4A 7562   3.679   7.908   8.462 -0.0196  0.0903 -0.0401
  473loPI   C5A 7563   3.711   7.834   8.012  0.1040  0.4148  0.4240
  473loPI   C6A 7564   4.151   7.866   7.837 -0.2003 -0.0129  0.3195
  473loPI   C1B 7565   3.051   8.024   9.339 -0.1587 -0.3860 -0.0334
  473loPI   C2B 7566   3.168   7.836   8.990 -0.0864 -0.2143 -0.1134
  473loPI   C3B 7567   3.364   7.608   8.698  0.1712  0.1124 -0.1033
  473loPI   C4B 7568   3.307   7.397   8.283  0.0290  0.2283  0.1079
  474POPI    C1 7569  13.799  15.878  10.745 -0.2378 -0.0807 -0.1187
  474POPI    C2 7570  14.128  16.105  10.767 -0.2846 -0.0189 -0.0468
  474POPI    C3 7571  14.100  15.771  10.985 -0.2723 -0.0208 -0.0481
  474POPI   PO4 7572  13.687  15.862  10.457  0.0147 -0.0611  0.0335
  474POPI   GL1 7573  13.611  15.806  10.057 -0.1250 -0.3295 -0.4305
  474POPI   GL2 7574  13.618  15.588   9.940 -0.0222 -0.2535 -0.0663
  474POPI   C1A 7575  13.320  15.976   9.780  0.1888 -0.1751 -0.4500
  474POPI   D2A 7576  12.988  16.110   9.550 -0.0626 -0.1463 -0.0110
  474POPI   C3A 7577  13.035  16.034   9.111 -0.2311  0.0161  0.0523
  474POPI   C4A 7578  12.949  15.796   8.725 -0.0158  0.0779 -0.0988
  474POPI   C1B 7579  13.498  15.515   9.576  0.1599  0.0181  0.1476
  474POPI   C2B 7580  13.415  15.503   9.159 -0.0373  0.0908  0.5248
  474POPI   C3B 7581  13.327  15.332   8.815  0.3680  0.2604 -0.4001
  474POPI   C4B 7582  13.007  15.331   8.532 -0.1783  0.1121  0.1715
  475POPI    C1 7583  10.960   0.704  10.619 -0.0921  0.0591  0.0224
  475POPI    C2 7584  10.762   1.037  10.519  0.0669  0.1227 -0.0861
  475POPI    C3 7585  11.140   1.060  10.646  0.0848 -0.0184 -0.1113
  475POPI   PO4 7586  10.932   0.532  10.391  0.0857 -0.0761  0.1389
  475POPI   GL1 7587  10.675   0.539  10.154  0.7362  0.0331 -0.0859
  475POPI   GL2 7588  10.527   0.249  10.111  0.2504  0.0103  0.0054
  475POPI   C1A 7589  10.589   0.673   9.704 -0.1332  0.0922 -0.2147
  475POPI   D2A 7590  10.294   0.665   9.340 -0.0305 -0.1504 -0.0903
  475POPI   C3A 7591  10.439   0.943   9.138  0.2383  0.0774  0.0027
  475POPI   C4A 7592  10.610   1.171   9.392 -0.1377  0.0323  0.5155
  475POPI   C1B 7593  10.126   0.493  10.019 -0.0605 -0.0237  0.1103
  475POPI   C2B 7594  10.060   0.739   9.757  0.1110  0.0296  0.2035
  475POPI   C3B 7595  10.192   1.140   9.673 -0.4157  0.0754  0.0689
  475POPI   C4B 7596  10.250   1.501   9.498  0.1399  0.0449 -0.2520
  476POPI    C1 7597  17.491   6.696   9.538  0.0210 -0.0506 -0.0049
  476POPI    C2 7598  17.657   7.057   9.490 -0.2640  0.1213  0.2600
  476POPI    C3 7599  17.818   6.795   9.747 -0.0034  0.0206 -0.0000
  476POPI   PO4 7600  17.434   6.638   9.242 -0.0692 -0.3889 -0.1009
  476POPI   GL1 7601  17.216   6.658   8.834  0.1766  0.1497  0.1231
  476POPI   GL2 7602  17.039   6.913   8.789 -0.0014 -0.1213 -0.0862
  476POPI   C1A 7603  17.417   6.693   8.437 -0.3817 -0.2093 -0.0343
  476POPI   D2A 7604  17.578   6.751   7.961 -0.0366  0.1199 -0.0953
  476POPI   C3A 7605  17.298   6.607   7.674  0.3475 -0.2224 -0.2559
  476POPI   C4A 7606  17.134   6.653   7.300  0.4414  0.1301 -0.3318
  476POPI   C1B 7607  16.870   7.178   8.451 -0.0889 -0.1242  0.0334
  476POPI   C2B 7608  16.704   7.227   8.033  0.0862  0.2218 -0.0993
  476POPI   C3B 7609  16.341   7.228   7.807 -0.0236 -0.2434  0.0560
  476POPI   C4B 7610  16.110   7.285   7.395  0.1853  0.1255  0.3587
  477POPI    C1 7611  12.861   6.339  10.677 -0.1565  0.0390  0.0297
  477POPI    C2 7612  13.173   6.590  10.689 -0.1145 -0.0051 -0.1226
  477POPI    C3 7613  12.801   6.730  10.740 -0.0823  0.0706 -0.0937
  477POPI   PO4 7614  12.910   6.184  10.470  0.2369  0.0379 -0.1125
  477POPI   GL1 7615  13.000   6.165   9.972  0.2608 -0.0197  0.0719
  477POPI   GL2 7616  13.198   6.370   9.848 -0.1829  0.1243  0.0478
  477POPI   C1A 7617  12.918   5.928   9.650 -0.3037 -0.1024 -0.3376
  477POPI   D2A 7618  12.997   5.603   9.509 -0.2311  0.1404  0.1526
  477POPI   C3A 7619  12.985   5.494   9.161  0.0047 -0.1449 -0.1640
  477POPI   C4A 7620  13.108   5.536   8.703  0.0594 -0.3464  0.0496
  477POPI   C1B 7621  13.046   6.402   9.425  0.1845  0.0994 -0.2957
  477POPI   C2B 7622  13.008   6.516   9.107  0.0155 -0.1647  0.1667
  477POPI   C3B 7623  12.818   6.423   8.658  0.2592  0.1206 -0.1555
  477POPI   C4B 7624  12.943   6.268   8.319  0.0546  0.2385  0.2367
  478POPI    C1 7625  17.475   8.669   9.755  0.0754  0.1206  0.0549
  478POPI    C2 7626  17.500   9.032   9.921  0.3601  0.0437  0.1862
  478POPI    C3 7627  17.487   8.706  10.153 -0.2570 -0.0188  0.0813
  478POPI   PO4 7628  17.238   8.664   9.681 -0.1028 -0.1475  0.0595
  478POPI   GL1 7629  17.188   8.981   9.331  0.1225  0.1430  0.0052
  478POPI   GL2 7630  17.432   8.881   9.228  0.0033 -0.4082  0.1698
  478POPI   C1A 7631  17.127   9.149   8.908 -0.4383 -0.1223 -0.1585
  478POPI   D2A 7632  17.017   9.362   8.496 -0.0193  0.2110  0.2257
  478POPI   C3A 7633  16.630   9.251   8.325 -0.1344 -0.1307 -0.0558
  478POPI   C4A 7634  16.434   8.884   8.175 -0.0692 -0.2252  0.1214
  478POPI   C1B 7635  17.521   8.582   8.947 -0.1421 -0.2764  0.0939
  478POPI   C2B 7636  17.263   8.578   8.587  0.0735 -0.2255 -0.0842
  478POPI   C3B 7637  17.360   8.527   8.211  0.1419 -0.3677 -0.1429
  478POPI   C4B 7638  17.195   8.549   7.838 -0.1743  0.3369 -0.1560
  479POPI    C1 7639   4.543   5.410   9.953 -0.0734 -0.1528  0.0587
  479POPI    C2 7640   4.306   5.556  10.241  0.0461 -0.0791  0.1208
  479POPI    C3 7641   4.697   5.504  10.311  0.0461 -0.2146  0.0242
  479POPI   PO4 7642   4.446   5.519   9.719  0.0139 -0.0285  0.3958
  479POPI   GL1 7643   4.461   5.874   9.393  0.3537 -0.2354  0.4519
  479POPI   GL2 7644   4.195   5.890   9.384  0.1092 -0.0356 -0.0453
  479POPI   C1A 7645   4.662   5.963   9.022  0.0242  0.0217  0.1486
  479POPI   D2A 7646   4.849   5.895   8.611  0.1008 -0.2493  0.1004
  479POPI   C3A 7647   4.762   6.143   8.243 -0.2191  0.0864  0.1418
  479POPI   C4A 7648   4.936   6.376   7.871  0.0058 -0.0133  0.2840
  479POPI   C1B 7649   4.146   5.881   8.978  0.1786  0.3717 -0.0508
  479POPI   C2B 7650   4.343   5.875   8.597 -0.0212 -0.0086 -0.0884
  479POPI   C3B 7651   4.390   5.741   8.207 -0.2398 -0.4882  0.1400
  479POPI   C4B 7652   4.238   5.491   7.899 -0.0051  0.0082 -0.4506
  480POPI    C1 7653   4.573   8.684  10.221  0.1306  0.0142 -0.1590
  480POPI    C2 7654   4.582   8.301  10.335  0.0934  0.0164 -0.1485
  480POPI    C3 7655   4.689   8.588  10.592  0.0918  0.0153 -0.1466
  480POPI   PO4 7656   4.678   8.785  10.040  0.0467 -0.0190 -0.0553
  480POPI   GL1 7657   4.756   8.747   9.613 -0.0375  0.4455  0.1575
  480POPI   GL2 7658   4.616   9.035   9.396  0.3814  0.1584  0.0652
  480POPI   C1A 7659   5.023   8.698   9.327 -0.0740 -0.0682  0.3423
  480POPI   D2A 7660   5.333   8.649   8.995 -0.1776 -0.0939  0.2567
  480POPI   C3A 7661   5.601   8.254   9.043 -0.1523  0.0385 -0.1783
  480POPI   C4A 7662   5.823   7.829   8.865 -0.0189 -0.1837 -0.3488
  480POPI   C1B 7663   4.578   8.826   9.124 -0.0815  0.0586 -0.2567
  480POPI   C2B 7664   4.462   8.839   8.706 -0.1825  0.3245 -0.0547
  480POPI   C3B 7665   4.494   8.626   8.301 -0.0069 -0.0909 -0.1628
  480POPI   C4B 7666   4.917   8.568   7.960 -0.1536 -0.1166 -0.0199
  481POPI    C1 7667   0.382  11.509   9.739  0.0841  0.0976  0.1274
  481POPI    C2 7668   0.191  11.690  10.041 -0.0572 -0.1020  0.1601
  481POPI    C3 7669   0.471  11.414  10.117 -0.0450 -0.1038  0.1092
  481POPI   PO4 7670   0.243  11.363   9.579  0.1881  0.1165 -0.1096
  481POPI   GL1 7671  -0.103  11.411   9.340  0.1377 -0.0936 -0.1374
  481POPI   GL2 7672  -0.282  11.702   9.240 -0.0465 -0.0384  0.1633
  481POPI   C1A 7673   0.011  11.354   8.887  0.1584  0.0582 -0.1375
  481POPI   D2A 7674  -0.217  11.183   8.523  0.0205 -0.3707 -0.1715
  481POPI   C3A 7675  -0.279  11.309   8.118  0.1557 -0.0973  0.2352
  481POPI   C4A 7676  -0.401  11.179   7.682 -0.5961  0.2097  0.0544
  481POPI   C1B 7677  -0.208  11.810   8.820 -0.0121 -0.0157  0.4232
  481POPI   C2B 7678  -0.386  11.705   8.449  0.2154  0.0961 -0.1993
  481POPI   C3B 7679  -0.532  11.790   8.001  0.1462  0.1113  0.0444
  481POPI   C4B 7680  -0.671  11.592   7.617 -0.0582  0.2677  0.1769
  482POPI    C1 7681   0.763   4.408   9.579 -0.0551  0.1312 -0.0102
  482POPI    C2 7682   1.150   4.310   9.561 -0.0606  0.0988  0.0471
  482POPI    C3 7683   0.962   4.319   9.914 -0.1994 -0.2264 -0.0153
  482POPI   PO4 7684   0.790   4.658   9.421  0.2807  0.1437 -0.3866
  482POPI   GL1 7685   0.593   4.799   9.050  0.0492  0.3059 -0.1841
  482POPI   GL2 7686   0.836   5.059   9.046  0.1475  0.1613  0.2248
  482POPI   C1A 7687   0.620   4.578   8.708  0.2908 -0.2847 -0.2238
  482POPI   D2A 7688   0.794   4.386   8.392 -0.0657 -0.5495 -0.1208
  482POPI   C3A 7689   0.814   4.030   8.201  0.0745  0.0420 -0.2207
  482POPI   C4A 7690   0.592   3.767   7.898  0.2011 -0.3027 -0.0285
  482POPI   C1B 7691   0.839   5.142   8.663 -0.0041 -0.1497  0.1135
  482POPI   C2B 7692   0.694   4.993   8.346  0.0082 -0.2401 -0.1875
  482POPI   C3B 7693   0.678   5.030   7.948  0.2055 -0.1468 -0.0021
  482POPI   C4B 7694   0.758   4.779   7.600  0.2647 -0.1503 -0.0971
  483POPI    C1 7695   6.857   4.586  10.317 -0.4957 -0.0341  0.1759
  483POPI    C2 7696   6.838   4.976  10.405 -0.1099  0.0598 -0.1287
  483POPI    C3 7697   7.078   4.735  10.616 -0.1365  0.0405 -0.1203
  483POPI   PO4 7698   6.665   4.630  10.085 -0.0270 -0.0246  0.3562
  483POPI   GL1 7699   6.626   4.684   9.658 -0.4507 -0.0971 -0.1001
  483POPI   GL2 7700   6.937   4.798   9.735 -0.0207  0.2500  0.4568
  483POPI   C1A 7701   6.929   4.341   9.408  0.1340 -0.0281 -0.0154
  483POPI   D2A 7702   6.769   3.961   9.314  0.0705 -0.0078 -0.0925
  483POPI   C3A 7703   6.966   3.752   8.981 -0.4325  0.0470  0.0816
  483POPI   C4A 7704   7.011   3.877   8.523  0.1732 -0.1170  0.2357
  483POPI   C1B 7705   7.035   4.930   9.305  0.0081 -0.1716 -0.3776
  483POPI   C2B 7706   7.096   4.969   8.884 -0.1161  0.2987  0.0259
  483POPI   C3B 7707   7.212   4.928   8.492  0.1406 -0.3810 -0.0169
  483POPI   C4B 7708   7.281   4.894   8.048 -0.2320 -0.3331 -0.0067
  484POPI    C1 7709  17.030   6.424   9.511 -0.1206 -0.3276 -0.3132
  484POPI    C2 7710  16.744   6.171   9.630  0.0176 -0.3248  0.0388
  484POPI    C3 7711  17.049   6.256   9.874  0.0405  0.0843 -0.1247
  484POPI   PO4 7712  17.005   6.369   9.241 -0.0100  0.0534 -0.0872
  484POPI   GL1 7713  17.317   6.197   8.945  0.1206  0.2470  0.0493
  484POPI   GL2 7714  17.638   6.351   8.922 -0.0596  0.0414  0.0495
  484POPI   C1A 7715  17.209   6.197   8.513 -0.1008  0.2332 -0.2270
  484POPI   D2A 7716  17.179   6.272   8.081 -0.3925 -0.1443  0.0623
  484POPI   C3A 7717  16.993   5.940   7.888 -0.0409  0.3401  0.0903
  484POPI   C4A 7718  16.767   5.676   7.496 -0.1583 -0.0907  0.2067
  484POPI   C1B 7719  17.712   6.233   8.532 -0.0351 -0.0020 -0.1241
  484POPI   C2B 7720  17.676   6.195   8.054 -0.0573  0.0896  0.0707
  484POPI   C3B 7721  17.415   6.071   7.746 -0.0620  0.0493 -0.2178
  484POPI   C4B 7722  17.179   6.093   7.391  0.2187  0.1000  0.0363
  485POPI    C1 7723   6.370  10.733  10.218 -0.1587 -0.0149 -0.0910
  485POPI    C2 7724   6.283  10.868  10.584  0.2192 -0.0980  0.0335
  485POPI    C3 7725   6.479  10.522  10.539 -0.1823 -0.2951 -0.2637
  485POPI   PO4 7726   6.104  10.887  10.037  0.1479  0.1631  0.1533
  485POPI   GL1 7727   5.930  10.923   9.582 -0.3647 -0.1985  0.2271
  485POPI   GL2 7728   5.690  11.140   9.713  0.1197 -0.0079  0.1152
  485POPI   C1A 7729   6.083  10.953   9.188 -0.1349 -0.4166  0.0208
  485POPI   D2A 7730   6.145  11.033   8.743 -0.2062  0.2641  0.3735
  485POPI   C3A 7731   5.934  11.098   8.413 -0.1066 -0.0179 -0.1632
  485POPI   C4A 7732   5.809  10.950   8.011 -0.1074 -0.0744  0.3369
  485POPI   C1B 7733   5.614  10.893   9.262 -0.1177 -0.0190 -0.0928
  485POPI   C2B 7734   5.549  10.982   8.857  0.3225  0.0893 -0.3023
  485POPI   C3B 7735   5.473  10.794   8.380 -0.2301  0.3129  0.0125
  485POPI   C4B 7736   5.257  10.694   8.013 -0.1166 -0.2158 -0.0286
  486POPI    C1 7737  15.653   5.622   9.730 -0.2312 -0.0231  0.0401
  486POPI    C2 7738  15.560   5.995   9.838  0.2588  0.0855  0.1085
  486POPI    C3 7739  15.740   5.751  10.098  0.2573 -0.0831 -0.0470
  486POPI   PO4 7740  15.530   5.585   9.505 -0.1827  0.0906 -0.0414
  486POPI   GL1 7741  15.693   5.632   9.153  0.1334 -0.2099  0.0840
  486POPI   GL2 7742  15.926   5.816   9.043  0.0485  0.0128 -0.1015
  486POPI   C1A 7743  15.583   5.511   8.705 -0.2788  0.1966  0.0273
  486POPI   D2A 7744  15.440   5.416   8.276  0.1492  0.2056 -0.0822
  486POPI   C3A 7745  15.751   5.295   7.981 -0.0235  0.1328  0.0153
  486POPI   C4A 7746  15.796   5.279   7.503 -0.3073 -0.3002 -0.0438
  486POPI   C1B 7747  16.047   6.052   8.628 -0.0220  0.1472 -0.0417
  486POPI   C2B 7748  16.060   6.098   8.143  0.0217 -0.4206 -0.1613
  486POPI   C3B 7749  16.072   6.287   7.725  0.0056  0.0386 -0.0021
  486POPI   C4B 7750  16.230   6.507   7.286  0.1308  0.0522 -0.0088
  487POPI    C1 7751   3.085   6.000   9.922  0.1743 -0.1413  0.2419
  487POPI    C2 7752   2.981   6.159  10.274 -0.3069  0.0480  0.0220
  487POPI    C3 7753   3.205   6.369  10.018 -0.0941 -0.0266  0.1446
  487POPI   PO4 7754   2.878   6.039   9.710  0.4988 -0.0861 -0.0834
  487POPI   GL1 7755   2.776   5.826   9.386  0.1040  0.4524  0.3668
  487POPI   GL2 7756   2.853   6.111   9.226 -0.1453 -0.5021  0.3464
  487POPI   C1A 7757   2.786   5.428   9.184  0.0617 -0.0995  0.0104
  487POPI   D2A 7758   3.081   5.263   8.898  0.1215  0.0202 -0.0918
  487POPI   C3A 7759   3.065   5.287   8.450 -0.0696  0.3474 -0.0285
  487POPI   C4A 7760   3.096   5.383   8.036  0.2076 -0.1131 -0.0674
  487POPI   C1B 7761   2.757   5.850   8.873  0.0066  0.1467 -0.2678
  487POPI   C2B 7762   2.752   5.697   8.502  0.2413  0.0033  0.2353
  487POPI   C3B 7763   2.856   5.845   8.099  0.0829  0.0819  0.1532
  487POPI   C4B 7764   2.893   5.751   7.699 -0.1304 -0.2801  0.0488
  488POPI    C1 7765   4.195   4.632   9.585  0.0828 -0.0821  0.2636
  488POPI    C2 7766   4.299   4.365   9.305 -0.2753  0.1033 -0.0555
  488POPI    C3 7767   4.564   4.637   9.430 -0.0100 -0.1906  0.0344
  488POPI   PO4 7768   3.912   4.561   9.548  0.0359  0.2512 -0.1316
  488POPI   GL1 7769   3.764   4.816   9.219  0.0628 -0.1619 -0.1320
  488POPI   GL2 7770   4.030   4.889   9.088  0.0277  0.0990  0.0168
  488POPI   C1A 7771   3.615   4.677   8.795 -0.3567 -0.2455 -0.1473
  488POPI   D2A 7772   3.271   4.855   8.617 -0.2026 -0.0205 -0.0543
  488POPI   C3A 7773   3.327   4.901   8.287 -0.1208  0.0635  0.5092
  488POPI   C4A 7774   3.264   4.926   7.831 -0.0500  0.4705 -0.1293
  488POPI   C1B 7775   3.982   4.898   8.645 -0.2552 -0.1827  0.0064
  488POPI   C2B 7776   3.828   4.754   8.128  0.0840  0.1854 -0.1018
  488POPI   C3B 7777   4.038   4.778   7.690  0.2141 -0.1982 -0.2972
  488POPI   C4B 7778   4.149   4.700   7.330  0.0474 -0.0068 -0.2893
  489POPI    C1 7779  11.814  17.955  10.767 -0.1313 -0.1093  0.1517
  489POPI    C2 7780  12.131  17.886  11.001 -0.1206 -0.1707  0.1195
  489POPI    C3 7781  11.843  17.610  10.967  0.0061 -0.2739 -0.1445
  489POPI   PO4 7782  11.964  18.094  10.581 -0.1373  0.0700 -0.1891
  489POPI   GL1 7783  12.061  18.065  10.113  0.0066  0.1640  0.4057
  489POPI   GL2 7784  11.916  18.336  10.160 -0.0349  0.0021 -0.1348
  489POPI   C1A 7785  12.290  18.096   9.754 -0.2857 -0.0619  0.1510
  489POPI   D2A 7786  12.374  17.960   9.396  0.1989  0.1986 -0.4242
  489POPI   C3A 7787  12.081  18.052   9.140 -0.0904 -0.1504  0.1241
  489POPI   C4A 7788  12.032  18.129   8.679  0.2280 -0.1205  0.1593
  489POPI   C1B 7789  11.873  18.383   9.742 -0.3088  0.1139 -0.3556
  489POPI   C2B 7790  11.827  18.465   9.249  0.1532  0.0019 -0.0366
  489POPI   C3B 7791  11.602  18.497   8.829  0.0160  0.3360 -0.0988
  489POPI   C4B 7792  11.451  18.497   8.364 -0.2359  0.1431 -0.1619
  490POPI    C1 7793   8.238   0.444  10.512 -0.1615  0.2405  0.1449
  490POPI    C2 7794   8.311   0.738  10.773 -0.1335 -0.0355  0.4545
  490POPI    C3 7795   8.557   0.423  10.753  0.1727  0.2276 -0.2856
  490POPI   PO4 7796   8.134   0.552  10.265  0.0095 -0.0313 -0.1210
  490POPI   GL1 7797   8.159   0.543   9.818 -0.0030 -0.0498  0.0249
  490POPI   GL2 7798   8.175   0.157   9.588 -0.2897 -0.0949 -0.1418
  490POPI   C1A 7799   8.130   1.052   9.639 -0.2549  0.0276  0.0167
  490POPI   D2A 7800   7.992   1.294   9.337  0.1961 -0.1396  0.2480
  490POPI   C3A 7801   8.085   1.232   8.913  0.2332 -0.0300 -0.1276
  490POPI   C4A 7802   8.307   0.937   8.704  0.0828 -0.3202  0.3017
  490POPI   C1B 7803   8.231   0.388   9.386 -0.0439 -0.1142  0.0020
  490POPI   C2B 7804   8.341   0.918   9.219 -0.0567  0.3750  0.1609
  490POPI   C3B 7805   8.634   1.103   9.217 -0.0237 -0.0744  0.2343
  490POPI   C4B 7806   8.994   0.922   9.415  0.0446  0.2659  0.2845
  491POPI    C1 7807   5.048   7.336  10.038  0.1980  0.0998  0.0634
  491POPI    C2 7808   5.299   7.642   9.983  0.0680  0.1822 -0.0806
  491POPI    C3 7809   5.117   7.594  10.336  0.2351  0.1591  0.0038
  491POPI   PO4 7810   4.966   7.344   9.759  0.0291 -0.2184 -0.2563
  491POPI   GL1 7811   4.838   7.764   9.584 -0.0401 -0.0795 -0.1999
  491POPI   GL2 7812   4.614   7.904   9.465  0.1014 -0.1249 -0.2119
  491POPI   C1A 7813   5.066   7.606   9.219 -0.2321  0.0342  0.1997
  491POPI   D2A 7814   5.318   7.887   8.886  0.2874 -0.2315  0.2290
  491POPI   C3A 7815   5.132   8.134   8.553 -0.0884 -0.0100 -0.2650
  491POPI   C4A 7816   5.257   8.224   8.135  0.1581  0.0563  0.2478
  491POPI   C1B 7817   4.591   7.769   9.069  0.1969  0.3711  0.0629
  491POPI   C2B 7818   4.758   7.830   8.667 -0.0205  0.0569 -0.3251
  491POPI   C3B 7819   5.070   7.684   8.314  0.0112  0.3606  0.2484
  491POPI   C4B 7820   5.236   7.658   7.939  0.5191 -0.0441  0.1150
  492POPI    C1 7821  12.172   4.162  10.398  0.0638  0.0708 -0.1074
  492POPI    C2 7822  11.883   4.206  10.671 -0.0122 -0.0081 -0.1743
  492POPI    C3 7823  12.207   4.440  10.683 -0.0141 -0.0124 -0.0159
  492POPI   PO4 7824  12.112   4.246  10.164 -0.2346 -0.0506 -0.0886
  492POPI   GL1 7825  12.169   3.866   9.797 -0.0202  0.0696  0.0469
  492POPI   GL2 7826  12.448   4.093   9.743  0.0220 -0.1253 -0.1166
  492POPI   C1A 7827  12.388   3.516   9.641 -0.1433  0.0891  0.0328
  492POPI   D2A 7828  12.598   3.423   9.245  0.1066  0.0338 -0.2401
  492POPI   C3A 7829  12.965   3.387   9.203  0.3951  0.1459  0.3340
  492POPI   C4A 7830  13.285   3.668   9.078  0.2940  0.0474  0.0277
  492POPI   C1B 7831  12.390   3.896   9.320 -0.1553  0.0409 -0.2583
  492POPI   C2B 7832  12.355   3.691   8.908 -0.0786  0.2115 -0.2555
  492POPI   C3B 7833  12.280   3.530   8.438 -0.0130 -0.0812  0.1712
  492POPI   C4B 7834  12.427   3.162   8.284 -0.2259  0.0867  0.0097
  493POPI    C1 7835  12.813   2.324  10.984  0.0429 -0.3901 -0.1589
  493POPI    C2 7836  12.973   2.583  11.243 -0.1176 -0.2289 -0.2188
  493POPI    C3 7837  13.094   2.202  11.241  0.1012 -0.1618 -0.1117
  493POPI   PO4 7838  12.743   2.463  10.814  0.1434  0.2535  0.2260
  493POPI   GL1 7839  12.654   2.648  10.416 -0.2143  0.0866 -0.0269
  493POPI   GL2 7840  12.488   2.903  10.423  0.0817 -0.1642  0.1161
  493POPI   C1A 7841  12.416   2.555  10.044  0.4902  0.1158 -0.0347
  493POPI   D2A 7842  12.112   2.169   9.979  0.4175 -0.1995  0.0982
  493POPI   C3A 7843  11.755   2.228   9.732 -0.1372  0.1129 -0.1725
  493POPI   C4A 7844  11.475   2.190   9.433  0.2165  0.1802 -0.0371
  493POPI   C1B 7845  12.078   2.896  10.159 -0.3429 -0.1409 -0.0154
  493POPI   C2B 7846  12.016   2.648   9.788 -0.2393  0.1289  0.3579
  493POPI   C3B 7847  12.240   2.352   9.501  0.2501  0.2220 -0.3792
  493POPI   C4B 7848  12.481   2.385   9.157  0.2706 -0.3898 -0.2738
  494POPI    C1 7849   8.915  10.214  10.242  0.1076 -0.1370 -0.1508
  494POPI    C2 7850   8.867  10.611  10.266 -0.1249 -0.1324 -0.5913
  494POPI    C3 7851   8.640  10.368  10.489  0.1722 -0.0183 -0.1518
  494POPI   PO4 7852   9.114  10.214  10.045 -0.1337  0.1619  0.1381
  494POPI   GL1 7853   9.268  10.557   9.677 -0.0128  0.0100 -0.0236
  494POPI   GL2 7854   9.503  10.514   9.847  0.3169  0.0336  0.1101
  494POPI   C1A 7855   9.111  10.382   9.323  0.0476  0.0791  0.1561
  494POPI   D2A 7856   9.054  10.114   9.033  0.1234  0.0442  0.0622
  494POPI   C3A 7857   8.926  10.230   8.691  0.0970  0.1379  0.0648
  494POPI   C4A 7858   8.791  10.453   8.428  0.0905  0.0014  0.0767
  494POPI   C1B 7859   9.719  10.561   9.373 -0.2998 -0.1340 -0.5137
  494POPI   C2B 7860   9.586  10.730   9.042 -0.1466 -0.0750  0.0428
  494POPI   C3B 7861   9.561  10.772   8.548  0.3470  0.2018  0.1939
  494POPI   C4B 7862   9.519  10.580   8.095  0.3058  0.1628  0.3103
  495POPI    C1 7863  16.274   8.608   9.742 -0.0930  0.1354 -0.1343
  495POPI    C2 7864  16.027   8.763  10.016 -0.0072 -0.1359  0.1013
  495POPI    C3 7865  16.418   8.731  10.094  0.0389 -0.0941 -0.1059
  495POPI   PO4 7866  16.259   8.692   9.546 -0.0173  0.0607  0.1930
  495POPI   GL1 7867  16.305   8.531   9.210  0.1618  0.0433 -0.0096
  495POPI   GL2 7868  16.297   8.913   9.087 -0.0419 -0.0441  0.0454
  495POPI   C1A 7869  16.595   8.393   8.941 -0.1322  0.1864 -0.0055
  495POPI   D2A 7870  16.830   8.440   8.616 -0.0219  0.0633 -0.0173
  495POPI   C3A 7871  16.810   8.395   8.143  0.0103 -0.2191 -0.0056
  495POPI   C4A 7872  16.729   8.266   7.749  0.0264  0.2223  0.0720
  495POPI   C1B 7873  16.243   9.068   8.619  0.1560  0.1780 -0.4026
  495POPI   C2B 7874  16.128   9.374   8.366  0.1067  0.0511  0.0133
  495POPI   C3B 7875  16.294   9.658   8.130 -0.1874  0.0800  0.1194
  495POPI   C4B 7876  16.302   9.942   7.738 -0.1952  0.1387 -0.0467
  496POPI    C1 7877  13.213   1.140  10.578  0.0422 -0.1832  0.0998
  496POPI    C2 7878  13.126   1.307  10.931  0.1139 -0.2289  0.1395
  496POPI    C3 7879  13.139   0.909  10.897  0.0604 -0.2252  0.0737
  496POPI   PO4 7880  13.061   1.287  10.402 -0.1804  0.2009  0.0946
  496POPI   GL1 7881  13.260   1.467   9.947 -0.1301 -0.0942 -0.2618
  496POPI   GL2 7882  13.047   1.258   9.885  0.0203  0.1193 -0.0740
  496POPI   C1A 7883  13.466   1.336   9.547 -0.2271  0.0840 -0.2143
  496POPI   D2A 7884  13.687   1.347   9.150 -0.1677  0.1114 -0.3012
  496POPI   C3A 7885  13.911   1.143   8.880 -0.0910 -0.0300 -0.3468
  496POPI   C4A 7886  14.286   0.948   8.945 -0.2080  0.1230 -0.3573
  496POPI   C1B 7887  12.979   1.224   9.499  0.0090 -0.1601  0.4282
  496POPI   C2B 7888  12.879   1.296   9.114  0.2350 -0.0615  0.1776
  496POPI   C3B 7889  12.737   1.514   8.810 -0.0770 -0.2249 -0.0144
  496POPI   C4B 7890  12.478   1.498   8.515 -0.2904  0.0767 -0.3425
  497POPI    C1 7891  15.024  17.385   9.996  0.1009  0.0687 -0.0604
  497POPI    C2 7892  14.717  17.344  10.249  0.1699  0.2036  0.0466
  497POPI    C3 7893  15.070  17.474  10.383  0.2860  0.0108 -0.0685
  497POPI   PO4 7894  15.063  17.159   9.907 -0.1593  0.1583 -0.4046
  497POPI   GL1 7895  14.817  17.083   9.517  0.2357 -0.0289  0.0198
  497POPI   GL2 7896  14.627  17.289   9.661 -0.0557 -0.1724 -0.0437
  497POPI   C1A 7897  14.783  17.292   9.142 -0.1660  0.0580  0.1078
  497POPI   D2A 7898  14.527  17.345   8.763  0.1914 -0.1655  0.3719
  497POPI   C3A 7899  14.261  17.202   8.574  0.0173 -0.0048 -0.2033
  497POPI   C4A 7900  14.267  17.189   8.222  0.1102  0.0070  0.0524
  497POPI   C1B 7901  14.319  17.309   9.267  0.0542 -0.1714 -0.2164
  497POPI   C2B 7902  14.049  17.506   9.011  0.1365 -0.0852 -0.1164
  497POPI   C3B 7903  13.975  17.813   8.717  0.2058 -0.0681  0.2051
  497POPI   C4B 7904  13.887  17.878   8.259 -0.0851  0.1827 -0.2895
  498POPI    C1 7905  14.007  12.537  10.390  0.0385  0.0817 -0.0912
  498POPI    C2 7906  13.623  12.523  10.502  0.0236 -0.2225 -0.1705
  498POPI    C3 7907  13.906  12.623  10.767 -0.0924 -0.1615 -0.0687
  498POPI   PO4 7908  13.999  12.239  10.247  0.3299  0.2805 -0.1991
  498POPI   GL1 7909  13.978  12.154   9.893  0.0794 -0.2130 -0.0548
  498POPI   GL2 7910  14.006  12.435   9.758  0.1299 -0.1640 -0.1383
  498POPI   C1A 7911  13.627  12.213   9.472 -0.2283 -0.0320 -0.3170
  498POPI   D2A 7912  13.653  12.089   9.007  0.1565  0.2277  0.2014
  498POPI   C3A 7913  13.460  12.360   8.690 -0.1275 -0.0049 -0.0957
  498POPI   C4A 7914  13.318  12.339   8.267 -0.0152 -0.0114  0.1992
  498POPI   C1B 7915  14.015  12.597   9.317 -0.1132 -0.0442 -0.0302
  498POPI   C2B 7916  13.856  12.630   8.923 -0.1170  0.1596 -0.1732
  498POPI   C3B 7917  13.866  12.619   8.508 -0.2508 -0.0340 -0.0254
  498POPI   C4B 7918  13.673  12.695   8.099  0.1203 -0.1818 -0.0864
  499POPI    C1 7919  17.713  17.852  10.141  0.1737 -0.1257  0.0739
  499POPI    C2 7920  18.037  17.617  10.154  0.1253 -0.1835  0.2794
  499POPI    C3 7921  17.741  17.563  10.416 -0.0807 -0.1722  0.0526
  499POPI   PO4 7922  17.749  17.930   9.830  0.0683 -0.2360  0.0535
  499POPI   GL1 7923  17.621  17.909   9.493  0.0866  0.1464 -0.0305
  499POPI   GL2 7924  17.583  17.570   9.406  0.1948 -0.0914 -0.1072
  499POPI   C1A 7925  17.756  17.956   9.057 -0.0421 -0.0755 -0.4941
  499POPI   D2A 7926  17.845  18.076   8.730  0.0342 -0.0052  0.0017
  499POPI   C3A 7927  17.692  17.948   8.406  0.0099 -0.1448  0.0938
  499POPI   C4A 7928  17.492  17.879   7.970 -0.2129  0.1323 -0.0469
  499POPI   C1B 7929  17.287  17.769   9.080  0.0594  0.1082 -0.3307
  499POPI   C2B 7930  17.277  18.050   8.717 -0.1601  0.3285 -0.2625
  499POPI   C3B 7931  17.146  18.110   8.339 -0.2038 -0.1865 -0.4904
  499POPI   C4B 7932  16.958  17.947   8.036  0.0769  0.0699  0.2960
  500POPI    C1 7933   0.064  14.148  10.053 -0.0613 -0.1854  0.0112
  500POPI    C2 7934  -0.190  14.446  10.137  0.1320  0.0298 -0.1559
  500POPI    C3 7935   0.009  14.263  10.432  0.1113  0.1556 -0.0635
  500POPI   PO4 7936  -0.035  13.938   9.882 -0.2223  0.0630 -0.1450
  500POPI   GL1 7937  -0.205  14.026   9.468 -0.1546  0.2090 -0.1854
  500POPI   GL2 7938  -0.377  13.992   9.273  0.0095 -0.3880  0.1556
  500POPI   C1A 7939   0.111  14.012   9.153  0.0807 -0.0787 -0.3867
  500POPI   D2A 7940   0.008  13.922   8.714 -0.2554  0.0867 -0.0383
  500POPI   C3A 7941  -0.057  14.143   8.333  0.4902 -0.0223  0.0649
  500POPI   C4A 7942   0.257  14.330   8.035  0.2849 -0.1654  0.0570
  500POPI   C1B 7943  -0.625  14.216   9.006  0.0576  0.1848  0.1836
  500POPI   C2B 7944  -0.571  14.305   8.642  0.3976  0.1795  0.3683
  500POPI   C3B 7945  -0.383  14.516   8.199  0.0596 -0.1892  0.0008
  500POPI   C4B 7946  -0.474  14.624   7.823 -0.4708  0.2597  0.1224
  501POPI    C1 7947   3.783  13.922  10.224 -0.2561 -0.1201  0.0573
  501POPI    C2 7948   3.831  14.227  10.479 -0.0026 -0.1013 -0.0096
  501POPI    C3 7949   3.849  13.850  10.611  0.1617 -0.0918 -0.0040
  501POPI   PO4 7950   3.758  13.995   9.952 -0.1594 -0.1724 -0.0739
  501POPI   GL1 7951   3.750  13.930   9.473 -0.0678  0.0497 -0.0249
  501POPI   GL2 7952   4.068  13.985   9.485 -0.0112 -0.1140  0.1890
  501POPI   C1A 7953   3.435  14.075   9.226 -0.0666  0.1977  0.1239
  501POPI   D2A 7954   3.510  14.136   8.796 -0.2039 -0.1485 -0.0630
  501POPI   C3A 7955   3.559  14.149   8.325 -0.0950  0.0153 -0.1962
  501POPI   C4A 7956   3.532  14.023   7.877  0.2733 -0.2064  0.1360
  501POPI   C1B 7957   3.957  14.065   9.033 -0.0338  0.3708  0.1115
  501POPI   C2B 7958   4.051  14.299   8.681 -0.0924  0.2359 -0.0717
  501POPI   C3B 7959   4.106  14.303   8.267  0.2427  0.2029  0.0768
  501POPI   C4B 7960   3.988  14.131   7.779  0.2704 -0.1130 -0.1048
  502POPI    C1 7961  13.848   5.007  10.439  0.1943 -0.1056  0.1133
  502POPI    C2 7962  13.473   4.868  10.437  0.1175  0.0966  0.2323
  502POPI    C3 7963  13.773   4.631  10.553  0.0323 -0.0780  0.1000
  502POPI   PO4 7964  13.882   5.054  10.236  0.2540 -0.1506 -0.0657
  502POPI   GL1 7965  13.867   5.011   9.835 -0.0495  0.1665  0.1524
  502POPI   GL2 7966  13.762   5.168   9.603  0.0754 -0.0123  0.1154
  502POPI   C1A 7967  14.247   4.948   9.476 -0.1894  0.1177 -0.0483
  502POPI   D2A 7968  14.275   4.626   9.076 -0.2612 -0.1981  0.0596
  502POPI   C3A 7969  14.402   4.716   8.644 -0.2377  0.0154 -0.0801
  502POPI   C4A 7970  14.444   4.524   8.223  0.1449 -0.1814 -0.0913
  502POPI   C1B 7971  13.991   5.335   9.232 -0.1483  0.3090 -0.0387
  502POPI   C2B 7972  13.986   5.035   8.979 -0.1234  0.1709 -0.1120
  502POPI   C3B 7973  14.020   4.977   8.500 -0.0401 -0.0469 -0.1084
  502POPI   C4B 7974  13.950   5.296   8.190 -0.2719  0.4421  0.2682
  503POPI    C1 7975   0.298  17.131  10.169  0.0259 -0.0485 -0.0560
  503POPI    C2 7976   0.068  16.888  10.388  0.0208  0.0884  0.0924
  503POPI    C3 7977   0.422  17.010  10.529  0.1209 -0.0066 -0.0744
  503POPI   PO4 7978   0.031  17.258  10.011  0.0247  0.3049 -0.1698
  503POPI   GL1 7979  -0.360  17.200   9.699 -0.2828 -0.0346 -0.1164
  503POPI   GL2 7980  -0.617  17.158   9.513  0.0521  0.1744  0.1781
  503POPI   C1A 7981  -0.181  17.377   9.359  0.0705 -0.3656  0.3110
  503POPI   D2A 7982   0.150  17.432   9.089  0.0005  0.0032  0.3620
  503POPI   C3A 7983   0.142  17.364   8.638  0.0113  0.3124  0.1156
  503POPI   C4A 7984   0.312  17.451   8.197  0.0803  0.0918  0.0514
  503POPI   C1B 7985  -0.684  17.298   9.129  0.1182 -0.0567 -0.0952
  503POPI   C2B 7986  -0.393  17.265   8.846  0.0700 -0.2141 -0.0394
  503POPI   C3B 7987  -0.398  17.160   8.425 -0.3673  0.0792 -0.3454
  503POPI   C4B 7988  -0.062  17.128   8.164  0.1067  0.0455  0.1177
  504POPI    C1 7989  15.769  16.616   9.529  0.1588 -0.2062 -0.0160
  504POPI    C2 7990  16.153  16.592   9.640  0.0998  0.0352  0.2519
  504POPI    C3 7991  15.916  16.874   9.798 -0.1519 -0.0193 -0.0203
  504POPI   PO4 7992  15.647  16.463   9.616 -0.1891  0.2139  0.0473
  504POPI   GL1 7993  15.431  16.104   9.496 -0.3184 -0.0903 -0.1694
  504POPI   GL2 7994  15.120  16.073   9.370 -0.4862 -0.1692  0.1073
  504POPI   C1A 7995  15.489  15.977   9.057  0.0326 -0.0164 -0.0743
  504POPI   D2A 7996  15.259  15.940   8.665  0.0051 -0.0731  0.0081
  504POPI   C3A 7997  15.173  16.146   8.184 -0.0817 -0.1432  0.1456
  504POPI   C4A 7998  15.377  16.391   7.792 -0.0861  0.1409 -0.2926
  504POPI   C1B 7999  14.897  15.929   9.025 -0.1521 -0.1540  0.0219
  504POPI   C2B 8000  14.793  15.894   8.603 -0.1456 -0.0365  0.1221
  504POPI   C3B 8001  14.397  16.044   8.394  0.1644 -0.0433  0.1704
  504POPI   C4B 8002  14.347  16.313   7.967  0.3008  0.0415  0.1275
  505POPI    C1 8003  10.552   3.261  10.766 -0.2913  0.1384 -0.1153
  505POPI    C2 8004  10.725   3.544  10.990  0.1125 -0.1818 -0.0110
  505POPI    C3 8005  10.491   3.268  11.161  0.2413 -0.2934 -0.0126
  505POPI   PO4 8006  10.765   3.211  10.587  0.0611  0.0064 -0.0655
  505POPI   GL1 8007  10.948   2.979  10.266  0.0993 -0.2802 -0.1926
  505POPI   GL2 8008  11.006   2.756  10.143 -0.0250  0.4466 -0.4284
  505POPI   C1A 8009  11.207   3.146   9.992 -0.2837  0.0079  0.2246
  505POPI   D2A 8010  11.439   3.094   9.717 -0.0149  0.2367  0.3363
  505POPI   C3A 8011  11.418   3.123   9.242 -0.0027  0.1295 -0.1974
  505POPI   C4A 8012  11.630   3.054   8.928 -0.0033  0.1245  0.0864
  505POPI   C1B 8013  10.988   2.904   9.634  0.1131  0.1485 -0.0182
  505POPI   C2B 8014  10.864   3.073   9.234 -0.4281 -0.3300 -0.2124
  505POPI   C3B 8015  10.584   2.954   8.909 -0.2943 -0.0955 -0.1315
  505POPI   C4B 8016  10.317   2.706   8.712  0.1082 -0.1512 -0.3762
  506POPI    C1 8017   5.048   9.003  10.393 -0.0419  0.2336  0.0524
  506POPI    C2 8018   4.965   9.329  10.609 -0.1695 -0.0285  0.4092
  506POPI    C3 8019   4.676   9.067  10.523 -0.1021  0.0287 -0.0155
  506POPI   PO4 8020   5.136   9.046  10.142  0.3062 -0.1450 -0.2446
  506POPI   GL1 8021   5.344   9.226   9.810 -0.1319  0.0910  0.2245
  506POPI   GL2 8022   5.017   9.216   9.613 -0.0690  0.1078 -0.3892
  506POPI   C1A 8023   5.452   8.975   9.378  0.1248  0.1464 -0.0324
  506POPI   D2A 8024   5.657   9.105   8.941 -0.4676 -0.2862  0.2180
  506POPI   C3A 8025   5.484   8.926   8.656 -0.0417  0.0169 -0.2313
  506POPI   C4A 8026   5.405   8.511   8.529 -0.0209  0.0048  0.0083
  506POPI   C1B 8027   5.148   9.436   9.277  0.3210  0.2609 -0.1165
  506POPI   C2B 8028   5.296   9.511   8.868 -0.1356 -0.1882 -0.0077
  506POPI   C3B 8029   5.274   9.292   8.451  0.1978  0.1963 -0.0166
  506POPI   C4B 8030   5.404   8.920   8.194 -0.0451 -0.1507  0.1628
  507POPI    C1 8031  14.400   6.235  10.288 -0.0651 -0.1037  0.0259
  507POPI    C2 8032  14.444   6.605  10.434 -0.1134 -0.0722 -0.0392
  507POPI    C3 8033  14.606   6.293  10.626  0.0905  0.0032 -0.0867
  507POPI   PO4 8034  14.450   6.239  10.029  0.1931  0.1608  0.1825
  507POPI   GL1 8035  14.751   6.460   9.728  0.0142  0.1183  0.0644
  507POPI   GL2 8036  14.837   6.727   9.732  0.0475  0.2850 -0.3163
  507POPI   C1A 8037  14.633   6.352   9.324  0.2581  0.1758 -0.0297
  507POPI   D2A 8038  14.376   6.170   9.089 -0.1254 -0.2227  0.0473
  507POPI   C3A 8039  14.301   6.229   8.638  0.4055 -0.1106  0.2477
  507POPI   C4A 8040  14.213   6.467   8.281 -0.1636  0.3088  0.3682
  507POPI   C1B 8041  14.587   6.949   9.446 -0.1558  0.0514  0.3449
  507POPI   C2B 8042  14.300   7.039   9.126  0.2142 -0.0834 -0.2681
  507POPI   C3B 8043  14.103   7.411   9.022  0.0950  0.1241  0.0747
  507POPI   C4B 8044  14.180   7.773   9.226  0.1673 -0.1596  0.3903
  508POPI    C1 8045   7.101   9.294  10.430 -0.0960 -0.0587  0.0789
  508POPI    C2 8046   7.306   9.423  10.748  0.0384 -0.1828  0.0439
  508POPI    C3 8047   7.143   9.058  10.750 -0.0450 -0.1461  0.0082
  508POPI   PO4 8048   6.996   9.580  10.323 -0.0906  0.0401 -0.1239
  508POPI   GL1 8049   7.100   9.604   9.909 -0.2739 -0.0835 -0.0063
  508POPI   GL2 8050   7.218   9.320   9.656  0.2322 -0.1098 -0.0956
  508POPI   C1A 8051   7.085  10.003   9.698  0.0031 -0.0667  0.1520
  508POPI   D2A 8052   7.139  10.122   9.352  0.1665 -0.1817  0.2027
  508POPI   C3A 8053   7.175   9.900   9.013 -0.1794 -0.1555 -0.0702
  508POPI   C4A 8054   7.332   9.747   8.657  0.0132  0.3684 -0.3019
  508POPI   C1B 8055   7.185   9.365   9.275  0.3535 -0.0219  0.0160
  508POPI   C2B 8056   7.220   9.275   8.829  0.0786 -0.0476 -0.1936
  508POPI   C3B 8057   7.094   8.897   8.690 -0.2156  0.0983 -0.0555
  508POPI   C4B 8058   6.777   8.577   8.971 -0.0244 -0.0186 -0.3851
  509POPI    C1 8059  13.196  14.966  10.856  0.0061 -0.3012 -0.0766
  509POPI    C2 8060  12.798  15.010  10.854  0.0166 -0.2017 -0.0408
  509POPI    C3 8061  12.960  14.658  10.954 -0.0595 -0.2099  0.0550
  509POPI   PO4 8062  13.303  15.026  10.594  0.1812 -0.1149  0.2947
  509POPI   GL1 8063  13.327  15.166  10.103 -0.0904  0.1385 -0.1019
  509POPI   GL2 8064  13.518  15.102   9.954 -0.6007 -0.3412  0.2765
  509POPI   C1A 8065  12.966  15.072   9.938  0.0032  0.2821  0.0042
  509POPI   D2A 8066  12.630  14.903   9.752 -0.1555  0.0188  0.0414
  509POPI   C3A 8067  12.563  15.018   9.330  0.0826 -0.1061  0.1560
  509POPI   C4A 8068  12.462  14.868   8.934 -0.1746 -0.2016  0.0081
  509POPI   C1B 8069  13.396  14.895   9.619  0.2093 -0.0202  0.2163
  509POPI   C2B 8070  13.081  15.113   9.372 -0.1732  0.1820 -0.0094
  509POPI   C3B 8071  12.931  14.973   8.918  0.1610 -0.0205 -0.2780
  509POPI   C4B 8072  12.780  14.884   8.477  0.2370  0.0641  0.2150
  510POPI    C1 8073  15.551  17.388  10.163 -0.0304  0.2504  0.1103
  510POPI    C2 8074  15.778  17.278  10.474 -0.1628 -0.0274  0.1121
  510POPI    C3 8075  15.404  17.141  10.441 -0.1319 -0.0446 -0.1986
  510POPI   PO4 8076  15.647  17.310   9.900  0.4961  0.1469 -0.0111
  510POPI   GL1 8077  15.557  17.110   9.503 -0.0891  0.0346 -0.0687
  510POPI   GL2 8078  15.412  17.323   9.418  0.2414  0.1439 -0.1373
  510POPI   C1A 8079  15.629  16.933   9.169  0.1199 -0.1833  0.0106
  510POPI   D2A 8080  15.491  16.547   9.046  0.2901  0.2814  0.1128
  510POPI   C3A 8081  15.205  16.517   8.680  0.0106  0.2193  0.3105
  510POPI   C4A 8082  15.115  16.628   8.352  0.0058 -0.0568  0.2332
  510POPI   C1B 8083  15.291  17.328   8.940  0.1550 -0.1477 -0.1850
  510POPI   C2B 8084  15.010  17.405   8.636  0.1245 -0.3972 -0.2122
  510POPI   C3B 8085  14.722  17.735   8.586  0.1562 -0.3736 -0.0046
  510POPI   C4B 8086  14.375  17.740   8.326  0.3517  0.0358 -0.0325
  511POPI    C1 8087   3.685   6.155   9.944 -0.1405  0.0566  0.0251
  511POPI    C2 8088   3.844   5.884  10.192  0.0296 -0.0156 -0.1601
  511POPI    C3 8089   3.457   5.979  10.221  0.0503 -0.0131  0.1403
  511POPI   PO4 8090   3.846   6.220   9.644  0.2097  0.0814 -0.0897
  511POPI   GL1 8091   3.879   6.349   9.157 -0.0206 -0.3610  0.1185
  511POPI   GL2 8092   4.008   6.646   9.398  0.1111 -0.0217  0.1485
  511POPI   C1A 8093   3.991   6.287   8.648  0.0958  0.3728 -0.1914
  511POPI   D2A 8094   3.917   6.569   8.311 -0.0741  0.0620  0.0534
  511POPI   C3A 8095   3.603   6.375   8.070  0.2819  0.0212  0.1764
  511POPI   C4A 8096   3.494   6.472   7.598  0.2155  0.0750  0.0686
  511POPI   C1B 8097   3.835   6.889   8.999 -0.0422 -0.1667 -0.4441
  511POPI   C2B 8098   3.465   7.073   8.579 -0.0961 -0.3496  0.4865
  511POPI   C3B 8099   3.672   6.979   8.141 -0.0313 -0.3379  0.1952
  511POPI   C4B 8100   3.840   6.796   7.771 -0.1462 -0.0151 -0.0717
  512POPI    C1 8101  16.561   6.822   9.577  0.0841 -0.0129  0.1196
  512POPI    C2 8102  16.713   6.615   9.883 -0.0158 -0.0278  0.1595
  512POPI    C3 8103  16.333   6.738   9.894 -0.0707 -0.1754 -0.0328
  512POPI   PO4 8104  16.565   6.647   9.402 -0.0319  0.0280 -0.0619
  512POPI   GL1 8105  16.648   6.620   9.018 -0.3064 -0.3474 -0.2384
  512POPI   GL2 8106  16.823   6.371   8.784 -0.0453  0.1938 -0.0944
  512POPI   C1A 8107  16.506   6.919   8.622  0.0532 -0.2182 -0.1594
  512POPI   D2A 8108  16.393   6.850   8.171 -0.2623  0.0419  0.3145
  512POPI   C3A 8109  16.062   6.719   8.280 -0.0355  0.0544  0.1416
  512POPI   C4A 8110  15.736   6.525   8.016  0.1391 -0.0229 -0.1717
  512POPI   C1B 8111  16.845   6.579   8.450  0.4566  0.0030  0.0436
  512POPI   C2B 8112  16.950   6.733   8.075  0.0253  0.3770  0.2124
  512POPI   C3B 8113  16.738   6.846   7.635 -0.0213 -0.3452 -0.1480
  512POPI   C4B 8114  17.048   7.103   7.376  0.2357 -0.0123  0.2243
  513POPI    C1 8115  11.522  14.819  10.213 -0.0287 -0.0440 -0.1244
  513POPI    C2 8116  11.570  14.635  10.565 -0.0921 -0.0249 -0.1057
  513POPI    C3 8117  11.432  15.010  10.552 -0.0827 -0.0229 -0.1504
  513POPI   PO4 8118  11.690  14.805  10.058 -0.0587 -0.0000  0.1120
  513POPI   GL1 8119  12.009  14.956   9.904 -0.1481  0.0467  0.0629
  513POPI   GL2 8120  12.137  14.625   9.961  0.0550 -0.2609 -0.3132
  513POPI   C1A 8121  12.098  14.917   9.422 -0.1454  0.4766  0.0637
  513POPI   D2A 8122  12.003  14.780   9.077  0.1731  0.1043  0.0807
  513POPI   C3A 8123  11.827  14.657   8.633  0.1250 -0.3853 -0.1798
  513POPI   C4A 8124  11.887  14.360   8.395  0.0623  0.2569 -0.2749
  513POPI   C1B 8125  12.394  14.501   9.664  0.1402  0.1715 -0.2483
  513POPI   C2B 8126  12.300  14.403   9.229 -0.1309 -0.2173  0.0272
  513POPI   C3B 8127  12.269  14.387   8.779  0.1276  0.0072  0.0833
  513POPI   C4B 8128  12.332  14.691   8.446 -0.0258 -0.1420  0.1793
  514POPI    C1 8129  11.365  10.441  10.437 -0.1936  0.1416  0.1179
  514POPI    C2 8130  11.024  10.495  10.641 -0.1615  0.2070  0.1547
  514POPI    C3 8131  11.373  10.601  10.804 -0.1116  0.0324  0.1639
  514POPI   PO4 8132  11.293  10.447  10.169  0.0920  0.1749  0.1392
  514POPI   GL1 8133  11.025  10.223   9.864 -0.0636  0.0975  0.3160
  514POPI   GL2 8134  11.088  10.398   9.677  0.0871 -0.0103  0.0215
  514POPI   C1A 8135  10.910   9.872   9.572  0.1037 -0.1030 -0.1253
  514POPI   D2A 8136  11.118   9.385   9.282  0.1476  0.3150  0.1544
  514POPI   C3A 8137  10.942   9.369   8.873 -0.1454  0.1926  0.0954
  514POPI   C4A 8138  10.981   9.339   8.454  0.2514  0.2814 -0.2244
  514POPI   C1B 8139  11.074  10.288   9.261  0.0676 -0.0395  0.1456
  514POPI   C2B 8140  11.113  10.265   8.836  0.0068  0.0059 -0.0888
  514POPI   C3B 8141  11.072  10.100   8.398  0.2339  0.2601  0.0813
  514POPI   C4B 8142  11.125  10.132   7.945 -0.2067  0.1186 -0.3062
  515POPI    C1 8143   0.644  15.643  10.278 -0.0082 -0.1737 -0.1319
  515POPI    C2 8144   0.793  15.299  10.416 -0.1639 -0.1747  0.0381
  515POPI    C3 8145   0.406  15.383  10.466 -0.1360  0.0064 -0.0416
  515POPI   PO4 8146   0.811  15.725  10.039  0.2648  0.4654 -0.1120
  515POPI   GL1 8147   0.837  15.686   9.583  0.1512 -0.1933  0.2560
  515POPI   GL2 8148   0.729  15.960   9.580 -0.0729 -0.5413 -0.1374
  515POPI   C1A 8149   1.127  15.388   9.387  0.0533 -0.1130  0.1105
  515POPI   D2A 8150   1.494  15.165   9.451 -0.0141 -0.0471 -0.0211
  515POPI   C3A 8151   1.664  15.316   9.143  0.0290  0.2172  0.3207
  515POPI   C4A 8152   1.831  15.738   9.023 -0.0778 -0.2876 -0.1002
  515POPI   C1B 8153   0.589  15.982   9.166  0.0181 -0.0636 -0.0534
  515POPI   C2B 8154   0.402  15.895   8.792 -0.0057  0.2133  0.1295
  515POPI   C3B 8155   0.435  15.811   8.350  0.1265 -0.1293  0.0762
  515POPI   C4B 8156   0.578  15.759   7.934  0.0128  0.0062 -0.2274
  516POPI    C1 8157   6.895  16.882  10.031 -0.0657 -0.2432 -0.0617
  516POPI    C2 8158   6.834  16.687  10.375 -0.2894 -0.0320  0.0207
  516POPI    C3 8159   6.953  17.069  10.379 -0.0254 -0.1095 -0.1394
  516POPI   PO4 8160   6.665  16.868   9.935 -0.0200 -0.0125  0.0072
  516POPI   GL1 8161   6.439  17.048   9.626  0.0632  0.0167  0.0413
  516POPI   GL2 8162   6.160  16.869   9.643  0.2213 -0.0998  0.1852
  516POPI   C1A 8163   6.395  17.001   9.194  0.1027 -0.1748  0.0135
  516POPI   D2A 8164   6.285  17.110   8.753 -0.1598 -0.0376 -0.0453
  516POPI   C3A 8165   6.039  16.920   8.431  0.2637 -0.1696  0.1314
  516POPI   C4A 8166   5.945  16.767   8.064 -0.1879 -0.1662 -0.0033
  516POPI   C1B 8167   5.892  16.992   9.271 -0.1143  0.0167 -0.0100
  516POPI   C2B 8168   5.790  17.133   8.925  0.0230  0.1116 -0.0279
  516POPI   C3B 8169   5.779  17.322   8.509 -0.0115 -0.2003 -0.0454
  516POPI   C4B 8170   6.277  17.305   8.280  0.0576 -0.2815  0.2350
  517POPI    C1 8171   4.272   3.312  10.078 -0.1966  0.0354  0.0328
  517POPI    C2 8172   4.463   3.125  10.376  0.0033  0.1292 -0.0341
  517POPI    C3 8173   4.196   3.412  10.457 -0.1475 -0.0358  0.0617
  517POPI   PO4 8174   4.415   3.242   9.879  0.0661 -0.0856  0.4060
  517POPI   GL1 8175   4.360   3.332   9.463  0.4665 -0.1147  0.0369
  517POPI   GL2 8176   4.599   3.159   9.402 -0.0860 -0.0543 -0.1514
  517POPI   C1A 8177   4.168   3.331   9.103 -0.3146 -0.0480 -0.0180
  517POPI   D2A 8178   4.225   3.160   8.657 -0.0996  0.4022  0.0549
  517POPI   C3A 8179   4.608   3.026   8.425 -0.1013 -0.1505 -0.1976
  517POPI   C4A 8180   4.852   2.967   7.977 -0.4404  0.0827  0.0257
  517POPI   C1B 8181   4.570   2.810   9.018 -0.3148 -0.0329  0.2754
  517POPI   C2B 8182   4.370   2.673   8.655 -0.2080  0.2046 -0.0312
  517POPI   C3B 8183   4.363   2.754   8.152 -0.0992  0.0306 -0.0580
  517POPI   C4B 8184   4.262   2.817   7.741 -0.3232  0.0401  0.1010
  518POPI    C1 8185  17.110   9.504   9.525 -0.4421  0.1009  0.0649
  518POPI    C2 8186  17.154   9.848   9.724 -0.0566  0.1604 -0.1132
  518POPI    C3 8187  17.331   9.516   9.859  0.0932  0.1714 -0.2789
  518POPI   PO4 8188  16.841   9.496   9.493  0.0842 -0.1731  0.0952
  518POPI   GL1 8189  16.517   9.502   9.323  0.4685 -0.3333 -0.2376
  518POPI   GL2 8190  16.612   9.319   9.029 -0.2065  0.1585 -0.1026
  518POPI   C1A 8191  16.106   9.350   9.100 -0.0579  0.0823  0.0907
  518POPI   D2A 8192  15.888   9.398   8.772  0.1375  0.3587 -0.1872
  518POPI   C3A 8193  15.904   9.777   8.841 -0.2525 -0.1826 -0.0252
  518POPI   C4A 8194  15.599   9.966   9.139 -0.1867  0.3316  0.1162
  518POPI   C1B 8195  16.400   9.621   8.734 -0.0533 -0.0071 -0.0571
  518POPI   C2B 8196  16.631   9.804   8.423 -0.0986  0.0127  0.4089
  518POPI   C3B 8197  16.785   9.614   8.004 -0.1539 -0.2103 -0.0216
  518POPI   C4B 8198  16.626   9.307   7.783 -0.1409  0.0543 -0.3655
  519POPI    C1 8199  15.039  16.418  10.285  0.2959 -0.0080  0.0853
  519POPI    C2 8200  15.227  16.363   9.936  0.0708 -0.0731 -0.0273
  519POPI    C3 8201  15.277  16.101  10.234  0.3011  0.0082  0.0074
  519POPI   PO4 8202  14.771  16.366  10.215  0.0808 -0.0110 -0.2766
  519POPI   GL1 8203  14.494  16.374   9.825 -0.1288 -0.3200 -0.1371
  519POPI   GL2 8204  14.403  16.104   9.760 -0.1737  0.3094  0.3061
  519POPI   C1A 8205  14.753  16.541   9.532 -0.2463  0.0357 -0.2120
  519POPI   D2A 8206  14.902  16.444   9.165 -0.6166 -0.1008 -0.2358
  519POPI   C3A 8207  14.654  16.349   8.795  0.0199 -0.2456  0.1698
  519POPI   C4A 8208  14.615  16.492   8.351 -0.2747  0.3892 -0.0660
  519POPI   C1B 8209  14.493  15.980   9.384 -0.0997 -0.2274 -0.1146
  519POPI   C2B 8210  14.380  15.861   8.999 -0.0553  0.2472  0.0717
  519POPI   C3B 8211  14.432  15.536   8.693 -0.3914  0.1431 -0.1412
  519POPI   C4B 8212  14.119  15.150   8.519  0.1605 -0.1721  0.1194
  520POPI    C1 8213   2.498   8.185  10.142 -0.0696  0.0825  0.2474
  520POPI    C2 8214   2.491   8.402  10.478 -0.0486  0.0920  0.2417
  520POPI    C3 8215   2.497   8.003  10.498 -0.0109  0.0930  0.2530
  520POPI   PO4 8216   2.335   8.330   9.930  0.1670 -0.1058  0.1631
  520POPI   GL1 8217   2.275   8.374   9.529  0.2486 -0.1218 -0.1200
  520POPI   GL2 8218   2.622   8.177   9.506  0.0475  0.1121 -0.0919
  520POPI   C1A 8219   2.262   8.595   9.124 -0.0883  0.0776 -0.2722
  520POPI   D2A 8220   2.295   8.596   8.703 -0.2211  0.0656  0.1919
  520POPI   C3A 8221   2.205   8.667   8.234  0.4161  0.0148  0.2742
  520POPI   C4A 8222   1.955   8.671   7.838 -0.1096  0.0095  0.5502
  520POPI   C1B 8223   2.627   8.183   9.092  0.0110 -0.0124 -0.2431
  520POPI   C2B 8224   2.617   8.104   8.629  0.0863  0.0419  0.1167
  520POPI   C3B 8225   2.701   8.099   8.104  0.2525  0.1007  0.0830
  520POPI   C4B 8226   2.983   8.150   7.744  0.0422  0.1195  0.2920
  521POPI    C1 8227   7.928   7.573  10.166  0.0553 -0.3427 -0.0259
  521POPI    C2 8228   7.701   7.867  10.314  0.1648 -0.1375 -0.2575
  521POPI    C3 8229   7.829   7.573  10.553  0.1853  0.0872  0.0126
  521POPI   PO4 8230   7.863   7.603   9.869 -0.1236 -0.0547 -0.0662
  521POPI   GL1 8231   8.141   7.538   9.504  0.1299 -0.2819 -0.2189
  521POPI   GL2 8232   8.253   7.234   9.588 -0.0239 -0.1518 -0.2137
  521POPI   C1A 8233   8.155   7.392   9.095 -0.1152 -0.1564 -0.3837
  521POPI   D2A 8234   8.048   7.354   8.625  0.0323 -0.0640 -0.0830
  521POPI   C3A 8235   7.931   7.437   8.189 -0.0970  0.0865  0.0004
  521POPI   C4A 8236   8.052   7.528   7.761  0.1130  0.2834  0.1577
  521POPI   C1B 8237   8.327   6.984   9.188 -0.0306 -0.1638  0.1258
  521POPI   C2B 8238   8.452   7.087   8.711 -0.2160 -0.0123  0.1962
  521POPI   C3B 8239   8.565   7.232   8.327  0.1887 -0.2876  0.1364
  521POPI   C4B 8240   8.644   7.465   7.925  0.3003 -0.0933 -0.0878
  522POPI    C1 8241  11.271   7.870  10.425 -0.0251  0.2048 -0.0431
  522POPI    C2 8242  11.086   7.682  10.726 -0.0809  0.0480 -0.1741
  522POPI    C3 8243  11.434   7.868  10.790  0.0194 -0.1740 -0.0612
  522POPI   PO4 8244  11.215   7.659  10.234 -0.2111  0.1231  0.0180
  522POPI   GL1 8245  11.332   7.607   9.899  0.0954  0.0214 -0.1210
  522POPI   GL2 8246  11.494   7.451   9.894 -0.2917  0.1900  0.1244
  522POPI   C1A 8247  11.482   7.698   9.495 -0.1744  0.1276 -0.2650
  522POPI   D2A 8248  11.719   7.757   9.083  0.0648 -0.2185  0.2349
  522POPI   C3A 8249  11.698   7.998   8.817 -0.2089  0.1419  0.1605
  522POPI   C4A 8250  11.682   8.258   8.464  0.2895  0.3756  0.3013
  522POPI   C1B 8251  11.396   7.178   9.550  0.4352  0.1027 -0.0664
  522POPI   C2B 8252  11.084   7.149   9.147 -0.3774 -0.0174  0.1004
  522POPI   C3B 8253  10.776   7.108   8.764 -0.1244 -0.0713  0.1854
  522POPI   C4B 8254  10.861   6.989   8.444 -0.3681 -0.2164 -0.0177
  523POPI    C1 8255   0.264  15.797   9.823 -0.1094  0.0984  0.0162
  523POPI    C2 8256   0.139  15.591  10.142 -0.0986 -0.0041 -0.0452
  523POPI    C3 8257   0.249  15.974  10.181 -0.0018 -0.0455  0.0925
  523POPI   PO4 8258   0.363  15.679   9.715  0.2016 -0.1000 -0.0353
  523POPI   GL1 8259   0.296  15.622   9.379  0.0811 -0.0258 -0.2296
  523POPI   GL2 8260   0.196  15.426   9.182  0.1123  0.0425 -0.1384
  523POPI   C1A 8261  -0.021  15.857   9.057 -0.1693  0.0547  0.1387
  523POPI   D2A 8262  -0.549  15.990   9.075 -0.0079 -0.0409 -0.0886
  523POPI   C3A 8263  -0.864  15.819   8.863 -0.1969  0.1238  0.0915
  523POPI   C4A 8264  -1.299  15.936   8.725  0.1662  0.0939  0.0073
  523POPI   C1B 8265   0.253  15.425   8.772  0.0175  0.2146  0.0056
  523POPI   C2B 8266   0.495  15.373   8.267 -0.1676 -0.2402 -0.1951
  523POPI   C3B 8267   0.511  15.240   7.917 -0.1722 -0.0670 -0.1040
  523POPI   C4B 8268   0.146  15.255   7.629 -0.2121 -0.0159  0.1381
  524DPPI    C1 8269  15.268   6.917   9.995  0.0561  0.0421 -0.0042
  524DPPI    C2 8270  15.216   7.307  10.065 -0.0011  0.0142  0.1102
  524DPPI    C3 8271  15.419   7.082  10.326 -0.0178 -0.0442  0.0731
  524DPPI   PO4 8272  15.347   6.927   9.738  0.0414  0.1832  0.1455
  524DPPI   GL1 8273  15.227   6.878   9.284 -0.0001  0.0185  0.1207
  524DPPI   GL2 8274  15.078   6.575   9.298  0.1540 -0.0343  0.0751
  524DPPI   C1A 8275  15.150   6.864   8.764 -0.0793 -0.0874 -0.0549
  524DPPI   C2A 8276  15.033   6.858   8.304  0.2223  0.0556  0.2452
  524DPPI   C3A 8277  14.978   7.027   7.924  0.0389  0.1323  0.2993
  524DPPI   C4A 8278  14.913   6.792   7.570 -0.0949 -0.1331  0.3385
  524DPPI   C1B 8279  14.692   6.750   9.027 -0.4034  0.2680 -0.3084
  524DPPI   C2B 8280  14.480   6.747   8.664 -0.0213 -0.0049  0.2850
  524DPPI   C3B 8281  14.198   6.992   8.571 -0.0350 -0.2522  0.2276
  524DPPI   C4B 8282  13.940   7.116   8.337  0.1026  0.1935  0.0467
  525DPPI    C1 8283   8.732   8.217  10.161  0.0559 -0.1857  0.0614
  525DPPI    C2 8284   8.539   8.294  10.503  0.1235 -0.1485  0.0912
  525DPPI    C3 8285   8.871   8.071  10.506  0.0399 -0.2750  0.0304
  525DPPI   PO4 8286   8.595   8.054  10.020 -0.0952 -0.1712  0.2407
  525DPPI   GL1 8287   8.639   7.995   9.531  0.0216  0.0150  0.3276
  525DPPI   GL2 8288   8.338   7.995   9.537  0.3357 -0.2528 -0.0208
  525DPPI   C1A 8289   8.585   7.595   9.262  0.3070 -0.2467 -0.0762
  525DPPI   C2A 8290   8.685   7.517   8.907  0.0872  0.1149 -0.0572
  525DPPI   C3A 8291   8.405   7.636   8.667  0.0298  0.0238 -0.0359
  525DPPI   C4A 8292   8.358   7.684   8.236  0.0667 -0.0797  0.2368
  525DPPI   C1B 8293   8.179   7.910   9.071 -0.1731  0.1066  0.3157
  525DPPI   C2B 8294   8.407   8.147   8.730  0.0925  0.0577 -0.0684
  525DPPI   C3B 8295   8.495   8.191   8.297  0.0171 -0.1521  0.1475
  525DPPI   C4B 8296   8.737   8.527   8.123  0.2159  0.0043  0.0844
  526DPPI    C1 8297   0.051  15.062  10.272 -0.2030 -0.0767 -0.4364
  526DPPI    C2 8298  -0.306  14.912  10.372 -0.1298  0.1984  0.3007
  526DPPI    C3 8299   0.022  14.794  10.567  0.1340  0.2357 -0.1084
  526DPPI   PO4 8300  -0.007  15.128   9.866  0.0527  0.1344  0.0815
  526DPPI   GL1 8301  -0.016  14.992   9.428  0.3563  0.0313 -0.1246
  526DPPI   GL2 8302   0.229  14.997   9.469  0.1458 -0.2050 -0.4218
  526DPPI   C1A 8303  -0.245  14.946   9.070 -0.0632  0.4671  0.2794
  526DPPI   C2A 8304  -0.198  15.113   8.665  0.0952  0.0765 -0.1518
  526DPPI   C3A 8305  -0.120  15.410   8.298 -0.4856  0.1820 -0.3468
  526DPPI   C4A 8306   0.104  15.648   7.962 -0.3234  0.2252 -0.0869
  526DPPI   C1B 8307   0.268  14.976   9.015  0.3234  0.0694  0.0028
  526DPPI   C2B 8308   0.378  14.989   8.653  0.0037 -0.1761  0.1687
  526DPPI   C3B 8309   0.515  14.867   8.243 -0.0033 -0.0672 -0.1204
  526DPPI   C4B 8310   0.588  14.651   7.767 -0.2516  0.2964  0.2444
  527DPPI    C1 8311   2.819  15.598  10.210 -0.1365 -0.3123 -0.1157
  527DPPI    C2 8312   2.991  15.241  10.264 -0.1081 -0.2812  0.0003
  527DPPI    C3 8313   2.761  15.398  10.551  0.1391 -0.0616  0.0829
  527DPPI   PO4 8314   2.815  15.611   9.953  0.2419 -0.2591 -0.3375
  527DPPI   GL1 8315   2.812  15.617   9.497  0.0172  0.0477 -0.2203
  527DPPI   GL2 8316   2.668  15.375   9.497  0.0197 -0.1168 -0.0476
  527DPPI   C1A 8317   2.825  15.739   9.067 -0.0320  0.2980 -0.0140
  527DPPI   C2A 8318   2.829  15.825   8.562  0.2427  0.2171  0.1155
  527DPPI   C3A 8319   2.678  15.693   8.175 -0.0718  0.0687 -0.1581
  527DPPI   C4A 8320   2.266  15.464   8.036  0.1438  0.0334 -0.0421
  527DPPI   C1B 8321   2.597  15.229   9.109  0.2443  0.1282 -0.2123
  527DPPI   C2B 8322   2.734  14.956   8.722 -0.3700  0.2215  0.1065
  527DPPI   C3B 8323   2.560  14.604   8.502  0.0761  0.2795  0.0164
  527DPPI   C4B 8324   2.595  14.168   8.622  0.0342  0.0449 -0.0209
  528DPPI    C1 8325   5.985   8.343  10.156  0.1732  0.0203 -0.0610
  528DPPI    C2 8326   6.193   8.135  10.428  0.0115  0.1714  0.1825
  528DPPI    C3 8327   6.230   8.049  10.039  0.2560 -0.0387  0.2495
  528DPPI   PO4 8328   5.986   8.532  10.165 -0.0332 -0.3108 -0.0882
  528DPPI   GL1 8329   5.803   8.885   9.846  0.1724  0.2927  0.3297
  528DPPI   GL2 8330   6.031   8.722   9.614  0.1550  0.4713  0.0431
  528DPPI   C1A 8331   5.884   9.173   9.412  0.3210  0.0218  0.1188
  528DPPI   C2A 8332   5.764   9.559   9.140  0.1992 -0.2962  0.0790
  528DPPI   C3A 8333   5.765   9.650   8.696 -0.2827 -0.2932 -0.4735
  528DPPI   C4A 8334   5.488   9.827   8.549 -0.1637 -0.2352 -0.1262
  528DPPI   C1B 8335   5.836   8.717   9.237  0.2662 -0.0654 -0.0598
  528DPPI   C2B 8336   5.910   8.650   8.857  0.0353  0.1644 -0.1169
  528DPPI   C3B 8337   5.940   8.250   8.589 -0.0707  0.2018  0.0794
  528DPPI   C4B 8338   5.651   7.997   8.261 -0.2842 -0.3695  0.0371
  529DPPI    C1 8339  14.040   0.693  10.450  0.0753 -0.1629 -0.0596
  529DPPI    C2 8340  14.024   0.702  10.850  0.2623  0.1966 -0.0558
  529DPPI    C3 8341  14.375   0.650  10.664  0.1833  0.0819 -0.1750
  529DPPI   PO4 8342  13.755   0.735  10.356  0.0914 -0.0169  0.2580
  529DPPI   GL1 8343  13.661   0.729   9.953 -0.0155  0.1341 -0.0482
  529DPPI   GL2 8344  13.722   0.383   9.848 -0.0754 -0.3584  0.0142
  529DPPI   C1A 8345  13.495   0.827   9.523 -0.0539 -0.2228 -0.0769
  529DPPI   C2A 8346  13.347   1.015   9.181  0.0146 -0.1192 -0.0894
  529DPPI   C3A 8347  13.253   0.962   8.724  0.1292 -0.2236  0.3451
  529DPPI   C4A 8348  12.998   0.767   8.430  0.0278  0.2215 -0.0484
  529DPPI   C1B 8349  13.533   0.125   9.626  0.0709 -0.0317  0.1788
  529DPPI   C2B 8350  13.309  -0.109   9.310 -0.0827 -0.1131 -0.0501
  529DPPI   C3B 8351  13.236  -0.207   8.914  0.0335 -0.0493  0.1492
  529DPPI   C4B 8352  13.024  -0.477   8.648 -0.0537  0.1941  0.0629
  530DPPI    C1 8353  10.232   7.939  10.669  0.2156 -0.0677 -0.1296
  530DPPI    C2 8354  10.618   8.028  10.726  0.1395  0.1510  0.0560
  530DPPI    C3 8355  10.337   8.307  10.782 -0.0335  0.0445 -0.2552
  530DPPI   PO4 8356  10.240   7.871  10.387  0.3969  0.2743 -0.2524
  530DPPI   GL1 8357  10.383   7.889   9.921  0.1053 -0.0585  0.0168
  530DPPI   GL2 8358  10.347   7.574   9.776 -0.0745  0.1535  0.1613
  530DPPI   C1A 8359  10.114   8.146   9.575 -0.2669  0.0525  0.2518
  530DPPI   C2A 8360   9.901   8.196   9.121 -0.2725 -0.0350  0.1301
  530DPPI   C3A 8361   9.804   8.436   8.770 -0.0117 -0.2795  0.1443
  530DPPI   C4A 8362   9.813   8.862   8.695 -0.0720  0.0896 -0.0731
  530DPPI   C1B 8363  10.241   7.736   9.329 -0.0032  0.0864 -0.2079
  530DPPI   C2B 8364  10.027   7.672   8.893 -0.2262 -0.1563 -0.0381
  530DPPI   C3B 8365  10.034   7.721   8.478 -0.0083 -0.0245 -0.2007
  530DPPI   C4B 8366  10.075   7.898   7.996 -0.0032 -0.1755 -0.3609
  531DPPI    C1 8367  11.838  12.122  10.540  0.1330  0.1417  0.0746
  531DPPI    C2 8368  12.196  12.280  10.458  0.2755 -0.1056  0.2078
  531DPPI    C3 8369  12.002  12.387  10.791  0.1882  0.0874  0.0962
  531DPPI   PO4 8370  11.637  12.237  10.296  0.1144  0.3511 -0.4281
  531DPPI   GL1 8371  11.293  12.279  10.007  0.1455  0.2542 -0.2471
  531DPPI   GL2 8372  11.149  12.467  10.225 -0.0437  0.0493  0.2758
  531DPPI   C1A 8373  11.334  12.281   9.517 -0.2255 -0.2949 -0.1919
  531DPPI   C2A 8374  11.288  12.281   9.057 -0.0077 -0.2810  0.1800
  531DPPI   C3A 8375  11.502  12.139   8.689  0.0606 -0.2464 -0.1667
  531DPPI   C4A 8376  11.766  11.959   8.270 -0.0729 -0.2139 -0.0168
  531DPPI   C1B 8377  11.150  12.653   9.804  0.1344 -0.2334  0.1508
  531DPPI   C2B 8378  11.107  12.745   9.463  0.2070  0.0819  0.1899
  531DPPI   C3B 8379  10.933  12.686   9.128  0.3115  0.0607  0.2740
  531DPPI   C4B 8380  10.932  12.753   8.767  0.0672  0.3645 -0.0052
  532DPPI    C1 8381   7.447   1.349  10.449  0.1651  0.0679 -0.0882
  532DPPI    C2 8382   7.544   1.082  10.731  0.0592 -0.0748 -0.1859
  532DPPI    C3 8383   7.666   1.461  10.764  0.2890 -0.1555 -0.0926
  532DPPI   PO4 8384   7.536   1.280  10.105 -0.0683  0.0282  0.2069
  532DPPI   GL1 8385   7.620   1.559   9.669 -0.0590  0.0306 -0.2666
  532DPPI   GL2 8386   7.393   1.378   9.626  0.0797 -0.0931 -0.2092
  532DPPI   C1A 8387   7.720   1.704   9.341 -0.4236  0.1090 -0.1360
  532DPPI   C2A 8388   7.856   1.721   8.913  0.1070  0.2709 -0.0639
  532DPPI   C3A 8389   7.997   1.725   8.519 -0.1282  0.1591 -0.1261
  532DPPI   C4A 8390   7.925   1.603   8.040 -0.0743 -0.3082  0.0074
  532DPPI   C1B 8391   7.491   1.235   9.196 -0.1446  0.0506 -0.3084
  532DPPI   C2B 8392   7.553   1.361   8.814 -0.1202  0.1110 -0.0221
  532DPPI   C3B 8393   7.705   1.302   8.382  0.0385  0.1424  0.0280
  532DPPI   C4B 8394   8.067   1.233   8.339  0.0440  0.3563  0.0129
  533DPPI    C1 8395  18.331   0.438  10.295  0.0980 -0.0107 -0.0844
  533DPPI    C2 8396  18.437   0.798  10.434  0.0640 -0.1390  0.2849
  533DPPI    C3 8397  18.715   0.517  10.375  0.0991 -0.0369 -0.0637
  533DPPI   PO4 8398  18.217   0.397  10.078  0.1228 -0.2165 -0.0075
  533DPPI   GL1 8399  18.123   0.440   9.692 -0.0505  0.1661 -0.0306
  533DPPI   GL2 8400  17.902   0.231   9.560  0.2592  0.2077  0.2607
  533DPPI   C1A 8401  18.387   0.336   9.426 -0.1648  0.0963 -0.0457
  533DPPI   C2A 8402  18.287   0.252   9.057 -0.3816  0.0320 -0.0266
  533DPPI   C3A 8403  18.226   0.365   8.646  0.0791 -0.1454  0.4787
  533DPPI   C4A 8404  18.014   0.169   8.323  0.1269 -0.0102  0.1466
  533DPPI   C1B 8405  17.914   0.510   9.230  0.1776  0.1028  0.1389
  533DPPI   C2B 8406  17.888   0.769   8.818 -0.1117  0.3624 -0.1002
  533DPPI   C3B 8407  18.061   0.883   8.475  0.0337 -0.0846  0.0626
  533DPPI   C4B 8408  18.380   0.779   8.152  0.2393 -0.3091  0.3769
  534DPPI    C1 8409  12.500  16.700  10.976  0.0477 -0.1201  0.2265
  534DPPI    C2 8410  12.489  17.071  11.125 -0.1868 -0.0207 -0.0272
  534DPPI    C3 8411  12.389  16.760  11.355 -0.2172  0.0960  0.1190
  534DPPI   PO4 8412  12.572  16.764  10.738  0.2277  0.2309 -0.0747
  534DPPI   GL1 8413  12.395  16.631  10.337  0.2729 -0.5035 -0.2283
  534DPPI   GL2 8414  12.475  16.854  10.082  0.1001  0.0515 -0.1694
  534DPPI   C1A 8415  12.236  16.432  10.001  0.0135 -0.3487  0.0985
  534DPPI   C2A 8416  12.059  16.306   9.557 -0.0749 -0.3425 -0.0439
  534DPPI   C3A 8417  12.132  16.324   9.158  0.1686  0.2365 -0.0465
  534DPPI   C4A 8418  12.575  16.353   9.021  0.0816  0.2919  0.1736
  534DPPI   C1B 8419  12.368  17.012   9.720 -0.0588 -0.0640 -0.0698
  534DPPI   C2B 8420  12.075  17.122   9.522 -0.0401  0.2076  0.0460
  534DPPI   C3B 8421  12.139  17.152   9.036 -0.1668 -0.0693  0.4100
  534DPPI   C4B 8422  11.826  17.111   8.805 -0.0518 -0.1758  0.4618
  535DPPI    C1 8423  16.281  14.040   9.914  0.0775  0.0123 -0.2569
  535DPPI    C2 8424  16.368  14.420  10.002  0.0970 -0.0109 -0.1758
  535DPPI    C3 8425  16.302  14.156  10.296  0.0918 -0.0721 -0.2317
  535DPPI   PO4 8426  16.472  14.056   9.581  0.0800  0.3983 -0.0168
  535DPPI   GL1 8427  16.516  14.005   9.114 -0.0332 -0.0771 -0.1029
  535DPPI   GL2 8428  16.657  13.652   9.176  0.1044  0.0736  0.1217
  535DPPI   C1A 8429  16.323  14.178   8.689 -0.3220 -0.1520  0.1360
  535DPPI   C2A 8430  16.313  14.451   8.422 -0.0110  0.0310 -0.1643
  535DPPI   C3A 8431  16.059  14.494   7.986  0.0292  0.1279 -0.0138
  535DPPI   C4A 8432  15.977  14.482   7.555 -0.0552 -0.0533  0.1182
  535DPPI   C1B 8433  16.531  13.698   8.688  0.1398  0.1857  0.1259
  535DPPI   C2B 8434  16.622  13.597   8.190  0.2471  0.1503  0.1575
  535DPPI   C3B 8435  16.443  13.824   7.838 -0.3562 -0.0527  0.1674
  535DPPI   C4B 8436  16.299  13.739   7.410  0.1011 -0.3627 -0.1024
  536DPPI    C1 8437  12.638   3.326  10.633 -0.2181 -0.0856 -0.0017
  536DPPI    C2 8438  12.680   3.676  10.821 -0.0525 -0.0550 -0.0942
  536DPPI    C3 8439  12.767   3.336  11.012 -0.0725 -0.0367 -0.0523
  536DPPI   PO4 8440  12.338   3.382  10.547  0.2669  0.1291 -0.0604
  536DPPI   GL1 8441  12.111   3.496  10.143 -0.5945 -0.0490  0.0031
  536DPPI   GL2 8442  11.798   3.326  10.011 -0.0135 -0.0464  0.2853
  536DPPI   C1A 8443  12.448   3.163   9.972  0.0738 -0.1747 -0.1407
  536DPPI   C2A 8444  12.505   2.849   9.589 -0.2636  0.0060  0.0455
  536DPPI   C3A 8445  12.520   2.880   9.139  0.1335  0.0216 -0.4883
  536DPPI   C4A 8446  12.960   2.931   8.924  0.0052 -0.1288 -0.0347
  536DPPI   C1B 8447  12.059   3.174   9.661  0.0856  0.3602 -0.1736
  536DPPI   C2B 8448  11.993   2.900   9.303  0.2971  0.2685  0.1378
  536DPPI   C3B 8449  12.090   2.765   8.941 -0.0720  0.1471 -0.0028
  536DPPI   C4B 8450  12.172   2.742   8.398  0.0179 -0.0851  0.1921
  537DPPI    C1 8451  16.918  10.745   9.950 -0.1943 -0.0543  0.2711
  537DPPI    C2 8452  17.054  10.372   9.998 -0.1811 -0.0380  0.3625
  537DPPI    C3 8453  16.979  10.600  10.318  0.0209  0.1143  0.3036
  537DPPI   PO4 8454  17.126  10.818   9.782  0.0013  0.2339  0.0401
  537DPPI   GL1 8455  17.105  10.751   9.420 -0.5529 -0.4046  0.2750
  537DPPI   GL2 8456  16.795  10.924   9.403 -0.0397  0.4423  0.2258
  537DPPI   C1A 8457  17.159  10.751   9.048  0.0235 -0.1799  0.1756
  537DPPI   C2A 8458  17.067  10.673   8.627 -0.1633  0.1687 -0.1867
  537DPPI   C3A 8459  16.869  10.773   8.279 -0.2203 -0.1359 -0.0165
  537DPPI   C4A 8460  16.735  10.884   7.917 -0.2318 -0.0728 -0.0948
  537DPPI   C1B 8461  16.680  10.890   8.921 -0.1954  0.1672  0.0561
  537DPPI   C2B 8462  16.472  10.616   8.629  0.2361 -0.1794 -0.1379
  537DPPI   C3B 8463  16.099  10.627   8.405 -0.0549  0.2305 -0.1149
  537DPPI   C4B 8464  15.680  10.635   8.329 -0.1908 -0.0640 -0.2335
  538DPPI    C1 8465   7.950  11.581   9.887 -0.0284 -0.0279  0.1301
  538DPPI    C2 8466   7.992  11.629  10.282  0.0092  0.3640  0.0824
  538DPPI    C3 8467   7.769  11.886  10.072 -0.2772 -0.0282 -0.1060
  538DPPI   PO4 8468   8.168  11.235   9.897  0.0427 -0.0179 -0.1511
  538DPPI   GL1 8469   8.322  10.879   9.747 -0.0647 -0.0488 -0.2391
  538DPPI   GL2 8470   8.631  11.010   9.814  0.2551  0.3701 -0.0137
  538DPPI   C1A 8471   8.206  11.001   9.286 -0.1074  0.1152 -0.2618
  538DPPI   C2A 8472   8.153  10.949   8.880 -0.0821 -0.1022  0.1267
  538DPPI   C3A 8473   7.890  11.021   8.534  0.0668 -0.3707 -0.1433
  538DPPI   C4A 8474   7.584  11.048   8.361 -0.0103 -0.2581  0.3088
  538DPPI   C1B 8475   8.734  11.067   9.415  0.0495 -0.2159 -0.3866
  538DPPI   C2B 8476   8.802  11.058   9.012 -0.1653 -0.0190 -0.2735
  538DPPI   C3B 8477   8.665  10.997   8.570  0.0437 -0.1023  0.1564
  538DPPI   C4B 8478   8.316  11.147   8.274  0.1179 -0.0940 -0.0821
  539DPPI    C1 8479   7.420   4.385  10.130  0.1049  0.1083  0.0402
  539DPPI    C2 8480   7.489   4.675  10.397 -0.1518  0.1165  0.1008
  539DPPI    C3 8481   7.277   4.753  10.067  0.0087  0.0614 -0.0174
  539DPPI   PO4 8482   7.596   4.250  10.065  0.2707 -0.1785  0.3333
  539DPPI   GL1 8483   7.601   4.247   9.626  0.0119 -0.2636 -0.0173
  539DPPI   GL2 8484   7.378   4.189   9.571 -0.3301  0.0418  0.2162
  539DPPI   C1A 8485   7.433   4.559   9.272 -0.0725  0.2110 -0.2408
  539DPPI   C2A 8486   7.167   4.429   8.941 -0.1371  0.0397  0.0841
  539DPPI   C3A 8487   6.778   4.200   8.899  0.0223 -0.0485 -0.0129
  539DPPI   C4A 8488   6.372   4.289   8.863 -0.0627  0.0217 -0.1182
  539DPPI   C1B 8489   7.366   4.010   9.173  0.1551  0.1554 -0.0143
  539DPPI   C2B 8490   7.393   3.975   8.806 -0.1274 -0.1962 -0.1281
  539DPPI   C3B 8491   7.635   4.009   8.472  0.1795 -0.0338 -0.1231
  539DPPI   C4B 8492   7.688   3.969   8.024  0.0051 -0.2141 -0.3505
  540DPPI    C1 8493  10.707  13.916  10.585  0.1561 -0.0474  0.1067
  540DPPI    C2 8494  10.563  13.717  10.270 -0.1413  0.0120  0.2018
  540DPPI    C3 8495  10.756  13.520  10.559  0.0098 -0.0625  0.0520
  540DPPI   PO4 8496  10.857  14.142  10.517  0.0795 -0.1558 -0.1652
  540DPPI   GL1 8497  10.864  14.194  10.188  0.2172 -0.1821 -0.2562
  540DPPI   GL2 8498  10.956  14.454   9.930  0.0706  0.2182  0.0955
  540DPPI   C1A 8499  10.896  13.746   9.866  0.0161 -0.0072  0.0931
  540DPPI   C2A 8500  10.949  13.717   9.459 -0.0776 -0.3191 -0.0375
  540DPPI   C3A 8501  10.850  13.639   9.069  0.1878  0.0528  0.0436
  540DPPI   C4A 8502  11.020  13.716   8.686  0.0712 -0.0934  0.1766
  540DPPI   C1B 8503  10.897  14.227   9.605  0.1082  0.2470 -0.0075
  540DPPI   C2B 8504  10.907  14.174   9.154  0.0254 -0.2704 -0.0430
  540DPPI   C3B 8505  11.059  14.206   8.707 -0.4731 -0.0392  0.2965
  540DPPI   C4B 8506  11.047  14.129   8.199 -0.2020 -0.2150 -0.3756
  541DPPI    C1 8507  14.457  12.060  10.149 -0.4361 -0.0099  0.3297
  541DPPI    C2 8508  14.397  12.441  10.043  0.1263 -0.0931 -0.3594
  541DPPI    C3 8509  14.564  12.356  10.396  0.0420  0.2960 -0.2211
  541DPPI   PO4 8510  14.437  11.948   9.932  0.1100 -0.3975 -0.0832
  541DPPI   GL1 8511  14.399  12.075   9.512  0.2532  0.0077 -0.0958
  541DPPI   GL2 8512  14.721  12.105   9.552  0.0825 -0.0738  0.1067
  541DPPI   C1A 8513  14.199  12.166   9.103  0.0713  0.2408  0.0073
  541DPPI   C2A 8514  14.332  12.562   8.880 -0.0953 -0.0255  0.0947
  541DPPI   C3A 8515  14.299  12.854   8.621 -0.2663 -0.1474  0.0695
  541DPPI   C4A 8516  14.214  12.785   8.171  0.1015  0.0151 -0.0551
  541DPPI   C1B 8517  14.694  12.260   9.086  0.1572  0.3229  0.0071
  541DPPI   C2B 8518  14.531  12.111   8.714 -0.0370  0.0752 -0.2705
  541DPPI   C3B 8519  14.352  12.295   8.344  0.1270  0.1810  0.1074
  541DPPI   C4B 8520  14.263  11.955   7.986 -0.2815  0.0348 -0.4478
  542DPPI    C1 8521  12.443  14.631  10.645 -0.0432  0.1958  0.0625
  542DPPI    C2 8522  12.086  14.609  10.823 -0.1028  0.0797 -0.0690
  542DPPI    C3 8523  12.421  14.568  11.039 -0.1768 -0.2162 -0.0071
  542DPPI   PO4 8524  12.457  14.422  10.460 -0.1250 -0.0315 -0.0912
  542DPPI   GL1 8525  12.631  14.429  10.129 -0.2433  0.0624  0.2457
  542DPPI   GL2 8526  12.358  14.112  10.036  0.3135 -0.2921  0.1545
  542DPPI   C1A 8527  12.932  14.457   9.810 -0.2750  0.0702 -0.2557
  542DPPI   C2A 8528  12.996  14.468   9.425 -0.2908  0.0557  0.1093
  542DPPI   C3A 8529  12.769  14.400   8.950  0.1557  0.0138  0.0191
  542DPPI   C4A 8530  12.702  14.385   8.473  0.0104  0.1575  0.0054
  542DPPI   C1B 8531  12.278  13.984   9.597  0.2137  0.1296 -0.0819
  542DPPI   C2B 8532  11.914  13.715   9.478 -0.0478  0.2023 -0.1842
  542DPPI   C3B 8533  11.783  13.438   9.141 -0.0024  0.1624  0.0779
  542DPPI   C4B 8534  11.674  13.466   8.783 -0.0476  0.0457  0.0295
  543DPPI    C1 8535   6.048  15.555  10.056 -0.0764  0.0163 -0.0167
  543DPPI    C2 8536   6.316  15.257  10.058  0.0406  0.1211  0.1495
  543DPPI    C3 8537   5.929  15.177   9.998  0.0812 -0.0554  0.1170
  543DPPI   PO4 8538   6.105  15.702   9.800  0.1067 -0.0402 -0.0367
  543DPPI   GL1 8539   5.976  15.720   9.420  0.1684  0.1337 -0.2644
  543DPPI   GL2 8540   5.784  15.981   9.378 -0.3107  0.1653 -0.1297
  543DPPI   C1A 8541   6.137  15.405   9.083 -0.4190 -0.0812  0.0774
  543DPPI   C2A 8542   6.076  15.055   8.848  0.1361  0.2090 -0.0887
  543DPPI   C3A 8543   6.013  14.989   8.423 -0.0230  0.0227 -0.1982
  543DPPI   C4A 8544   5.979  15.061   8.002 -0.0206  0.3865 -0.1265
  543DPPI   C1B 8545   5.787  16.063   8.928 -0.1166  0.0499  0.1435
  543DPPI   C2B 8546   5.843  15.806   8.509  0.2171  0.1821  0.2774
  543DPPI   C3B 8547   5.908  15.950   8.074 -0.0475 -0.1843  0.3272
  543DPPI   C4B 8548   5.968  15.964   7.659  0.0667 -0.0228  0.0727
  544DPPI    C1 8549  10.047  18.019  10.523 -0.0450  0.2110 -0.0838
  544DPPI    C2 8550   9.720  17.842  10.671  0.0549 -0.0833 -0.2095
  544DPPI    C3 8551   9.733  18.240  10.636 -0.0845 -0.0284  0.2911
  544DPPI   PO4 8552  10.085  17.935  10.233 -0.1289 -0.2979  0.0557
  544DPPI   GL1 8553   9.956  17.877   9.937  0.1066  0.2049 -0.0729
  544DPPI   GL2 8554   9.691  17.755   9.792 -0.0726 -0.2500  0.3051
  544DPPI   C1A 8555  10.052  17.932   9.520  0.4649  0.1032  0.1089
  544DPPI   C2A 8556  10.077  17.978   9.076 -0.1158 -0.2038  0.4068
  544DPPI   C3A 8557  10.034  17.956   8.614  0.2280  0.1847 -0.0732
  544DPPI   C4A 8558  10.257  17.788   8.385 -0.3325 -0.2249 -0.1539
  544DPPI   C1B 8559   9.615  18.221   9.702  0.0550 -0.2235 -0.3586
  544DPPI   C2B 8560   9.379  18.476   9.597  0.2158 -0.0670  0.0228
  544DPPI   C3B 8561   9.428  18.583   9.214  0.3488  0.0895 -0.1494
  544DPPI   C4B 8562   9.369  18.650   8.801 -0.1447  0.0416 -0.1121
  545DPPI    C1 8563   5.254  12.521   9.968 -0.2944 -0.2732  0.0444
  545DPPI    C2 8564   5.222  12.688  10.330 -0.0928 -0.0625 -0.0332
  545DPPI    C3 8565   5.473  12.381  10.272 -0.1881 -0.1517  0.0243
  545DPPI   PO4 8566   5.171  12.708   9.837 -0.0741 -0.0329 -0.0399
  545DPPI   GL1 8567   5.478  12.896   9.572  0.1809 -0.2967  0.5198
  545DPPI   GL2 8568   5.788  12.968   9.641  0.0569 -0.1730  0.1035
  545DPPI   C1A 8569   5.570  12.862   9.140  0.0192 -0.2462 -0.0576
  545DPPI   C2A 8570   5.626  12.899   8.713 -0.0436 -0.2251 -0.0243
  545DPPI   C3A 8571   5.665  12.876   8.275  0.2034 -0.0481 -0.3058
  545DPPI   C4A 8572   5.825  12.949   7.923  0.1114 -0.3350  0.0672
  545DPPI   C1B 8573   6.059  12.839   9.391  0.1177 -0.0348 -0.2568
  545DPPI   C2B 8574   6.274  12.897   9.048  0.0300 -0.1220 -0.0082
  545DPPI   C3B 8575   6.323  13.036   8.671  0.1745 -0.3896  0.0218
  545DPPI   C4B 8576   6.350  13.193   8.216  0.0986  0.0272 -0.0146
  546DPPI    C1 8577  13.475   7.530  10.438 -0.0425 -0.3182 -0.1266
  546DPPI    C2 8578  13.554   7.560  10.829  0.0525  0.0100 -0.1677
  546DPPI    C3 8579  13.316   7.828  10.652 -0.0801 -0.2016 -0.3149
  546DPPI   PO4 8580  13.711   7.490  10.352 -0.0436  0.1340  0.1605
  546DPPI   GL1 8581  13.856   7.489   9.949 -0.2208  0.0623  0.1855
  546DPPI   GL2 8582  13.759   7.822   9.967 -0.0643  0.0169 -0.1591
  546DPPI   C1A 8583  13.764   7.448   9.482 -0.0353 -0.0627 -0.1524
  546DPPI   C2A 8584  13.577   7.492   9.032 -0.5232 -0.1352 -0.0005
  546DPPI   C3A 8585  13.709   7.651   8.680  0.1564  0.2260 -0.0205
  546DPPI   C4A 8586  14.123   7.606   8.526 -0.0775  0.2318 -0.1272
  546DPPI   C1B 8587  13.484   7.956   9.659 -0.0680 -0.2330  0.0982
  546DPPI   C2B 8588  13.486   8.129   9.237  0.0057  0.1091  0.3403
  546DPPI   C3B 8589  13.571   8.388   8.822 -0.0576 -0.1897 -0.0397
  546DPPI   C4B 8590  13.545   8.418   8.415  0.2749  0.1559 -0.2928
  547DPPI    C1 8591  13.292   9.561  10.546 -0.1035 -0.0051  0.1410
  547DPPI    C2 8592  13.312   9.162  10.527 -0.1499  0.0053 -0.1794
  547DPPI    C3 8593  13.557   9.363  10.772 -0.1100 -0.2167 -0.0339
  547DPPI   PO4 8594  13.213   9.616  10.246  0.0131 -0.1636  0.3952
  547DPPI   GL1 8595  13.338   9.820   9.833  0.0041 -0.1274  0.1738
  547DPPI   GL2 8596  13.556   9.749   9.627 -0.1807 -0.0666 -0.1600
  547DPPI   C1A 8597  13.120   9.802   9.462 -0.1944  0.0795  0.2154
  547DPPI   C2A 8598  13.068   9.767   8.991  0.0192  0.2107 -0.0534
  547DPPI   C3A 8599  12.965  10.012   8.605 -0.0161  0.2420 -0.2220
  547DPPI   C4A 8600  12.920  10.414   8.359 -0.1155 -0.2379 -0.1133
  547DPPI   C1B 8601  13.707   9.687   9.259 -0.1811  0.1660 -0.2024
  547DPPI   C2B 8602  13.587   9.623   8.758  0.0415 -0.1176  0.1607
  547DPPI   C3B 8603  13.483   9.715   8.379  0.2461  0.1057 -0.3453
  547DPPI   C4B 8604  13.629   9.912   7.929  0.3639 -0.1119  0.1061
  548DPPI    C1 8605  16.678  11.264  10.026  0.4783  0.1268 -0.1310
  548DPPI    C2 8606  16.903  11.109  10.319  0.2170 -0.0043  0.0044
  548DPPI    C3 8607  16.533  10.971  10.256  0.0996  0.3402 -0.0892
  548DPPI   PO4 8608  16.852  11.247   9.827  0.0804 -0.1586 -0.0137
  548DPPI   GL1 8609  16.864  11.492   9.443 -0.0427  0.1831 -0.1253
  548DPPI   GL2 8610  17.060  11.284   9.310 -0.1475 -0.0719 -0.0408
  548DPPI   C1A 8611  16.998  11.730   9.058 -0.0570  0.2120  0.1165
  548DPPI   C2A 8612  16.930  11.644   8.608 -0.0028  0.3099 -0.1037
  548DPPI   C3A 8613  16.841  11.795   8.171 -0.0280 -0.4217  0.1469
  548DPPI   C4A 8614  16.922  11.908   7.777 -0.1372  0.2638  0.0075
  548DPPI   C1B 8615  17.031  11.205   8.934 -0.1130 -0.2015 -0.0436
  548DPPI   C2B 8616  17.004  11.154   8.546 -0.0019  0.0598 -0.0949
  548DPPI   C3B 8617  16.939  11.330   8.190  0.2039  0.1560 -0.1065
  548DPPI   C4B 8618  16.881  11.391   7.829 -0.0429 -0.0527 -0.0770
  549DPPI    C1 8619  14.315  13.406  10.212 -0.0117  0.1722 -0.1376
  549DPPI    C2 8620  13.988  13.256  10.386 -0.0397  0.2279 -0.1420
  549DPPI    C3 8621  14.300  13.368  10.610 -0.0115  0.1455 -0.1401
  549DPPI   PO4 8622  14.229  13.567   9.993 -0.1098  0.1529  0.0558
  549DPPI   GL1 8623  14.019  13.426   9.722 -0.1407  0.0408 -0.2427
  549DPPI   GL2 8624  13.909  13.229   9.876  0.0972 -0.1446 -0.0061
  549DPPI   C1A 8625  13.939  13.572   9.414  0.1737  0.1533  0.0218
  549DPPI   C2A 8626  13.679  13.858   9.096  0.0814 -0.0398  0.1715
  549DPPI   C3A 8627  13.505  13.948   8.671  0.0579  0.0484  0.0201
  549DPPI   C4A 8628  13.657  13.952   8.230 -0.0266 -0.0470  0.0211
  549DPPI   C1B 8629  13.836  12.893   9.654  0.1639 -0.2998 -0.0349
  549DPPI   C2B 8630  13.510  12.692   9.447  0.0128  0.0957  0.0698
  549DPPI   C3B 8631  13.413  12.778   8.913  0.2193  0.0251  0.0662
  549DPPI   C4B 8632  13.444  12.966   8.543 -0.0581 -0.1072 -0.0473
  550DPPI    C1 8633  18.454   5.993   9.248 -0.0377  0.0894 -0.0635
  550DPPI    C2 8634  18.425   6.342   9.441  0.0119 -0.0292  0.1622
  550DPPI    C3 8635  18.363   6.000   9.637  0.0255 -0.1511 -0.0430
  550DPPI   PO4 8636  18.642   6.057   9.109  0.0524 -0.0499  0.0668
  550DPPI   GL1 8637  18.687   6.207   8.670  0.0887  0.0739 -0.1515
  550DPPI   GL2 8638  18.585   6.556   8.639 -0.3462  0.0466 -0.0342
  550DPPI   C1A 8639  18.654   6.218   8.224  0.1491  0.2039 -0.1347
  550DPPI   C2A 8640  18.573   6.292   7.833  0.1790 -0.1546 -0.1048
  550DPPI   C3A 8641  18.402   6.047   7.468 -0.3219  0.2326  0.1918
  550DPPI   C4A 8642  18.330   6.188   7.050 -0.0507  0.0493  0.2423
  550DPPI   C1B 8643  18.600   6.816   8.352 -0.2674  0.2371 -0.1591
  550DPPI   C2B 8644  18.556   6.764   8.091  0.1560  0.0595 -0.2470
  550DPPI   C3B 8645  18.750   6.761   7.716  0.0665 -0.1361  0.2225
  550DPPI   C4B 8646  18.750   6.907   7.326  0.2154  0.0156 -0.0592
  551DPPI    C1 8647  11.794  17.165  10.752 -0.0687 -0.1105  0.0903
  551DPPI    C2 8648  11.638  16.908  11.016 -0.0020 -0.3729 -0.1222
  551DPPI    C3 8649  12.034  16.966  11.002 -0.0229 -0.1993 -0.0237
  551DPPI   PO4 8650  11.739  17.108  10.536  0.2532  0.0146  0.2922
  551DPPI   GL1 8651  11.482  17.257  10.197  0.0031 -0.1514 -0.0307
  551DPPI   GL2 8652  11.652  17.489  10.085  0.2200 -0.1746  0.1781
  551DPPI   C1A 8653  11.303  17.140   9.855  0.4181  0.1514 -0.0120
  551DPPI   C2A 8654  11.316  17.004   9.441  0.2205  0.1949 -0.1541
  551DPPI   C3A 8655  11.321  16.860   9.014 -0.1005  0.1855  0.2752
  551DPPI   C4A 8656  11.437  16.913   8.603  0.1413  0.2955 -0.3393
  551DPPI   C1B 8657  11.721  17.404   9.612 -0.0558 -0.0260  0.1089
  551DPPI   C2B 8658  11.622  17.403   9.155  0.1068 -0.2222  0.1016
  551DPPI   C3B 8659  11.512  17.535   8.808  0.0999  0.0730 -0.3363
  551DPPI   C4B 8660  11.590  17.352   8.404  0.0964 -0.1763 -0.1520
  552DPPI    C1 8661   3.859   6.944   9.774 -0.1604  0.0422  0.0158
  552DPPI    C2 8662   3.885   6.822  10.154 -0.1049  0.0220  0.0056
  552DPPI    C3 8663   3.596   6.680   9.918  0.0440 -0.2001 -0.0465
  552DPPI   PO4 8664   4.155   7.018   9.776  0.0667  0.4859 -0.0560
  552DPPI   GL1 8665   4.454   6.905   9.512  0.1125  0.0104 -0.1017
  552DPPI   GL2 8666   4.704   6.854   9.515  0.0490  0.0855 -0.1020
  552DPPI   C1A 8667   4.399   6.862   9.062  0.1896  0.3171  0.2289
  552DPPI   C2A 8668   4.676   6.839   8.702  0.0580  0.2745  0.2003
  552DPPI   C3A 8669   4.917   6.741   8.329 -0.1285  0.2422  0.1902
  552DPPI   C4A 8670   5.296   6.736   8.067  0.1123 -0.3304 -0.2781
  552DPPI   C1B 8671   4.811   7.156   9.144 -0.2051 -0.1722 -0.2005
  552DPPI   C2B 8672   4.852   7.291   8.728 -0.0180  0.0541  0.0837
  552DPPI   C3B 8673   4.594   7.253   8.361  0.1114 -0.1103  0.0805
  552DPPI   C4B 8674   4.257   7.369   8.009 -0.0846  0.1880  0.1639
  553DPPI    C1 8675  14.183  11.573  10.515 -0.2122  0.2545  0.0021
  553DPPI    C2 8676  13.954  11.624  10.839 -0.1645  0.0635  0.0667
  553DPPI    C3 8677  14.352  11.600  10.877 -0.1688 -0.1114  0.0129
  553DPPI   PO4 8678  14.106  11.729  10.341 -0.1181  0.1702  0.1028
  553DPPI   GL1 8679  14.074  11.640   9.928 -0.0929 -0.1297 -0.0272
  553DPPI   GL2 8680  13.886  11.479  10.013  0.0290  0.0975  0.2549
  553DPPI   C1A 8681  14.007  11.713   9.399 -0.0541  0.1784 -0.0553
  553DPPI   C2A 8682  14.073  11.791   8.842 -0.3429  0.2365  0.0220
  553DPPI   C3A 8683  14.012  12.106   8.654  0.1827 -0.0994  0.2591
  553DPPI   C4A 8684  13.824  12.211   8.279 -0.2470  0.1563 -0.2049
  553DPPI   C1B 8685  13.551  11.745   9.706  0.2500  0.0223 -0.0146
  553DPPI   C2B 8686  13.287  11.746   9.318 -0.0608 -0.0112 -0.0505
  553DPPI   C3B 8687  13.315  11.657   8.870  0.1578  0.2774 -0.1832
  553DPPI   C4B 8688  13.639  11.716   8.654  0.0110  0.0047 -0.0871
  554PYPI    C1 8689   0.813  16.193  10.124 -0.1490  0.1285 -0.0828
  554PYPI    C2 8690   0.971  16.384  10.438 -0.2304  0.0007  0.0365
  554PYPI    C3 8691   1.063  16.001  10.370 -0.0211  0.0968 -0.2363
  554PYPI   PO4 8692   0.893  16.361   9.904 -0.3165 -0.1676  0.4395
  554PYPI   GL1 8693   0.780  16.580   9.541  0.0774  0.1011 -0.0647
  554PYPI   GL2 8694   0.540  16.732   9.556 -0.0250  0.2115  0.2198
  554PYPI   C1A 8695   0.731  16.472   9.053 -0.3471  0.1394  0.1195
  554PYPI   C2A 8696   0.599  16.718   8.620  0.0418  0.1963 -0.2000
  554PYPI   D3A 8697   0.534  17.074   8.417  0.1816  0.1000  0.0103
  554PYPI   C4A 8698   0.577  17.100   8.020 -0.1515 -0.1509 -0.4627
  554PYPI   C1B 8699   0.548  16.891   9.131 -0.1523  0.0263 -0.1668
  554PYPI   C2B 8700   0.922  16.956   8.868 -0.1213  0.1297 -0.2470
  554PYPI   C3B 8701   1.050  17.064   8.432 -0.0844 -0.1495  0.0371
  554PYPI   C4B 8702   1.115  16.977   8.046  0.0089  0.2956 -0.2536
  555PYPI    C1 8703   0.957   7.141   9.545 -0.1285 -0.1601  0.0397
  555PYPI    C2 8704   1.174   6.879   9.336 -0.0305  0.0080 -0.0711
  555PYPI    C3 8705   1.229   6.914   9.730  0.2164  0.1191 -0.1132
  555PYPI   PO4 8706   0.931   7.335   9.315 -0.0319 -0.0302  0.1521
  555PYPI   GL1 8707   1.097   7.414   8.976  0.0252 -0.2112  0.0119
  555PYPI   GL2 8708   0.912   7.724   8.880  0.0386  0.0481  0.0924
  555PYPI   C1A 8709   1.384   7.528   8.652  0.1476 -0.3083  0.0192
  555PYPI   C2A 8710   1.518   7.436   8.286  0.1196  0.0119  0.0114
  555PYPI   D3A 8711   1.608   7.391   7.851 -0.4377 -0.1054 -0.2062
  555PYPI   C4A 8712   1.519   7.736   7.505 -0.0456  0.1893 -0.2046
  555PYPI   C1B 8713   0.945   7.540   8.406  0.0211 -0.3685 -0.2606
  555PYPI   C2B 8714   0.752   7.477   7.974  0.1192 -0.0342 -0.0041
  555PYPI   C3B 8715   0.571   7.587   7.528 -0.1763 -0.1006 -0.3245
  555PYPI   C4B 8716   0.345   7.505   7.137 -0.1351  0.1362 -0.1766
  556PYPI    C1 8717  14.719   3.308  10.375  0.1178 -0.4717  0.1184
  556PYPI    C2 8718  14.430   3.036  10.326 -0.1410 -0.2301  0.2761
  556PYPI    C3 8719  14.490   3.203  10.684 -0.0502 -0.0071  0.1596
  556PYPI   PO4 8720  14.971   3.143  10.244  0.1476  0.2381 -0.2078
  556PYPI   GL1 8721  15.121   3.434   9.959 -0.0829  0.2532  0.2284
  556PYPI   GL2 8722  14.875   3.518   9.949  0.1494 -0.1212  0.1414
  556PYPI   C1A 8723  15.231   3.293   9.576  0.1863  0.0297  0.2503
  556PYPI   C2A 8724  15.008   3.345   9.189  0.1022  0.0588  0.1103
  556PYPI   D3A 8725  14.836   3.312   8.817 -0.3060 -0.0480  0.3637
  556PYPI   C4A 8726  14.738   3.049   8.602  0.4605  0.3368  0.2562
  556PYPI   C1B 8727  14.824   3.582   9.580 -0.1531 -0.1274  0.2311
  556PYPI   C2B 8728  14.561   3.511   9.196  0.2226  0.0207 -0.0469
  556PYPI   C3B 8729  14.360   3.669   8.851  0.1138 -0.0239  0.1502
  556PYPI   C4B 8730  14.144   3.631   8.390  0.2326  0.1810  0.0510
  557PYPI    C1 8731  10.572  14.616  10.502  0.0671 -0.0436  0.0666
  557PYPI    C2 8732  10.404  14.975  10.446  0.1664  0.0211  0.1773
  557PYPI    C3 8733  10.418  14.816  10.813  0.0323 -0.1420  0.1131
  557PYPI   PO4 8734  10.521  14.588  10.135 -0.2633 -0.0107  0.1309
  557PYPI   GL1 8735  10.329  14.465   9.767  0.2775 -0.2632 -0.0402
  557PYPI   GL2 8736  10.460  14.153   9.876 -0.4308  0.1324  0.1301
  557PYPI   C1A 8737  10.545  14.470   9.306  0.1525  0.0753  0.1225
  557PYPI   C2A 8738  10.614  14.457   8.830 -0.1399  0.0181  0.1676
  557PYPI   D3A 8739  10.466  14.364   8.362  0.0974  0.0513  0.2647
  557PYPI   C4A 8740  10.593  14.388   7.954  0.0995  0.0386 -0.0287
  557PYPI   C1B 8741  10.506  13.930   9.427  0.3305 -0.0701  0.1760
  557PYPI   C2B 8742  10.417  14.031   9.000  0.0701  0.0200  0.0618
  557PYPI   C3B 8743  10.546  13.921   8.571 -0.2149 -0.4227 -0.0667
  557PYPI   C4B 8744  10.156  13.924   8.316  0.0992  0.1540  0.0240
  558PYPI    C1 8745  18.275   8.358   9.744  0.1065  0.3130 -0.0244
  558PYPI    C2 8746  17.961   8.555   9.895 -0.1549 -0.1381  0.0394
  558PYPI    C3 8747  18.266   8.451  10.133 -0.1711 -0.1023  0.0757
  558PYPI   PO4 8748  18.335   8.521   9.466  0.0760  0.1194 -0.1108
  558PYPI   GL1 8749  18.457   8.563   9.083  0.1261 -0.1201  0.1061
  558PYPI   GL2 8750  18.176   8.666   9.031 -0.0995 -0.1469 -0.2191
  558PYPI   C1A 8751  18.442   8.482   8.553 -0.3006  0.2038  0.0521
  558PYPI   C2A 8752  18.305   8.665   8.103  0.2391  0.1113 -0.1323
  558PYPI   D3A 8753  18.263   8.920   7.757  0.0056 -0.1980 -0.0066
  558PYPI   C4A 8754  18.069   8.863   7.379  0.1610  0.0951 -0.0594
  558PYPI   C1B 8755  17.957   8.605   8.647  0.1128 -0.1093 -0.4123
  558PYPI   C2B 8756  17.816   8.608   8.239  0.2201  0.0926  0.1485
  558PYPI   C3B 8757  17.773   8.830   7.949 -0.5105  0.0642  0.0543
  558PYPI   C4B 8758  17.447   9.017   7.592 -0.0933  0.0197  0.1895
  559PYPI    C1 8759   2.814  13.200   9.734 -0.0018 -0.2226  0.0295
  559PYPI    C2 8760   2.823  13.508   9.989  0.3234 -0.1275 -0.0913
  559PYPI    C3 8761   2.516  13.251   9.996  0.0405  0.2058  0.0001
  559PYPI   PO4 8762   2.979  13.323   9.555 -0.3807  0.0612 -0.0572
  559PYPI   GL1 8763   3.053  13.280   9.153  0.0031 -0.1553 -0.3242
  559PYPI   GL2 8764   2.774  13.487   9.131 -0.0875  0.1692  0.1055
  559PYPI   C1A 8765   2.964  13.194   8.682  0.1779  0.0600  0.1814
  559PYPI   C2A 8766   2.983  13.181   8.138 -0.1506 -0.0797  0.0897
  559PYPI   D3A 8767   3.013  13.243   7.659 -0.1902  0.2347 -0.0957
  559PYPI   C4A 8768   2.719  13.164   7.426  0.2288  0.1055 -0.2853
  559PYPI   C1B 8769   2.670  13.586   8.747  0.1023 -0.0558  0.0247
  559PYPI   C2B 8770   2.728  13.576   8.371 -0.2013 -0.2584  0.0123
  559PYPI   C3B 8771   2.440  13.907   8.188  0.0973 -0.1956 -0.1766
  559PYPI   C4B 8772   2.191  14.001   7.867 -0.0262  0.0041  0.0964
  560PYPI    C1 8773   7.379  14.314  10.347  0.0323 -0.0114 -0.2512
  560PYPI    C2 8774   7.174  14.647  10.263  0.2776  0.1490 -0.2227
  560PYPI    C3 8775   7.229  14.537  10.643  0.7005  0.4020 -0.2041
  560PYPI   PO4 8776   7.374  14.225  10.014  0.3597 -0.3647 -0.1507
  560PYPI   GL1 8777   7.215  14.056   9.729  0.0419 -0.0498 -0.1708
  560PYPI   GL2 8778   6.974  13.948   9.722 -0.0361 -0.0539 -0.1650
  560PYPI   C1A 8779   7.299  14.050   9.273 -0.0074  0.1126 -0.2230
  560PYPI   C2A 8780   7.274  13.951   8.887  0.0867  0.1552 -0.0070
  560PYPI   D3A 8781   6.937  13.955   8.534 -0.0595  0.1543 -0.2433
  560PYPI   C4A 8782   7.162  13.759   8.235 -0.2004 -0.0552  0.1186
  560PYPI   C1B 8783   6.829  14.111   9.393 -0.2361  0.1731  0.0501
  560PYPI   C2B 8784   6.921  14.216   9.014  0.1944  0.0169 -0.0960
  560PYPI   C3B 8785   6.878  14.458   8.616 -0.1403 -0.1793  0.0972
  560PYPI   C4B 8786   6.963  14.457   8.173  0.1628 -0.3684 -0.1802
  561PYPI    C1 8787   9.866   0.752  10.826 -0.0676 -0.0510  0.0600
  561PYPI    C2 8788  10.118   1.010  10.998 -0.0679  0.1773 -0.2718
  561PYPI    C3 8789   9.726   1.088  10.991 -0.1459 -0.1365  0.1690
  561PYPI   PO4 8790   9.939   0.728  10.632  0.1588 -0.0421 -0.2230
  561PYPI   GL1 8791   9.961   0.922  10.212 -0.0053 -0.2012 -0.0702
  561PYPI   GL2 8792   9.792   1.030  10.026  0.3196  0.2693  0.2328
  561PYPI   C1A 8793  10.404   0.949  10.079 -0.0682 -0.4527  0.0707
  561PYPI   C2A 8794  10.634   1.328   9.983 -0.4286  0.1529 -0.2509
  561PYPI   D3A 8795  10.714   1.667   9.701  0.2591  0.1569 -0.0804
  561PYPI   C4A 8796  11.039   1.796   9.539  0.1650 -0.0796 -0.1588
  561PYPI   C1B 8797   9.761   1.321   9.679  0.3757  0.5050  0.0858
  561PYPI   C2B 8798   9.887   1.175   9.211  0.1134  0.0626 -0.0304
  561PYPI   C3B 8799   9.926   0.829   8.975 -0.3721  0.0394  0.1998
  561PYPI   C4B 8800  10.014   0.668   8.549  0.0353  0.2205  0.2721
  562PYPI    C1 8801   8.788  11.630  10.260  0.0224 -0.1151  0.1739
  562PYPI    C2 8802   8.441  11.635  10.061  0.0909  0.1669  0.0567
  562PYPI    C3 8803   8.449  11.531  10.447 -0.1235  0.1607  0.0607
  562PYPI   PO4 8804   8.948  11.582  10.026 -0.4485 -0.3508 -0.2198
  562PYPI   GL1 8805   8.732  11.532   9.641  0.3506  0.2237  0.1420
  562PYPI   GL2 8806   8.411  11.517   9.587  0.0756  0.1162 -0.0834
  562PYPI   C1A 8807   9.049  11.514   9.249  0.4128 -0.1214 -0.2719
  562PYPI   C2A 8808   9.034  11.540   8.882  0.2923  0.0776 -0.2651
  562PYPI   D3A 8809   8.809  11.469   8.503 -0.0021 -0.0766 -0.1256
  562PYPI   C4A 8810   8.817  11.286   8.071  0.0508 -0.0446  0.1815
  562PYPI   C1B 8811   8.480  11.435   9.126 -0.0941 -0.1658  0.0327
  562PYPI   C2B 8812   8.309  11.466   8.736  0.0066 -0.2196  0.1614
  562PYPI   C3B 8813   8.280  11.685   8.393  0.0113  0.0824 -0.2356
  562PYPI   C4B 8814   8.006  11.814   8.100  0.1206  0.1559  0.3364
  563PYPI    C1 8815   3.026  11.863  10.104  0.0197  0.1039  0.0008
  563PYPI    C2 8816   3.066  11.844  10.502 -0.1267  0.0157  0.0120
  563PYPI    C3 8817   2.765  11.651  10.322  0.0699 -0.1307 -0.1642
  563PYPI   PO4 8818   3.262  11.734  10.030  0.0403 -0.1364  0.2151
  563PYPI   GL1 8819   3.596  11.611   9.769  0.0312 -0.0783  0.1364
  563PYPI   GL2 8820   3.768  11.419   9.563 -0.4121 -0.1062  0.0296
  563PYPI   C1A 8821   3.659  11.924   9.401  0.2032  0.2449 -0.1409
  563PYPI   C2A 8822   3.634  12.100   8.948  0.0888 -0.0220 -0.0976
  563PYPI   D3A 8823   3.676  12.115   8.610  0.1273 -0.0104 -0.1149
  563PYPI   C4A 8824   3.652  12.033   8.117 -0.0307  0.1730 -0.1234
  563PYPI   C1B 8825   3.820  11.556   9.130 -0.2691  0.2013 -0.1330
  563PYPI   C2B 8826   4.021  11.653   8.741  0.0953  0.0222  0.3909
  563PYPI   C3B 8827   4.123  11.784   8.329  0.1231  0.0967 -0.0162
  563PYPI   C4B 8828   4.084  11.863   7.874  0.1273  0.0077  0.2950
  564PYPI    C1 8829   8.621  14.734  10.009  0.1956  0.1155  0.1055
  564PYPI    C2 8830   8.620  14.563  10.370 -0.1146 -0.0518  0.0288
  564PYPI    C3 8831   8.480  14.363  10.053 -0.2343  0.2457 -0.1100
  564PYPI   PO4 8832   8.568  14.975  10.053 -0.1496  0.2447  0.3897
  564PYPI   GL1 8833   8.790  15.246   9.769 -0.2020 -0.1197 -0.0920
  564PYPI   GL2 8834   8.624  15.463   9.666 -0.1374 -0.0039  0.1752
  564PYPI   C1A 8835   8.804  14.912   9.317 -0.1243 -0.0351 -0.1396
  564PYPI   C2A 8836   8.804  14.998   8.848  0.0994  0.0234 -0.0052
  564PYPI   D3A 8837   9.212  14.858   8.592 -0.1484 -0.0658 -0.0739
  564PYPI   C4A 8838   9.347  15.079   8.258 -0.2376 -0.0212  0.1150
  564PYPI   C1B 8839   8.783  15.480   9.317  0.0201  0.0940 -0.0299
  564PYPI   C2B 8840   8.781  15.551   8.887  0.0783  0.1729  0.2194
  564PYPI   C3B 8841   8.769  15.362   8.523 -0.0196 -0.1283 -0.0382
  564PYPI   C4B 8842   8.843  14.999   8.256 -0.1107 -0.2308  0.2743
  565PYPI    C1 8843   4.244  17.484   9.702 -0.0954 -0.2261 -0.0684
  565PYPI    C2 8844   4.263  17.411  10.095  0.2431 -0.0475 -0.0482
  565PYPI    C3 8845   4.462  17.178   9.838  0.1638 -0.0580 -0.1006
  565PYPI   PO4 8846   4.005  17.501   9.623  0.0924 -0.0737  0.2245
  565PYPI   GL1 8847   3.904  17.630   9.255  0.3510 -0.1146  0.0526
  565PYPI   GL2 8848   3.724  17.889   9.305  0.1008 -0.0803  0.0042
  565PYPI   C1A 8849   4.069  17.519   8.879 -0.1223 -0.1383 -0.0922
  565PYPI   C2A 8850   4.179  17.392   8.505  0.2312  0.0386 -0.0531
  565PYPI   D3A 8851   4.404  17.313   8.238 -0.4534 -0.0094  0.0501
  565PYPI   C4A 8852   4.587  17.115   7.903 -0.0111 -0.0917 -0.1991
  565PYPI   C1B 8853   3.720  17.927   8.861  0.2400 -0.1023  0.0610
  565PYPI   C2B 8854   3.867  17.807   8.468 -0.3543 -0.0029  0.0432
  565PYPI   C3B 8855   4.222  17.846   8.201 -0.1690  0.2150 -0.2260
  565PYPI   C4B 8856   4.608  18.053   7.966  0.3593 -0.1349 -0.2235
  566PYPI    C1 8857   3.254  17.486  10.202  0.0890 -0.1298 -0.0669
  566PYPI    C2 8858   3.030  17.242  10.427  0.0557 -0.3575 -0.3401
  566PYPI    C3 8859   3.419  17.163  10.372  0.1419 -0.1193 -0.0983
  566PYPI   PO4 8860   3.146  17.483   9.964 -0.3546  0.0281 -0.1564
  566PYPI   GL1 8861   3.286  17.352   9.498  0.0469  0.5853 -0.0189
  566PYPI   GL2 8862   3.609  17.226   9.442  0.2808  0.0617  0.2798
  566PYPI   C1A 8863   3.339  17.627   9.102  0.0612 -0.0811  0.1455
  566PYPI   C2A 8864   3.188  17.718   8.695  0.0014  0.1591  0.1830
  566PYPI   D3A 8865   3.373  17.747   8.235  0.0766  0.0840  0.0339
  566PYPI   C4A 8866   3.832  17.450   8.106  0.1799 -0.1288  0.1508
  566PYPI   C1B 8867   3.665  17.194   9.042 -0.0692 -0.4150  0.2926
  566PYPI   C2B 8868   3.877  16.965   8.804  0.2940 -0.1536  0.1890
  566PYPI   C3B 8869   4.247  16.818   8.481  0.0818  0.2760 -0.0908
  566PYPI   C4B 8870   4.125  16.951   8.069 -0.1491  0.0433 -0.2496
  567PYPI    C1 8871  10.483   9.631  10.627  0.0797  0.0669  0.1764
  567PYPI    C2 8872  10.107   9.634  10.492  0.1342  0.0178  0.0213
  567PYPI    C3 8873  10.194   9.802  10.845 -0.0316  0.0346  0.0552
  567PYPI   PO4 8874  10.608   9.717  10.465  0.2246 -0.1080  0.1865
  567PYPI   GL1 8875  10.729   9.723  10.046  0.1904 -0.1460 -0.0980
  567PYPI   GL2 8876  10.444   9.630   9.915 -0.2966  0.1518  0.2529
  567PYPI   C1A 8877  10.908   9.420   9.835 -0.1439  0.3210 -0.1390
  567PYPI   C2A 8878  10.961   9.019   9.628  0.2733  0.0267  0.4162
  567PYPI   D3A 8879  10.748   8.800   9.333  0.0717  0.0871 -0.2199
  567PYPI   C4A 8880  10.675   8.941   9.010 -0.0321  0.0095  0.1522
  567PYPI   C1B 8881  10.411   9.833   9.544 -0.0627 -0.1028  0.0097
  567PYPI   C2B 8882  10.328   9.756   9.098 -0.1305 -0.0420 -0.1341
  567PYPI   C3B 8883  10.171   9.678   8.684 -0.1301  0.4059  0.2286
  567PYPI   C4B 8884   9.764   9.619   8.573  0.2362  0.1259  0.0919
  568PYPI    C1 8885   1.311  17.961   9.881  0.1475  0.2812 -0.1821
  568PYPI    C2 8886   1.523  18.254  10.052  0.2442  0.2037 -0.1677
  568PYPI    C3 8887   1.711  17.955   9.864  0.1498  0.0971 -0.0946
  568PYPI   PO4 8888   1.123  18.106   9.750  0.1146  0.1056 -0.3276
  568PYPI   GL1 8889   1.008  18.145   9.367  0.1433 -0.0649 -0.0174
  568PYPI   GL2 8890   1.163  18.029   9.204  0.1470  0.0340 -0.0421
  568PYPI   C1A 8891   0.964  18.475   9.035 -0.1807 -0.1781  0.1206
  568PYPI   C2A 8892   0.787  18.648   8.737  0.1725  0.0812 -0.0715
  568PYPI   D3A 8893   0.675  18.557   8.202 -0.0990 -0.0869 -0.1907
  568PYPI   C4A 8894   0.503  18.337   7.843 -0.2500 -0.3922 -0.2242
  568PYPI   C1B 8895   1.256  18.076   8.815 -0.0913 -0.1043 -0.1215
  568PYPI   C2B 8896   1.433  18.088   8.350  0.2176  0.0878 -0.0744
  568PYPI   C3B 8897   1.414  18.325   7.990 -0.0668  0.1840  0.2604
  568PYPI   C4B 8898   1.338  18.715   7.715  0.0486  0.0713  0.0977
  569PYPI    C1 8899  15.320   0.684  10.624 -0.2043 -0.0771  0.1192
  569PYPI    C2 8900  15.329   0.303  10.743  0.3793 -0.1203 -0.0325
  569PYPI    C3 8901  15.414   0.595  11.002 -0.2119 -0.0721  0.1222
  569PYPI   PO4 8902  15.460   0.786  10.405 -0.2124  0.1860  0.1009
  569PYPI   GL1 8903  15.479   0.874   9.930  0.0479 -0.5006  0.0538
  569PYPI   GL2 8904  15.813   0.920   9.957  0.2187  0.2831 -0.2747
  569PYPI   C1A 8905  15.203   0.875   9.586 -0.3482  0.0136  0.3053
  569PYPI   C2A 8906  15.012   1.118   9.147 -0.2612 -0.0084  0.2323
  569PYPI   D3A 8907  14.783   0.931   8.768  0.2906 -0.2204 -0.0894
  569PYPI   C4A 8908  14.802   0.937   8.343 -0.0612  0.0609 -0.0956
  569PYPI   C1B 8909  15.868   0.726   9.563  0.0849  0.3229  0.0092
  569PYPI   C2B 8910  15.566   0.860   9.259  0.1848  0.1949 -0.1953
  569PYPI   C3B 8911  15.489   1.175   8.988 -0.0667 -0.1519  0.0423
  569PYPI   C4B 8912  15.285   1.061   8.677  0.1932  0.1095  0.0595
  570PYPI    C1 8913  14.856  13.830  10.120  0.0974 -0.1253  0.2099
  570PYPI    C2 8914  14.513  13.857  10.325  0.0065 -0.0938  0.0556
  570PYPI    C3 8915  14.857  13.790  10.518 -0.1236 -0.4011  0.1862
  570PYPI   PO4 8916  14.735  13.803   9.908  0.0265 -0.0579  0.3479
  570PYPI   GL1 8917  14.461  13.706   9.531 -0.1794 -0.0654 -0.1555
  570PYPI   GL2 8918  14.446  14.030   9.494 -0.0347 -0.2347  0.0909
  570PYPI   C1A 8919  14.373  13.529   9.203  0.2006  0.1643 -0.0852
  570PYPI   C2A 8920  14.017  13.536   8.935 -0.0997 -0.3679  0.0710
  570PYPI   D3A 8921  14.002  13.499   8.477 -0.0097 -0.1283 -0.3484
  570PYPI   C4A 8922  13.803  13.529   8.027 -0.2345  0.0455 -0.3170
  570PYPI   C1B 8923  14.620  14.001   9.072  0.1212 -0.0224 -0.1830
  570PYPI   C2B 8924  14.529  13.694   8.671 -0.0955  0.2090 -0.2664
  570PYPI   C3B 8925  14.521  13.364   8.371  0.0552 -0.1004 -0.2183
  570PYPI   C4B 8926  14.454  13.168   7.977  0.0697  0.1542  0.1258
  571PYPI    C1 8927  10.264  10.833  10.362  0.2403 -0.0911 -0.1975
  571PYPI    C2 8928  10.576  11.055  10.245  0.1774  0.1412  0.0631
  571PYPI    C3 8929  10.209  11.214  10.251  0.0450 -0.1380 -0.2653
  571PYPI   PO4 8930  10.275  10.661  10.322 -0.3929 -0.1860  0.1330
  571PYPI   GL1 8931  10.416  10.503   9.962 -0.3506  0.0531 -0.0737
  571PYPI   GL2 8932  10.551  10.227   9.863 -0.2584  0.0479 -0.1354
  571PYPI   C1A 8933  10.634  10.781   9.753 -0.1962 -0.2628  0.0453
  571PYPI   C2A 8934  10.689  10.752   9.267  0.0171 -0.0909 -0.1864
  571PYPI   D3A 8935  10.649  10.644   8.834  0.3975 -0.1265  0.0071
  571PYPI   C4A 8936  10.766  10.518   8.412 -0.0445  0.3075  0.1366
  571PYPI   C1B 8937  10.593  10.305   9.548 -0.4722 -0.0567  0.2127
  571PYPI   C2B 8938  10.499  10.245   9.092  0.1288  0.1523 -0.1120
  571PYPI   C3B 8939  10.423  10.185   8.647  0.2454 -0.1117 -0.0680
  571PYPI   C4B 8940  10.360  10.282   8.251  0.0029  0.0176 -0.0619
  572PYPI    C1 8941   5.940  17.870   9.994  0.1462  0.1493 -0.3158
  572PYPI    C2 8942   5.974  18.254  10.099  0.1500  0.0947 -0.1132
  572PYPI    C3 8943   6.015  17.967  10.374  0.0809 -0.0489 -0.2511
  572PYPI   PO4 8944   5.715  17.762   9.873 -0.0606  0.1682  0.0283
  572PYPI   GL1 8945   5.672  17.885   9.475  0.2868 -0.2442 -0.2574
  572PYPI   GL2 8946   5.567  18.187   9.573 -0.0718 -0.1947  0.0203
  572PYPI   C1A 8947   5.298  17.801   9.343  0.1403 -0.0988  0.1825
  572PYPI   C2A 8948   4.993  17.568   9.347  0.2211  0.3639 -0.3666
  572PYPI   D3A 8949   4.608  17.281   9.373 -0.1104 -0.0422 -0.1134
  572PYPI   C4A 8950   4.651  16.851   9.244 -0.2848  0.0769  0.2118
  572PYPI   C1B 8951   5.617  18.622   9.329  0.2620 -0.1217  0.0973
  572PYPI   C2B 8952   5.298  18.802   9.133 -0.0749 -0.2097 -0.1650
  572PYPI   C3B 8953   5.255  18.760   8.667  0.1078 -0.0357 -0.1318
  572PYPI   C4B 8954   5.212  18.559   8.319  0.0371  0.1436  0.3230
  573PYPI    C1 8955   4.770  17.988  10.425 -0.0183 -0.1325 -0.0676
  573PYPI    C2 8956   4.452  17.746  10.423 -0.0612 -0.0757 -0.1408
  573PYPI    C3 8957   4.785  17.638  10.617 -0.1960 -0.0435  0.1120
  573PYPI   PO4 8958   4.929  18.045  10.104  0.0555 -0.0508  0.1594
  573PYPI   GL1 8959   4.863  18.119   9.621  0.0932  0.1929  0.3802
  573PYPI   GL2 8960   4.619  17.898   9.559  0.0572 -0.0024  0.0924
  573PYPI   C1A 8961   5.171  18.289   9.230  0.3412  0.0708 -0.0335
  573PYPI   C2A 8962   5.531  18.155   9.072 -0.2112 -0.2752  0.1287
  573PYPI   D3A 8963   5.899  18.142   8.926 -0.0338  0.4331 -0.5390
  573PYPI   C4A 8964   6.092  18.314   8.578 -0.0174 -0.0674 -0.0754
  573PYPI   C1B 8965   4.560  17.710   9.161 -0.0431 -0.2226  0.0280
  573PYPI   C2B 8966   4.642  17.603   8.657 -0.0271  0.0063 -0.0233
  573PYPI   C3B 8967   4.832  17.574   8.318  0.1763  0.0969  0.1971
  573PYPI   C4B 8968   4.977  17.698   7.887 -0.0868  0.5029  0.3549
  574ERGO   ROH 8969  17.031   7.464   8.836  0.0387  0.4640  0.0353
  574ERGO    R1 8970  16.978   7.651   8.630 -0.1008  0.3477 -0.0352
  574ERGO    R2 8971  17.080   7.625   8.374  0.0029  0.3798  0.0061
  574ERGO    R3 8972  16.819   7.646   8.303 -0.0011  0.0832 -0.0831
  574ERGO    R4 8973  16.968   7.670   8.051  0.0660  0.2451 -0.0360
  574ERGO    R5 8974  16.819   7.810   8.128 -0.1221  0.0831 -0.0875
  574ERGO    C1 8975  16.657   7.716   7.795  0.0990 -0.1117 -0.1444
  574ERGO    C2 8976  16.656   7.547   7.512  0.0146 -0.0566 -0.0123
  575ERGO   ROH 8977   0.112   4.660   8.911  0.2382  0.0328 -0.1343
  575ERGO    R1 8978   0.094   4.622   8.632  0.1371  0.1711 -0.1473
  575ERGO    R2 8979   0.240   4.771   8.451  0.3031  0.0538 -0.1109
  575ERGO    R3 8980   0.319   4.527   8.362 -0.0339 -0.0177 -0.2261
  575ERGO    R4 8981   0.367   4.707   8.136  0.4271  0.0746 -0.0656
  575ERGO    R5 8982   0.251   4.523   8.132  0.1215  0.2611 -0.2817
  575ERGO    C1 8983   0.515   4.440   7.869  0.1830  0.0196 -0.1476
  575ERGO    C2 8984   0.705   4.188   7.634 -0.1316 -0.3254 -0.0461
  576ERGO   ROH 8985   2.895  10.965   9.399 -0.1784  0.1368 -0.0202
  576ERGO    R1 8986   3.073  10.907   9.186 -0.1819 -0.0179  0.0175
  576ERGO    R2 8987   2.988  10.804   8.945 -0.2232  0.0722 -0.0081
  576ERGO    R3 8988   3.121  11.019   8.843 -0.0006 -0.0429  0.0343
  576ERGO    R4 8989   3.150  10.810   8.640 -0.2104 -0.0324 -0.0036
  576ERGO    R5 8990   3.311  10.924   8.733 -0.0947 -0.2146  0.0195
  576ERGO    C1 8991   3.370  11.015   8.367  0.0059 -0.2012  0.0387
  576ERGO    C2 8992   3.655  11.136   8.123  0.3034 -0.0431 -0.1015
  577ERGO   ROH 8993   6.088   2.728   9.726  0.1332 -0.1078  0.0557
  577ERGO    R1 8994   5.956   2.681   9.479  0.0209  0.2034  0.0512
  577ERGO    R2 8995   5.996   2.839   9.257  0.3420  0.1681  0.0762
  577ERGO    R3 8996   6.055   2.602   9.138 -0.1478  0.0558  0.0358
  577ERGO    R4 8997   6.015   2.790   8.915  0.3237  0.2017  0.0701
  577ERGO    R5 8998   5.915   2.597   8.943 -0.1115  0.4080 -0.0022
  577ERGO    C1 8999   6.081   2.538   8.605 -0.1469  0.1159  0.0287
  577ERGO    C2 9000   6.020   2.695   8.259  0.0120  0.0292 -0.1011
  578ERGO   ROH 9001   6.143  13.372   9.767 -0.0195 -0.2110  0.1289
  578ERGO    R1 9002   5.976  13.377   9.539 -0.0581 -0.0930  0.1595
  578ERGO    R2 9003   6.005  13.563   9.337  0.0057 -0.0835  0.1785
  578ERGO    R3 9004   6.017  13.342   9.179 -0.1417 -0.0712  0.1473
  578ERGO    R4 9005   5.913  13.553   9.004 -0.0706  0.0060  0.1958
  578ERGO    R5 9006   5.823  13.357   9.040 -0.1644  0.0467  0.1898
  578ERGO    C1 9007   5.872  13.339   8.662 -0.2532  0.0694  0.1767
  578ERGO    C2 9008   5.908  13.345   8.385 -0.0243  0.3656 -0.0740
  579ERGO   ROH 9009   9.989  11.503   9.848 -0.2796 -0.0305 -0.0649
  579ERGO    R1 9010   9.938  11.479   9.571 -0.1638  0.0113 -0.0896
  579ERGO    R2 9011   9.923  11.698   9.403 -0.0390  0.0307 -0.0706
  579ERGO    R3 9012  10.111  11.562   9.262 -0.0098  0.0033 -0.0076
  579ERGO    R4 9013   9.990  11.746   9.068 -0.2297 -0.2860 -0.1597
  579ERGO    R5 9014  10.012  11.530   9.046 -0.0922 -0.3016  0.0681
  579ERGO    C1 9015  10.207  11.647   8.740 -0.3133 -0.4960 -0.1526
  579ERGO    C2 9016  10.334  11.867   8.334 -0.0580  0.2643  0.0273
  580ERGO   ROH 9017   0.646   1.594   9.397 -0.0411 -0.0215 -0.0012
  580ERGO    R1 9018   0.804   1.570   9.163 -0.1664 -0.2088 -0.0686
  580ERGO    R2 9019   0.693   1.537   8.912 -0.3246  0.1101 -0.0448
  580ERGO    R3 9020   0.845   1.755   8.852  0.0633 -0.1368  0.0016
  580ERGO    R4 9021   0.846   1.593   8.607 -0.4653  0.0330 -0.1305
  580ERGO    R5 9022   1.020   1.668   8.714 -0.2160 -0.3913 -0.2110
  580ERGO    C1 9023   1.077   1.830   8.373 -0.1831 -0.2436 -0.1368
  580ERGO    C2 9024   1.136   2.054   8.194 -0.1984 -0.1774 -0.2316
  581ERGO   ROH 9025  13.334   7.371   9.967 -0.0745 -0.0453  0.0191
  581ERGO    R1 9026  13.194   7.389   9.722  0.0156 -0.0709 -0.0351
  581ERGO    R2 9027  13.094   7.627   9.624 -0.0878 -0.1039 -0.0181
  581ERGO    R3 9028  13.238   7.558   9.403  0.0477  0.0334  0.0255
  581ERGO    R4 9029  13.047   7.759   9.308  0.1867  0.1690  0.0487
  581ERGO    R5 9030  13.078   7.559   9.225  0.1801  0.2297 -0.0925
  581ERGO    C1 9031  13.153   7.770   8.917  0.4736  0.4568  0.1286
  581ERGO    C2 9032  13.254   7.998   8.644  0.0737 -0.1597  0.1783
  582ERGO   ROH 9033  16.644   2.423   9.640 -0.1675 -0.0771 -0.1619
  582ERGO    R1 9034  16.494   2.420   9.400 -0.2181  0.0689 -0.1354
  582ERGO    R2 9035  16.484   2.635   9.227  0.0415  0.0505 -0.1854
  582ERGO    R3 9036  16.565   2.451   9.044 -0.2335 -0.1055 -0.1537
  582ERGO    R4 9037  16.399   2.638   8.892  0.1888  0.2230 -0.2220
  582ERGO    R5 9038  16.376   2.422   8.901 -0.2326  0.2627 -0.2359
  582ERGO    C1 9039  16.425   2.467   8.525  0.0167  0.1770 -0.2136
  582ERGO    C2 9040  16.443   2.571   8.059 -0.2641 -0.0447  0.2067
  583ERGO   ROH 9041   6.939  16.880   9.480  0.2018 -0.1008 -0.1511
  583ERGO    R1 9042   6.980  17.024   9.239  0.1059 -0.1038 -0.1704
  583ERGO    R2 9043   7.031  16.898   8.998 -0.0388 -0.1089 -0.2012
  583ERGO    R3 9044   6.819  17.046   8.913 -0.0561 -0.0696 -0.0890
  583ERGO    R4 9045   6.958  16.967   8.667  0.0000  0.2008 -0.1480
  583ERGO    R5 9046   6.904  17.170   8.727 -0.0520  0.1329  0.0442
  583ERGO    C1 9047   6.716  17.145   8.395  0.0064  0.4183 -0.0116
  583ERGO    C2 9048   6.739  17.289   8.022  0.1002 -0.0002  0.1257
  584ERGO   ROH 9049   6.339  17.768   9.588  0.2114 -0.1382  0.0357
  584ERGO    R1 9050   6.295  17.885   9.334  0.0767 -0.2261  0.0165
  584ERGO    R2 9051   6.415  18.122   9.256 -0.3457  0.0162  0.0553
  584ERGO    R3 9052   6.497  17.973   9.045  0.0243  0.1590  0.0926
  584ERGO    R4 9053   6.465  18.243   8.936 -0.5996  0.0678  0.0331
  584ERGO    R5 9054   6.376  18.060   8.858 -0.1694 -0.1643  0.0638
  584ERGO    C1 9055   6.572  18.173   8.552 -0.4000  0.2318  0.0552
  584ERGO    C2 9056   6.497  18.138   8.270 -0.2612 -0.4832 -0.0605
  585ERGO   ROH 9057   7.796  17.402  10.142 -0.0271 -0.1459 -0.0420
  585ERGO    R1 9058   7.706  17.461   9.880 -0.0817 -0.1786 -0.0306
  585ERGO    R2 9059   7.813  17.665   9.728 -0.3146 -0.0015  0.0347
  585ERGO    R3 9060   7.849  17.466   9.545 -0.0630  0.0900 -0.0203
  585ERGO    R4 9061   7.774  17.701   9.386 -0.0041  0.1266  0.0093
  585ERGO    R5 9062   7.679  17.505   9.381  0.0770  0.0905 -0.1664
  585ERGO    C1 9063   7.785  17.535   9.016  0.4129  0.2871 -0.0570
  585ERGO    C2 9064   7.879  17.495   8.677 -0.2684 -0.0923 -0.0692
  586ERGO   ROH 9065   2.084   6.570   9.222 -0.0059  0.2476  0.0648
  586ERGO    R1 9066   2.022   6.542   8.948 -0.0853  0.1681  0.0908
  586ERGO    R2 9067   1.973   6.758   8.783  0.0073  0.1267  0.0114
  586ERGO    R3 9068   2.169   6.645   8.631 -0.0949 -0.0541  0.0113
  586ERGO    R4 9069   1.992   6.776   8.438  0.0832  0.2138  0.0195
  586ERGO    R5 9070   2.055   6.568   8.435 -0.1558  0.1366 -0.0327
  586ERGO    C1 9071   2.186   6.681   8.095  0.0313  0.0947  0.0240
  586ERGO    C2 9072   2.208   6.627   7.770 -0.2726 -0.0987 -0.1872
  587ERGO   ROH 9073   5.395  16.952   9.619  0.0977  0.0669 -0.0236
  587ERGO    R1 9074   5.288  16.925   9.358  0.1665  0.0320 -0.0482
  587ERGO    R2 9075   5.132  17.120   9.241  0.1709  0.0010 -0.1021
  587ERGO    R3 9076   5.316  17.102   9.042  0.2214  0.0100 -0.0565
  587ERGO    R4 9077   5.106  17.275   8.933  0.1658 -0.1134 -0.1597
  587ERGO    R5 9078   5.186  17.095   8.841  0.2630 -0.1139 -0.0820
  587ERGO    C1 9079   5.263  17.348   8.567  0.2102 -0.1715 -0.1506
  587ERGO    C2 9080   5.309  17.517   8.253 -0.1646  0.0125  0.1892
  588ERGO   ROH 9081  11.406   3.624   9.930 -0.1425 -0.0036 -0.0100
  588ERGO    R1 9082  11.509   3.646   9.668 -0.0965 -0.0592  0.0034
  588ERGO    R2 9083  11.780   3.671   9.616 -0.0982  0.0603  0.0540
  588ERGO    R3 9084  11.736   3.456   9.455  0.0505 -0.0304  0.1318
  588ERGO    R4 9085  11.987   3.572   9.357 -0.0093  0.0894  0.1134
  588ERGO    R5 9086  11.809   3.528   9.239  0.0283 -0.0667  0.1112
  588ERGO    C1 9087  12.066   3.313   9.056  0.1820  0.0212  0.2210
  588ERGO    C2 9088  12.303   3.165   8.827 -0.0376 -0.2611  0.0284
  589ERGO   ROH 9089  12.262   4.496   9.484 -0.0494 -0.0546  0.0399
  589ERGO    R1 9090  12.238   4.401   9.218  0.0012  0.0373 -0.0003
  589ERGO    R2 9091  12.404   4.486   9.015  0.0712  0.0820  0.0600
  589ERGO    R3 9092  12.448   4.219   8.983  0.0358  0.0860 -0.0023
  589ERGO    R4 9093  12.513   4.337   8.722 -0.2933  0.0737 -0.0737
  589ERGO    R5 9094  12.374   4.173   8.760 -0.2379  0.0796  0.0957
  589ERGO    C1 9095  12.617   4.001   8.521 -0.5389  0.0726 -0.2100
  589ERGO    C2 9096  12.682   3.782   8.228 -0.0802  0.0491 -0.0498
  590ERGO   ROH 9097   0.013   7.817   9.188  0.1642 -0.0011  0.0865
  590ERGO    R1 9098   0.086   7.836   8.915  0.0545 -0.1065  0.0494
  590ERGO    R2 9099  -0.095   7.802   8.710 -0.0873  0.0888  0.1423
  590ERGO    R3 9100  -0.004   8.046   8.632  0.1596 -0.0205  0.0781
  590ERGO    R4 9101  -0.110   7.923   8.387 -0.3711  0.1851  0.1881
  590ERGO    R5 9102   0.090   8.007   8.414 -0.2005 -0.1101 -0.0703
  590ERGO    C1 9103  -0.033   8.223   8.125 -0.3043  0.1386  0.1543
  590ERGO    C2 9104   0.008   8.361   7.860  0.1018 -0.1937  0.0984
  591ERGO   ROH 9105   5.067  14.721   9.354 -0.1934 -0.1196  0.0324
  591ERGO    R1 9106   5.136  14.602   9.107 -0.0202 -0.0831  0.0633
  591ERGO    R2 9107   4.947  14.520   8.923  0.1086 -0.1482 -0.0338
  591ERGO    R3 9108   5.090  14.678   8.754  0.1332 -0.0903  0.0393
  591ERGO    R4 9109   4.972  14.473   8.581  0.0442  0.0337 -0.0652
  591ERGO    R5 9110   5.183  14.526   8.594  0.0675 -0.0335 -0.0607
  591ERGO    C1 9111   5.121  14.594   8.224  0.0299  0.1939 -0.0149
  591ERGO    C2 9112   5.066  14.646   7.963  0.3155  0.1790 -0.0943
  592ERGO   ROH 9113   6.298  16.056   9.514 -0.0261 -0.1347  0.2265
  592ERGO    R1 9114   6.412  16.055   9.255 -0.0284  0.0177  0.2247
  592ERGO    R2 9115   6.328  15.884   9.055  0.1002  0.0035  0.1846
  592ERGO    R3 9116   6.296  16.114   8.915 -0.0770  0.0153  0.2402
  592ERGO    R4 9117   6.290  15.903   8.713  0.1047  0.0552  0.1865
  592ERGO    R5 9118   6.419  16.078   8.713 -0.0339  0.1616  0.2373
  592ERGO    C1 9119   6.238  16.131   8.381 -0.0591  0.0963  0.2398
  592ERGO    C2 9120   6.212  16.322   8.143  0.2414 -0.0242 -0.0137
  593ERGO   ROH 9121  10.358  16.261   9.995  0.1633  0.0552 -0.1145
  593ERGO    R1 9122  10.355  16.468   9.802 -0.1795  0.0436 -0.1263
  593ERGO    R2 9123  10.529  16.474   9.588 -0.0425  0.4259 -0.0046
  593ERGO    R3 9124  10.300  16.494   9.443  0.0002 -0.1032 -0.1678
  593ERGO    R4 9125  10.510  16.594   9.265 -0.0880  0.4892  0.0209
  593ERGO    R5 9126  10.325  16.697   9.319 -0.4061  0.0189 -0.0762
  593ERGO    C1 9127  10.283  16.683   8.941 -0.0745  0.0294 -0.1175
  593ERGO    C2 9128  10.267  16.831   8.568  0.1732 -0.0079 -0.0255
  594ERGO   ROH 9129  18.324   0.810   9.413 -0.1248  0.1464 -0.0562
  594ERGO    R1 9130  18.332   0.861   9.135 -0.1027  0.2348 -0.0405
  594ERGO    R2 9131  18.313   1.115   9.029  0.1288  0.2939  0.0485
  594ERGO    R3 9132  18.546   1.047   8.906  0.0556  0.1132  0.0062
  594ERGO    R4 9133  18.394   1.192   8.702  0.1296  0.2377  0.0360
  594ERGO    R5 9134  18.481   0.994   8.682 -0.0281  0.1674  0.0163
  594ERGO    C1 9135  18.660   1.173   8.396  0.0612  0.0353 -0.0109
  594ERGO    C2 9136  18.807   1.123   8.149 -0.2062 -0.1024 -0.1493
  595ERGO   ROH 9137   0.964  17.672   9.515  0.0889 -0.1525  0.1824
  595ERGO    R1 9138   1.127  17.541   9.324 -0.1305 -0.2633  0.0638
  595ERGO    R2 9139   1.027  17.438   9.088 -0.3208  0.0703 -0.0181
  595ERGO    R3 9140   1.221  17.592   8.977 -0.0908 -0.1322  0.0960
  595ERGO    R4 9141   1.088  17.465   8.749 -0.1828  0.1395  0.0131
  595ERGO    R5 9142   1.302  17.464   8.792 -0.2023 -0.1513  0.0693
  595ERGO    C1 9143   1.306  17.626   8.447  0.1134 -0.0101  0.1385
  595ERGO    C2 9144   1.158  17.579   8.160  0.0637 -0.2217  0.0171
  596ERGO   ROH 9145  17.254  12.588   8.979  0.0243  0.0872 -0.0757
  596ERGO    R1 9146  17.159  12.561   8.714 -0.0064 -0.0981 -0.0485
  596ERGO    R2 9147  17.008  12.756   8.589 -0.2334 -0.2836 -0.0884
  596ERGO    R3 9148  17.200  12.737   8.398 -0.2470 -0.1579 -0.1130
  596ERGO    R4 9149  16.964  12.837   8.256 -0.2301 -0.0298 -0.0277
  596ERGO    R5 9150  17.083  12.663   8.203 -0.2546  0.0041 -0.1647
  596ERGO    C1 9151  17.119  12.867   7.883 -0.2410  0.2361 -0.0154
  596ERGO    C2 9152  16.986  13.036   7.711  0.0778 -0.3124  0.3621
  597ERGO   ROH 9153   6.510  12.148   9.777  0.0002 -0.1934 -0.1443
  597ERGO    R1 9154   6.578  12.237   9.518  0.1354  0.0117 -0.0411
  597ERGO    R2 9155   6.837  12.232   9.422  0.1249 -0.3254 -0.0589
  597ERGO    R3 9156   6.725  12.091   9.218 -0.1420  0.1174 -0.2339
  597ERGO    R4 9157   6.979  12.193   9.110  0.3280 -0.6367  0.0680
  597ERGO    R5 9158   6.781  12.218   9.022  0.4717  0.0500 -0.1266
  597ERGO    C1 9159   6.958  12.037   8.736  0.1958 -0.4023 -0.0224
  597ERGO    C2 9160   7.170  11.992   8.447  0.1477  0.0146  0.0162
  598ERGO   ROH 9161   8.535  12.963   9.111  0.0053  0.4069  0.0189
  598ERGO    R1 9162   8.746  13.027   8.933  0.0903  0.1875  0.0376
  598ERGO    R2 9163   8.957  12.855   8.885 -0.1192 -0.0633  0.0033
  598ERGO    R3 9164   8.883  12.889   8.626 -0.0700  0.0869  0.0086
  598ERGO    R4 9165   9.159  12.793   8.611 -0.0509  0.1140  0.0127
  598ERGO    R5 9166   9.079  12.973   8.518 -0.0480  0.1685  0.1023
  598ERGO    C1 9167   9.206  12.789   8.208  0.0350  0.3581  0.0232
  598ERGO    C2 9168   9.320  12.730   7.863 -0.1178  0.2090  0.4518
  599ERGO   ROH 9169   0.655  13.067   8.965  0.0773 -0.0667 -0.0462
  599ERGO    R1 9170   0.415  13.056   8.814  0.1337 -0.1558 -0.1264
  599ERGO    R2 9171   0.226  13.258   8.820  0.0254 -0.2696 -0.1250
  599ERGO    R3 9172   0.260  13.253   8.550  0.1034 -0.1660 -0.1202
  599ERGO    R4 9173   0.023  13.420   8.592  0.1895 -0.0211 -0.1006
  599ERGO    R5 9174   0.037  13.246   8.462  0.1127  0.0209 -0.1838
  599ERGO    C1 9175  -0.064  13.510   8.207  0.3582  0.2207 -0.0818
  599ERGO    C2 9176  -0.157  13.647   8.084 -0.0820 -0.1415 -0.3081
  600ERGO   ROH 9177   0.945   2.902   9.391  0.0691 -0.1696 -0.0385
  600ERGO    R1 9178   0.831   2.854   9.137  0.0921  0.0125 -0.0837
  600ERGO    R2 9179   0.942   2.953   8.903  0.2727 -0.0586 -0.0247
  600ERGO    R3 9180   0.934   2.692   8.828  0.0044 -0.0356 -0.0898
  600ERGO    R4 9181   0.907   2.843   8.578  0.4320  0.0749 -0.0886
  600ERGO    R5 9182   0.774   2.686   8.650  0.1542  0.2227 -0.2458
  600ERGO    C1 9183   0.880   2.533   8.317  0.2728  0.1743 -0.1869
  600ERGO    C2 9184   1.013   2.479   7.985 -0.3257  0.3665  0.2507
  601ERGO   ROH 9185   1.769   8.383   9.461  0.2303  0.1181 -0.1030
  601ERGO    R1 9186   1.822   8.380   9.183  0.0279 -0.0803 -0.1424
  601ERGO    R2 9187   1.668   8.238   9.003 -0.2889  0.0374  0.0350
  601ERGO    R3 9188   1.647   8.479   8.879 -0.0622  0.0084 -0.0643
  601ERGO    R4 9189   1.706   8.289   8.663 -0.1893 -0.1460  0.0175
  601ERGO    R5 9190   1.815   8.473   8.709 -0.0339 -0.2141 -0.0381
  601ERGO    C1 9191   1.709   8.546   8.350  0.0814 -0.2801 -0.0858
  601ERGO    C2 9192   1.673   8.322   8.164 -0.0311  0.0447  0.1499
  602ERGO   ROH 9193   3.778  14.444   9.685 -0.1305  0.2084  0.1039
  602ERGO    R1 9194   3.619  14.496   9.456 -0.1211  0.0144  0.0504
  602ERGO    R2 9195   3.665  14.711   9.289 -0.3154  0.0648  0.0503
  602ERGO    R3 9196   3.673  14.519   9.097 -0.0303  0.0567  0.0682
  602ERGO    R4 9197   3.591  14.763   8.955 -0.0930 -0.0238 -0.0139
  602ERGO    R5 9198   3.488  14.570   8.954  0.0474 -0.0921 -0.0812
  602ERGO    C1 9199   3.555  14.613   8.580  0.3041 -0.0830 -0.0345
  602ERGO    C2 9200   3.639  14.853   8.333  0.0358 -0.5324 -0.0845
  603ERGO   ROH 9201  13.416  13.050   9.811 -0.1797 -0.1326 -0.0274
  603ERGO    R1 9202  13.437  13.243   9.605 -0.0648 -0.0342  0.0751
  603ERGO    R2 9203  13.594  13.205   9.381 -0.0728 -0.0010  0.0671
  603ERGO    R3 9204  13.363  13.257   9.249 -0.0370  0.1942  0.0769
  603ERGO    R4 9205  13.575  13.338   9.063  0.0230  0.0488  0.0807
  603ERGO    R5 9206  13.407  13.461   9.130  0.1187  0.1741  0.0973
  603ERGO    C1 9207  13.346  13.465   8.753  0.1124  0.2612  0.0978
  603ERGO    C2 9208  13.522  13.456   8.419 -0.0072 -0.0939 -0.1298
  604ERGO   ROH 9209  10.220   5.805   9.330 -0.1372 -0.1679 -0.0284
  604ERGO    R1 9210  10.346   5.831   9.078 -0.1455 -0.0187 -0.0177
  604ERGO    R2 9211  10.389   5.615   8.911 -0.1052  0.0738 -0.1230
  604ERGO    R3 9212  10.256   5.769   8.730 -0.1356  0.1354 -0.0494
  604ERGO    R4 9213  10.365   5.546   8.573 -0.1856  0.1637 -0.1363
  604ERGO    R5 9214  10.392   5.759   8.533 -0.1776  0.1767 -0.0840
  604ERGO    C1 9215  10.226   5.651   8.207 -0.2609  0.2738 -0.0749
  604ERGO    C2 9216  10.051   5.387   7.856  0.4182 -0.0053 -0.0969
  605ERGO   ROH 9217   8.854  17.443   9.837 -0.1897 -0.0787 -0.0102
  605ERGO    R1 9218   8.699  17.502   9.607 -0.0908 -0.0511 -0.0702
  605ERGO    R2 9219   8.726  17.739   9.466  0.0096 -0.0590 -0.0628
  605ERGO    R3 9220   8.764  17.571   9.255  0.0560 -0.0681 -0.0478
  605ERGO    R4 9221   8.739  17.836   9.135  0.2187 -0.0525 -0.0538
  605ERGO    R5 9222   8.624  17.659   9.082  0.1778 -0.0090 -0.1187
  605ERGO    C1 9223   8.783  17.735   8.744  0.3842 -0.0570 -0.0345
  605ERGO    C2 9224   8.695  17.679   8.317  0.0068 -0.0339 -0.0984
  606ERGO   ROH 9225   1.261  12.030   9.157  0.1301  0.2607  0.0936
  606ERGO    R1 9226   1.193  12.063   8.884  0.0920  0.0712  0.0795
  606ERGO    R2 9227   1.155  12.312   8.769 -0.1455 -0.0171 -0.0331
  606ERGO    R3 9228   1.341  12.222   8.592 -0.0648  0.0779  0.0017
  606ERGO    R4 9229   1.183  12.418   8.441 -0.1308  0.0092 -0.0240
  606ERGO    R5 9230   1.225  12.212   8.383 -0.0192  0.0287 -0.0231
  606ERGO    C1 9231   1.375  12.395   8.085 -0.0466  0.1137  0.0141
  606ERGO    C2 9232   1.383  12.462   7.667  0.0191 -0.0251  0.1403
  607ERGO   ROH 9233   5.107  14.240   9.303 -0.1912  0.0064  0.0414
  607ERGO    R1 9234   5.088  14.056   9.088 -0.1243 -0.0864  0.1145
  607ERGO    R2 9235   4.871  14.048   8.917 -0.0318 -0.1031  0.0018
  607ERGO    R3 9236   5.062  14.076   8.726  0.0785 -0.2459  0.0879
  607ERGO    R4 9237   4.813  14.032   8.577  0.0561  0.1835 -0.0299
  607ERGO    R5 9238   4.999  13.920   8.556 -0.0829 -0.0625 -0.0298
  607ERGO    C1 9239   4.958  14.049   8.199  0.2108  0.2164  0.0326
  607ERGO    C2 9240   4.880  14.084   7.918  0.0355  0.2436  0.3888
  608ERGO   ROH 9241  15.570   1.306   9.702 -0.0069 -0.0298 -0.0363
  608ERGO    R1 9242  15.423   1.326   9.460  0.0280 -0.0335 -0.0583
  608ERGO    R2 9243  15.206   1.495   9.432 -0.0817 -0.1667 -0.0351
  608ERGO    R3 9244  15.347   1.587   9.219 -0.0981  0.0124  0.0303
  608ERGO    R4 9245  15.073   1.682   9.173 -0.1262 -0.0543  0.0684
  608ERGO    R5 9246  15.196   1.567   9.034 -0.0768  0.0729  0.0070
  608ERGO    C1 9247  15.128   1.877   8.822 -0.1675  0.1794  0.1901
  608ERGO    C2 9248  15.016   1.996   8.546  0.0637  0.0827 -0.2010
  609ERGO   ROH 9249  18.378   2.570   9.434 -0.0641  0.0663  0.1006
  609ERGO    R1 9250  18.519   2.525   9.192 -0.0707  0.1305  0.0846
  609ERGO    R2 9251  18.519   2.280   9.064  0.0757  0.1127  0.1179
  609ERGO    R3 9252  18.435   2.428   8.852 -0.0591  0.0281  0.1102
  609ERGO    R4 9253  18.510   2.170   8.736 -0.2227 -0.0508  0.1769
  609ERGO    R5 9254  18.582   2.365   8.673 -0.2209 -0.1004  0.0188
  609ERGO    C1 9255  18.427   2.244   8.347 -0.5230 -0.2255  0.2039
  609ERGO    C2 9256  18.337   2.123   8.146  0.0059  0.0272  0.2112
  610ERGO   ROH 9257   7.730   3.799   9.746 -0.0300 -0.1553 -0.0790
  610ERGO    R1 9258   7.705   3.785   9.464  0.0527 -0.2191 -0.0832
  610ERGO    R2 9259   7.843   3.952   9.294 -0.0673 -0.1075 -0.0708
  610ERGO    R3 9260   7.925   3.718   9.182  0.1881 -0.0456 -0.0204
  610ERGO    R4 9261   7.940   3.914   8.964 -0.2268 -0.1114 -0.1184
  610ERGO    R5 9262   7.834   3.723   8.961  0.0337 -0.2659  0.0335
  610ERGO    C1 9263   8.073   3.672   8.668 -0.0798 -0.0555 -0.0988
  610ERGO    C2 9264   7.922   3.534   8.292  0.0991  0.0440 -0.2808
  611ERGO   ROH 9265   2.056   1.946   9.409 -0.0402 -0.1135 -0.1388
  611ERGO    R1 9266   2.175   1.770   9.221 -0.1319 -0.0745 -0.2344
  611ERGO    R2 9267   2.150   1.805   8.948  0.0275  0.1859 -0.2202
  611ERGO    R3 9268   2.421   1.794   8.955  0.0171 -0.0926 -0.0990
  611ERGO    R4 9269   2.352   1.750   8.673  0.1029  0.1720 -0.1622
  611ERGO    R5 9270   2.478   1.623   8.798 -0.0828 -0.0422 -0.1894
  611ERGO    C1 9271   2.724   1.708   8.519  0.1371 -0.0976 -0.0146
  611ERGO    C2 9272   2.933   1.659   8.276  0.0450 -0.0849  0.2231
  612ERGO   ROH 9273   7.424   4.920   9.605 -0.1237 -0.0121  0.0871
  612ERGO    R1 9274   7.540   5.046   9.380  0.0507 -0.0989  0.1243
  612ERGO    R2 9275   7.739   4.929   9.229 -0.0590 -0.3032  0.1210
  612ERGO    R3 9276   7.568   4.978   9.024  0.0118 -0.0679  0.1175
  612ERGO    R4 9277   7.815   4.887   8.895 -0.0772 -0.2696  0.1141
  612ERGO    R5 9278   7.706   5.071   8.852  0.1138 -0.1531  0.1607
  612ERGO    C1 9279   7.698   4.909   8.507 -0.0214 -0.0292  0.1066
  612ERGO    C2 9280   7.788   4.958   8.179 -0.2082 -0.0013 -0.0952
  613ERGO   ROH 9281  17.951   9.195   9.085  0.0222 -0.1940  0.0225
  613ERGO    R1 9282  17.848   9.055   8.861 -0.0798 -0.1120  0.0185
  613ERGO    R2 9283  17.581   9.060   8.793 -0.0706  0.1027  0.0084
  613ERGO    R3 9284  17.678   9.140   8.551  0.0020  0.0238  0.0091
  613ERGO    R4 9285  17.402   9.054   8.497 -0.0668  0.2322  0.0013
  613ERGO    R5 9286  17.582   8.985   8.395 -0.1123  0.0897  0.0091
  613ERGO    C1 9287  17.388   9.126   8.099  0.0038  0.2336 -0.0021
  613ERGO    C2 9288  17.088   9.215   7.897  0.2858 -0.0588  0.0054
  614ERGO   ROH 9289   3.484  13.489   9.396  0.0494  0.2732  0.0777
  614ERGO    R1 9290   3.527  13.565   9.127  0.0991 -0.0722 -0.0160
  614ERGO    R2 9291   3.537  13.382   8.920 -0.4382 -0.2963  0.1457
  614ERGO    R3 9292   3.344  13.541   8.813 -0.1232  0.0704  0.0974
  614ERGO    R4 9293   3.503  13.453   8.583 -0.2710 -0.3149  0.1230
  614ERGO    R5 9294   3.455  13.658   8.636  0.1344 -0.1906  0.0709
  614ERGO    C1 9295   3.302  13.643   8.287  0.1221  0.0185  0.0645
  614ERGO    C2 9296   3.149  13.712   8.021  0.0592  0.1206  0.0162
  615ERGO   ROH 9297   8.308   9.421   9.629  0.0711  0.0188  0.1010
  615ERGO    R1 9298   8.165   9.460   9.387  0.0155 -0.0054  0.1298
  615ERGO    R2 9299   8.223   9.665   9.212 -0.1101  0.0558  0.1582
  615ERGO    R3 9300   8.243   9.462   9.032 -0.0389  0.0977  0.1187
  615ERGO    R4 9301   8.179   9.699   8.871 -0.2093  0.0870  0.1738
  615ERGO    R5 9302   8.072   9.509   8.871 -0.1025  0.0279  0.1669
  615ERGO    C1 9303   8.172   9.529   8.503 -0.2004  0.1444  0.1457
  615ERGO    C2 9304   8.287   9.741   8.249 -0.0530  0.2890 -0.1712
  616ERGO   ROH 9305  13.011  15.604  10.022  0.0965 -0.0707  0.0993
  616ERGO    R1 9306  12.890  15.680   9.777  0.0640  0.0376  0.1487
  616ERGO    R2 9307  13.012  15.640   9.532  0.0025  0.0852  0.1114
  616ERGO    R3 9308  12.779  15.512   9.474 -0.0421  0.1625  0.1173
  616ERGO    R4 9309  12.911  15.550   9.214  0.0471 -0.0341  0.1300
  616ERGO    R5 9310  12.708  15.611   9.267  0.0594  0.0892  0.0455
  616ERGO    C1 9311  12.634  15.378   8.974  0.0312 -0.0309  0.1466
  616ERGO    C2 9312  12.486  15.317   8.661  0.0223 -0.0759 -0.3079
  617ERGO   ROH 9313  13.623  11.111   9.834  0.0453  0.0241  0.1555
  617ERGO    R1 9314  13.646  11.267   9.600 -0.1109  0.0163  0.1328
  617ERGO    R2 9315  13.794  11.186   9.381  0.0412  0.1671  0.1741
  617ERGO    R3 9316  13.561  11.231   9.247  0.0041 -0.1584  0.1224
  617ERGO    R4 9317  13.761  11.182   9.037  0.1611  0.2869  0.1611
  617ERGO    R5 9318  13.628  11.355   9.053 -0.1403  0.0569  0.2082
  617ERGO    C1 9319  13.524  11.222   8.711  0.1960  0.0511  0.1050
  617ERGO    C2 9320  13.542  11.140   8.381  0.0843  0.1256  0.0854
  618ERGO   ROH 9321   8.929   4.543   9.702  0.0217  0.0258 -0.0259
  618ERGO    R1 9322   8.900   4.687   9.460  0.1152 -0.0062 -0.0582
  618ERGO    R2 9323   9.000   4.593   9.219  0.0797 -0.1141 -0.0436
  618ERGO    R3 9324   8.744   4.630   9.136  0.1006  0.0084 -0.0498
  618ERGO    R4 9325   8.888   4.548   8.895  0.0393 -0.0632 -0.0357
  618ERGO    R5 9326   8.764   4.725   8.918  0.1337 -0.0129 -0.0450
  618ERGO    C1 9327   8.582   4.555   8.629  0.0354  0.0815 -0.0369
  618ERGO    C2 9328   8.628   4.360   8.324  0.2377 -0.2261  0.0007
  619ERGO   ROH 9329   8.785  16.360   9.862 -0.0749  0.1274  0.0679
  619ERGO    R1 9330   8.704  16.488   9.623  0.0290  0.1826  0.0612
  619ERGO    R2 9331   8.873  16.649   9.476  0.1556  0.0571  0.0641
  619ERGO    R3 9332   8.804  16.482   9.273  0.0415  0.1012  0.0666
  619ERGO    R4 9333   8.928  16.712   9.140  0.2672 -0.0216  0.0671
  619ERGO    R5 9334   8.731  16.628   9.098  0.2004  0.1492  0.0414
  619ERGO    C1 9335   8.894  16.592   8.755  0.2250 -0.0261  0.0713
  619ERGO    C2 9336   8.815  16.549   8.480 -0.2161 -0.0164 -0.0784
  620ERGO   ROH 9337   6.187   9.792   9.739  0.0224 -0.0891 -0.0669
  620ERGO    R1 9338   6.165   9.960   9.512 -0.1305 -0.0762 -0.0443
  620ERGO    R2 9339   6.347   9.954   9.305 -0.0267  0.2364  0.0308
  620ERGO    R3 9340   6.126   9.915   9.153  0.0930 -0.0711 -0.0703
  620ERGO    R4 9341   6.336   9.989   8.961  0.0819  0.2092  0.0247
  620ERGO    R5 9342   6.140  10.083   8.983 -0.0589 -0.0556 -0.0674
  620ERGO    C1 9343   6.121   9.972   8.618  0.2575 -0.0953 -0.0738
  620ERGO    C2 9344   6.139  10.062   8.305  0.1269  0.1970  0.0462
  621ERGO   ROH 9345  17.582  11.022   9.201 -0.3173 -0.0003  0.0125
  621ERGO    R1 9346  17.626  11.058   8.924 -0.1208 -0.0613  0.0337
  621ERGO    R2 9347  17.634  10.847   8.746 -0.0955 -0.0959  0.0683
  621ERGO    R3 9348  17.444  10.991   8.616  0.0477 -0.0309 -0.0720
  621ERGO    R4 9349  17.539  10.795   8.418 -0.2760 -0.4325  0.1693
  621ERGO    R5 9350  17.528  11.012   8.393 -0.0019 -0.4544 -0.1341
  621ERGO    C1 9351  17.304  10.900   8.105 -0.2464 -0.5676  0.0966
  621ERGO    C2 9352  17.211  10.995   7.812 -0.1635 -0.0302  0.1237
  622ERGO   ROH 9353   0.113   0.782   9.477 -0.0678 -0.0240 -0.0234
  622ERGO    R1 9354   0.178   0.641   9.241 -0.1164 -0.1102  0.0139
  622ERGO    R2 9355  -0.008   0.587   9.043 -0.0981  0.0447 -0.0502
  622ERGO    R3 9356   0.175   0.708   8.883  0.0747 -0.1426  0.0073
  622ERGO    R4 9357  -0.013   0.580   8.698  0.0093  0.0582 -0.0522
  622ERGO    R5 9358   0.204   0.556   8.700 -0.0216 -0.1636  0.0156
  622ERGO    C1 9359   0.155   0.690   8.346  0.2341 -0.1097  0.0007
  622ERGO    C2 9360   0.198   0.563   7.966  0.0194 -0.0298 -0.0652
  623ERGO   ROH 9361   1.694  10.679   9.311 -0.1246 -0.2898 -0.1754
  623ERGO    R1 9362   1.728  10.843   9.083 -0.2806 -0.3931 -0.2738
  623ERGO    R2 9363   1.973  10.949   9.012 -0.4355  0.0583 -0.1464
  623ERGO    R3 9364   1.919  10.830   8.774  0.0063 -0.2436 -0.1099
  623ERGO    R4 9365   2.125  11.030   8.712 -0.2424  0.0486 -0.0547
  623ERGO    R5 9366   1.931  11.008   8.614 -0.1171 -0.3517 -0.2487
  623ERGO    C1 9367   2.162  10.964   8.313  0.2848 -0.2403  0.0328
  623ERGO    C2 9368   2.283  11.132   8.069 -0.3375 -0.2028 -0.1328
  624ERGO   ROH 9369   9.577   7.006   9.612 -0.0413  0.0480  0.1541
  624ERGO    R1 9370   9.628   7.043   9.336  0.0212 -0.0615  0.1500
  624ERGO    R2 9371   9.427   7.075   9.151  0.0641 -0.0620  0.1006
  624ERGO    R3 9372   9.564   7.301   9.088  0.1456 -0.1255  0.0506
  624ERGO    R4 9373   9.466   7.199   8.830 -0.0034 -0.0740  0.0879
  624ERGO    R5 9374   9.673   7.249   8.881  0.0393 -0.1719  0.0070
  624ERGO    C1 9375   9.618   7.483   8.585  0.0339 -0.1405  0.0335
  624ERGO    C2 9376   9.576   7.623   8.266  0.0746 -0.2199  0.1099
  625ERGO   ROH 9377  10.917  13.265  10.126 -0.0646  0.1261 -0.0012
  625ERGO    R1 9378  10.846  13.049   9.957  0.0277  0.1962 -0.1303
  625ERGO    R2 9379  10.586  12.959   9.932  0.0910 -0.0028 -0.0590
  625ERGO    R3 9380  10.631  13.000   9.667 -0.0859  0.2396 -0.0552
  625ERGO    R4 9381  10.397  12.823   9.676  0.0861 -0.0014 -0.0565
  625ERGO    R5 9382  10.582  12.789   9.565  0.0674  0.2608 -0.1820
  625ERGO    C1 9383  10.330  12.783   9.278 -0.0827  0.2268 -0.0515
  625ERGO    C2 9384  10.393  12.622   8.984 -0.2566  0.1770  0.2479
  626ERGO   ROH 9385   2.808   9.331   9.377  0.0245  0.2012 -0.0489
  626ERGO    R1 9386   2.729   9.239   9.121 -0.0336  0.0423  0.0259
  626ERGO    R2 9387   2.732   9.401   8.897 -0.1429 -0.0810 -0.0598
  626ERGO    R3 9388   2.886   9.202   8.794 -0.1290 -0.1002 -0.0059
  626ERGO    R4 9389   2.786   9.347   8.560 -0.1923 -0.2010 -0.0498
  626ERGO    R5 9390   2.769   9.133   8.597 -0.1556 -0.1938  0.0379
  626ERGO    C1 9391   2.961   9.127   8.267 -0.2081 -0.2890  0.0066
  626ERGO    C2 9392   3.117   8.977   8.026 -0.0487 -0.1391 -0.1512
  627ERGO   ROH 9393  16.326   0.745   9.941 -0.1892 -0.1421  0.0770
  627ERGO    R1 9394  16.460   0.671   9.703 -0.1392 -0.0802  0.0855
  627ERGO    R2 9395  16.355   0.490   9.522 -0.0886 -0.0560  0.0291
  627ERGO    R3 9396  16.397   0.693   9.346 -0.0791 -0.0149  0.0790
  627ERGO    R4 9397  16.409   0.450   9.183 -0.0216  0.0224  0.0307
  627ERGO    R5 9398  16.560   0.607   9.193 -0.0422  0.0366  0.0908
  627ERGO    C1 9399  16.480   0.617   8.820  0.0263  0.1067  0.0784
  627ERGO    C2 9400  16.427   0.703   8.455 -0.0912 -0.1898  0.0199
  628ERGO   ROH 9401  13.690   6.417   9.751  0.0035 -0.1012 -0.0273
  628ERGO    R1 9402  13.672   6.537   9.495  0.1798 -0.1832 -0.0802
  628ERGO    R2 9403  13.731   6.401   9.262 -0.0910 -0.4018 -0.0270
  628ERGO    R3 9404  13.482   6.481   9.190  0.0317  0.0084 -0.0255
  628ERGO    R4 9405  13.625   6.447   8.937 -0.0153 -0.2039 -0.0250
  628ERGO    R5 9406  13.517   6.625   9.002  0.2673 -0.0305 -0.0134
  628ERGO    C1 9407  13.329   6.549   8.679  0.1440  0.2965 -0.0225
  628ERGO    C2 9408  13.385   6.449   8.317  0.0141 -0.1191 -0.1682
  629ERGO   ROH 9409   8.518  12.052   9.590 -0.1045  0.2393 -0.1017
  629ERGO    R1 9410   8.542  11.923   9.339 -0.1475  0.1156 -0.0423
  629ERGO    R2 9411   8.382  11.988   9.123 -0.0861  0.1097 -0.0886
  629ERGO    R3 9412   8.621  12.020   8.998 -0.0530 -0.0792 -0.0779
  629ERGO    R4 9413   8.434  11.953   8.783 -0.0736 -0.0544 -0.0709
  629ERGO    R5 9414   8.622  11.853   8.827 -0.1348 -0.1489 -0.0127
  629ERGO    C1 9415   8.688  11.964   8.468 -0.0352 -0.3271 -0.0506
  629ERGO    C2 9416   8.790  12.058   8.223  0.0597  0.2202  0.1294
  630ERGO   ROH 9417   6.292   7.120   9.799  0.1602 -0.2057 -0.1496
  630ERGO    R1 9418   6.173   7.217   9.561  0.1545 -0.1177 -0.1110
  630ERGO    R2 9419   6.316   7.352   9.367  0.1647 -0.1125 -0.0977
  630ERGO    R3 9420   6.213   7.161   9.204  0.0899 -0.0452 -0.1302
  630ERGO    R4 9421   6.291   7.378   9.024  0.0563  0.0106 -0.0813
  630ERGO    R5 9422   6.095   7.284   9.035  0.0481  0.0279 -0.0499
  630ERGO    C1 9423   6.180   7.215   8.670 -0.0771  0.1453 -0.1024
  630ERGO    C2 9424   6.108   7.367   8.302 -0.0564  0.0948  0.1327
  631ERGO   ROH 9425   7.600  16.291   9.812 -0.1813 -0.1889 -0.0594
  631ERGO    R1 9426   7.604  16.363   9.539 -0.1364 -0.1113 -0.0387
  631ERGO    R2 9427   7.728  16.592   9.446  0.0049 -0.1603  0.0293
  631ERGO    R3 9428   7.858  16.418   9.283 -0.1010 -0.1927 -0.0220
  631ERGO    R4 9429   7.751  16.624   9.103  0.1724  0.0287  0.0564
  631ERGO    R5 9430   7.722  16.408   9.087 -0.0357  0.0631 -0.0854
  631ERGO    C1 9431   7.887  16.479   8.750  0.1705  0.1084  0.0240
  631ERGO    C2 9432   8.007  16.534   8.461 -0.0194 -0.1209  0.0080
  632ERGO   ROH 9433   7.492   0.854   9.702  0.0627 -0.0446 -0.1257
  632ERGO    R1 9434   7.688   0.864   9.498  0.1714 -0.1926 -0.0290
  632ERGO    R2 9435   7.775   0.638   9.364 -0.1771 -0.2221 -0.2107
  632ERGO    R3 9436   7.706   0.782   9.144  0.1740  0.1262 -0.1067
  632ERGO    R4 9437   7.886   0.573   9.044 -0.5419 -0.4470 -0.2981
  632ERGO    R5 9438   7.906   0.788   9.012  0.1520 -0.4710 -0.1992
  632ERGO    C1 9439   7.886   0.669   8.650 -0.4247 -0.2510 -0.2512
  632ERGO    C2 9440   7.871   0.400   8.346 -0.0165  0.1739 -0.1748
  633ERGO   ROH 9441  18.252   6.392   8.955 -0.2267  0.3273 -0.0979
  633ERGO    R1 9442  18.137   6.392   8.696 -0.1641  0.2389 -0.1277
  633ERGO    R2 9443  18.064   6.625   8.566 -0.2180  0.1937 -0.1919
  633ERGO    R3 9444  18.224   6.527   8.369 -0.1297  0.2121 -0.1282
  633ERGO    R4 9445  18.022   6.687   8.228 -0.2546 -0.0417 -0.2310
  633ERGO    R5 9446  18.073   6.479   8.189 -0.0793 -0.0196 -0.1070
  633ERGO    C1 9447  18.148   6.632   7.847 -0.1933 -0.1613 -0.1941
  633ERGO    C2 9448  17.921   6.829   7.630 -0.0188  0.0373 -0.1100
  634ERGO   ROH 9449  11.777  14.476   9.592 -0.1017  0.1285 -0.3389
  634ERGO    R1 9450  11.895  14.278   9.427 -0.1875 -0.0039 -0.2431
  634ERGO    R2 9451  11.746  14.097   9.282 -0.2730  0.1575 -0.3530
  634ERGO    R3 9452  11.893  14.193   9.074 -0.0052 -0.0072 -0.2456
  634ERGO    R4 9453  11.799  13.930   8.984 -0.5211  0.2206 -0.4355
  634ERGO    R5 9454  12.006  14.000   8.987 -0.3662 -0.1965 -0.3216
  634ERGO    C1 9455  11.968  13.922   8.616 -0.4142  0.1027 -0.3828
  634ERGO    C2 9456  11.866  13.794   8.399  0.1724  0.1010 -0.0693
  635ERGO   ROH 9457  17.312   0.109   9.511  0.0714 -0.1111  0.0121
  635ERGO    R1 9458  17.415   0.261   9.295  0.0409 -0.0305  0.0535
  635ERGO    R2 9459  17.609   0.164   9.124  0.0563  0.0525  0.0202
  635ERGO    R3 9460  17.427   0.231   8.933  0.0395  0.0749  0.0448
  635ERGO    R4 9461  17.687   0.255   8.800  0.0226  0.0525  0.0126
  635ERGO    R5 9462  17.532   0.408   8.810  0.0400  0.0665  0.0355
  635ERGO    C1 9463  17.562   0.371   8.432 -0.0129  0.0735  0.0311
  635ERGO    C2 9464  17.500   0.363   8.193 -0.1811 -0.1484  0.0644
  636ERGO   ROH 9465  11.910  12.117   9.912 -0.1299 -0.1025  0.0017
  636ERGO    R1 9466  11.949  12.011   9.652 -0.0717 -0.1035  0.0103
  636ERGO    R2 9467  11.772  12.056   9.445 -0.0271 -0.1038 -0.0319
  636ERGO    R3 9468  11.995  12.144   9.317  0.0029 -0.1027  0.0216
  636ERGO    R4 9469  11.801  12.093   9.102  0.0092  0.0457 -0.0130
  636ERGO    R5 9470  12.004  12.014   9.116 -0.0151 -0.0111 -0.0364
  636ERGO    C1 9471  12.027  12.198   8.783  0.0585  0.1338  0.0482
  636ERGO    C2 9472  12.120  12.163   8.466  0.0148  0.0965 -0.1129
  637ERGO   ROH 9473   2.826   9.847   9.479  0.2805  0.4065  0.0829
  637ERGO    R1 9474   2.848   9.738   9.219 -0.0414  0.2775  0.1055
  637ERGO    R2 9475   2.739   9.861   8.997  0.1150  0.4350  0.1162
  637ERGO    R3 9476   2.992   9.841   8.901  0.0473 -0.1087  0.0152
  637ERGO    R4 9477   2.832   9.929   8.671  0.1548  0.3973  0.1190
  637ERGO    R5 9478   2.965   9.756   8.679 -0.2386  0.0704 -0.0248
  637ERGO    C1 9479   3.125   9.950   8.392  0.1145 -0.1351  0.0260
  637ERGO    C2 9480   3.143   9.938   8.013  0.1838 -0.2246  0.1426
  638ERGO   ROH 9481  18.300  17.707   9.708 -0.0012  0.0563  0.0039
  638ERGO    R1 9482  18.190  17.709   9.447  0.0393 -0.1380 -0.0147
  638ERGO    R2 9483  18.230  17.918   9.271 -0.2287 -0.1059 -0.0332
  638ERGO    R3 9484  18.318  17.720   9.107  0.0823 -0.0041  0.0034
  638ERGO    R4 9485  18.308  17.958   8.936 -0.3446 -0.0445 -0.0542
  638ERGO    R5 9486  18.214  17.766   8.896 -0.0335 -0.2228  0.0050
  638ERGO    C1 9487  18.437  17.796   8.588 -0.1201  0.0868 -0.0322
  638ERGO    C2 9488  18.620  17.798   8.364 -0.0819  0.1624  0.0257
  639ERGO   ROH 9489  11.513  18.572  10.031 -0.0051  0.0437  0.0376
  639ERGO    R1 9490  11.446  18.747   9.818  0.0364  0.0736  0.0487
  639ERGO    R2 9491  11.583  18.750   9.578  0.0641  0.0858  0.0635
  639ERGO    R3 9492  11.334  18.714   9.474  0.0720  0.1213  0.0329
  639ERGO    R4 9493  11.494  18.815   9.250  0.1091  0.1093  0.0562
  639ERGO    R5 9494  11.306  18.897   9.322  0.1119  0.1298  0.0369
  639ERGO    C1 9495  11.210  18.820   8.962  0.1427  0.1563  0.0231
  639ERGO    C2 9496  11.160  18.828   8.657  0.0544  0.1460 -0.0134
  640ERGO   ROH 9497   8.261   3.852   9.799 -0.1025  0.2178  0.0002
  640ERGO    R1 9498   8.188   3.759   9.541 -0.1389  0.1031  0.0527
  640ERGO    R2 9499   8.290   3.869   9.309 -0.2452  0.0597 -0.0076
  640ERGO    R3 9500   8.359   3.612   9.255 -0.1661  0.0664  0.0529
  640ERGO    R4 9501   8.414   3.757   9.007 -0.1316  0.0529  0.0397
  640ERGO    R5 9502   8.291   3.579   9.028 -0.0981  0.0202  0.0335
  640ERGO    C1 9503   8.550   3.450   8.780  0.0087  0.0551  0.1241
  640ERGO    C2 9504   8.677   3.482   8.395  0.1318 -0.1061 -0.0278
  641ERGO   ROH 9505   2.717  14.772   9.328 -0.1348 -0.0952  0.1002
  641ERGO    R1 9506   2.560  14.728   9.097 -0.1621  0.0295  0.0952
  641ERGO    R2 9507   2.468  14.478   9.024  0.0002  0.0379 -0.1355
  641ERGO    R3 9508   2.226  14.602   9.023 -0.0927 -0.1344  0.0510
  641ERGO    R4 9509   2.186  14.357   8.866  0.0878  0.0438 -0.2991
  641ERGO    R5 9510   2.140  14.561   8.803 -0.0653  0.1086 -0.0117
  641ERGO    C1 9511   1.794  14.402   8.773  0.0516 -0.1147 -0.2192
  641ERGO    C2 9512   1.658  14.226   8.555 -0.2486 -0.1976 -0.1932
  642ERGO   ROH 9513   0.652  15.218   9.514 -0.0496  0.0088  0.0373
  642ERGO    R1 9514   0.638  15.235   9.232 -0.0372  0.1023  0.0426
  642ERGO    R2 9515   0.660  15.473   9.096  0.1207  0.1264  0.1166
  642ERGO    R3 9516   0.857  15.342   8.961  0.0351  0.0384  0.0742
  642ERGO    R4 9517   0.768  15.553   8.777  0.0872  0.0851  0.0940
  642ERGO    R5 9518   0.781  15.339   8.734 -0.0176  0.0757  0.0883
  642ERGO    C1 9519   1.015  15.476   8.465 -0.0126 -0.0217  0.0410
  642ERGO    C2 9520   1.007  15.811   8.243 -0.0902 -0.0475 -0.0467
  643ERGO   ROH 9521  12.048  10.441   9.693 -0.1467 -0.0011  0.0524
  643ERGO    R1 9522  12.212  10.425   9.463 -0.0617  0.1845  0.0988
  643ERGO    R2 9523  12.178  10.231   9.269  0.2746  0.0831  0.1393
  643ERGO    R3 9524  12.165  10.446   9.103 -0.0008  0.0250  0.0798
  643ERGO    R4 9525  12.156  10.214   8.924  0.3090 -0.0472  0.1427
  643ERGO    R5 9526  12.294  10.382   8.912  0.0947  0.1360  0.1025
  643ERGO    C1 9527  12.131  10.406   8.568  0.0704 -0.1775  0.0887
  643ERGO    C2 9528  12.050  10.322   8.286 -0.1588 -0.1422  0.0463
  644ERGO   ROH 9529  17.191  14.659   9.591  0.2390  0.0593 -0.0421
  644ERGO    R1 9530  17.099  14.454   9.419  0.3914 -0.0064 -0.0455
  644ERGO    R2 9531  16.865  14.475   9.274  0.2463 -0.2784  0.1464
  644ERGO    R3 9532  17.028  14.419   9.064  0.1628  0.0272 -0.0051
  644ERGO    R4 9533  16.760  14.351   8.968  0.1635 -0.2298  0.1546
  644ERGO    R5 9534  16.935  14.222   8.966  0.3170 -0.0301 -0.0439
  644ERGO    C1 9535  16.852  14.228   8.593  0.0368  0.0854  0.0172
  644ERGO    C2 9536  16.706  14.024   8.363  0.1083 -0.1303 -0.0623
  645ERGO   ROH 9537   1.489  18.366   9.497  0.2353 -0.1944 -0.1054
  645ERGO    R1 9538   1.386  18.469   9.254  0.1083 -0.0700 -0.0021
  645ERGO    R2 9539   1.515  18.667   9.110  0.0004  0.0589  0.0617
  645ERGO    R3 9540   1.496  18.487   8.907 -0.0330  0.1710 -0.0344
  645ERGO    R4 9541   1.540  18.743   8.773 -0.1511  0.2433  0.0909
  645ERGO    R5 9542   1.378  18.603   8.734 -0.1251  0.2312  0.0756
  645ERGO    C1 9543   1.536  18.617   8.388 -0.2707  0.4559  0.0178
  645ERGO    C2 9544   1.733  18.691   8.103  0.2749 -0.2485  0.0170
  646ERGO   ROH 9545   3.755   9.621   9.576 -0.0084  0.1422 -0.0765
  646ERGO    R1 9546   3.799   9.638   9.297  0.0209  0.0620 -0.0772
  646ERGO    R2 9547   3.882   9.871   9.173  0.0241  0.0307 -0.1380
  646ERGO    R3 9548   4.080   9.710   9.078  0.0414  0.0105 -0.0673
  646ERGO    R4 9549   3.986   9.859   8.844  0.1093 -0.0185 -0.1097
  646ERGO    R5 9550   4.002   9.643   8.861  0.0957 -0.0149 -0.0774
  646ERGO    C1 9551   4.231   9.702   8.562  0.1751 -0.0664 -0.0267
  646ERGO    C2 9552   4.494   9.722   8.288 -0.2450 -0.1375  0.4113
  647ERGO   ROH 9553  15.497  13.463   9.417  0.0585  0.4181  0.1525
  647ERGO    R1 9554  15.422  13.579   9.170  0.2423  0.3930  0.0838
  647ERGO    R2 9555  15.607  13.660   8.981  0.3777 -0.0251  0.0266
  647ERGO    R3 9556  15.463  13.498   8.818  0.1042  0.1068  0.1309
  647ERGO    R4 9557  15.544  13.721   8.647  0.2395 -0.0029  0.0558
  647ERGO    R5 9558  15.341  13.648   8.677  0.1780  0.2172  0.1861
  647ERGO    C1 9559  15.372  13.605   8.299 -0.0976  0.1339  0.1708
  647ERGO    C2 9560  15.482  13.660   7.923  0.0858  0.1760  0.1964
  648ERGO   ROH 9561   9.242  15.122   9.565 -0.0159 -0.0895 -0.2119
  648ERGO    R1 9562   9.330  15.103   9.297 -0.2234  0.0158 -0.2913
  648ERGO    R2 9563   9.188  15.210   9.084 -0.2277  0.3961 -0.1111
  648ERGO    R3 9564   9.424  15.335   9.032 -0.0876  0.1195 -0.1524
  648ERGO    R4 9565   9.303  15.293   8.769 -0.1215  0.1605 -0.1351
  648ERGO    R5 9566   9.503  15.232   8.831 -0.1916 -0.0357 -0.1113
  648ERGO    C1 9567   9.591  15.458   8.537  0.0718 -0.2363 -0.1879
  648ERGO    C2 9568   9.530  15.580   8.331  0.1779  0.1407  0.3131
  649ERGO   ROH 9569  10.718  14.829   9.711 -0.0642 -0.0705  0.0426
  649ERGO    R1 9570  10.875  14.897   9.486 -0.1414  0.0597  0.0288
  649ERGO    R2 9571  10.981  14.707   9.315  0.0381  0.1467  0.0529
  649ERGO    R3 9572  10.854  14.854   9.125 -0.1108 -0.0031  0.0322
  649ERGO    R4 9573  11.047  14.690   8.976  0.1175  0.2121  0.0636
  649ERGO    R5 9574  11.026  14.907   8.967 -0.1389  0.1971  0.0583
  649ERGO    C1 9575  10.967  14.818   8.601  0.0241  0.1096  0.0504
  649ERGO    C2 9576  10.860  14.662   8.248 -0.0172 -0.1149  0.1955
  650ERGO   ROH 9577   5.349   4.025   9.520  0.2691  0.0858 -0.1211
  650ERGO    R1 9578   5.211   3.885   9.317 -0.0326  0.1310  0.0483
  650ERGO    R2 9579   5.041   4.010   9.139  0.1818  0.2735 -0.0483
  650ERGO    R3 9580   5.199   3.890   8.953 -0.0761 -0.2321  0.0378
  650ERGO    R4 9581   4.982   4.010   8.798  0.3451  0.4791 -0.0796
  650ERGO    R5 9582   5.046   3.802   8.791 -0.2949  0.2459 -0.0437
  650ERGO    C1 9583   5.096   3.898   8.426  0.1981  0.1241 -0.0168
  650ERGO    C2 9584   5.046   4.013   8.079  0.0550  0.0634  0.1433
  651ERGO   ROH 9585   0.370   0.278   9.565 -0.1131 -0.1568  0.0115
  651ERGO    R1 9586   0.336   0.123   9.331 -0.2518 -0.1329  0.0148
  651ERGO    R2 9587   0.131   0.168   9.152 -0.1644  0.1025 -0.0318
  651ERGO    R3 9588   0.335   0.182   8.972 -0.1059 -0.1528  0.0109
  651ERGO    R4 9589   0.095   0.146   8.809 -0.1203  0.1650 -0.0404
  651ERGO    R5 9590   0.276   0.025   8.802 -0.2738 -0.0698 -0.0077
  651ERGO    C1 9591   0.265   0.147   8.441 -0.0397 -0.0383 -0.0052
  651ERGO    C2 9592   0.223   0.019   8.130 -0.0027  0.1007  0.1733
  652ERGO   ROH 9593   2.103  11.356   9.249  0.2083 -0.2505  0.0489
  652ERGO    R1 9594   2.138  11.522   9.023 -0.1038 -0.1579  0.0649
  652ERGO    R2 9595   2.259  11.434   8.791 -0.0331  0.0622  0.0226
  652ERGO    R3 9596   2.030  11.522   8.675 -0.1997 -0.2617  0.0923
  652ERGO    R4 9597   2.192  11.423   8.452  0.0361  0.2633  0.0001
  652ERGO    R5 9598   2.101  11.620   8.469 -0.3530  0.0869  0.1915
  652ERGO    C1 9599   1.937  11.499   8.146 -0.0799  0.0763  0.0525
  652ERGO    C2 9600   1.777  11.571   7.919  0.0144  0.2489  0.2226
  653ERGO   ROH 9601   8.320  15.088   9.596  0.2561 -0.0516 -0.0809
  653ERGO    R1 9602   8.226  15.119   9.331  0.0584 -0.2913 -0.0424
  653ERGO    R2 9603   8.341  15.295   9.150 -0.3504 -0.1208 -0.1525
  653ERGO    R3 9604   8.359  15.073   8.995 -0.0260 -0.1361 -0.0978
  653ERGO    R4 9605   8.300  15.290   8.807 -0.1964 -0.2470 -0.1693
  653ERGO    R5 9606   8.191  15.103   8.828  0.0109 -0.3697 -0.1779
  653ERGO    C1 9607   8.294  15.078   8.462  0.1978 -0.3348 -0.1277
  653ERGO    C2 9608   8.429  15.184   8.087  0.1936 -0.0208 -0.0516
  654ERGO   ROH 9609   0.495   6.507   8.895  0.0044 -0.0314 -0.0613
  654ERGO    R1 9610   0.538   6.468   8.618  0.1183  0.0091 -0.0500
  654ERGO    R2 9611   0.354   6.545   8.426  0.1374 -0.0817 -0.1071
  654ERGO    R3 9612   0.567   6.679   8.323  0.0982  0.0440 -0.0269
  654ERGO    R4 9613   0.373   6.668   8.104  0.1848 -0.0671 -0.0986
  654ERGO    R5 9614   0.581   6.603   8.096  0.2260  0.0543 -0.0230
  654ERGO    C1 9615   0.584   6.865   7.819  0.1755  0.0593 -0.0184
  654ERGO    C2 9616   0.515   7.091   7.632 -0.3584 -0.2655 -0.0166
  655ERGO   ROH 9617   6.307   5.060   9.506 -0.0290 -0.0904 -0.0797
  655ERGO    R1 9618   6.321   4.900   9.273  0.1733 -0.0321 -0.1099
  655ERGO    R2 9619   6.124   4.902   9.079  0.0940 -0.3525 -0.0404
  655ERGO    R3 9620   6.332   4.957   8.913 -0.0573  0.0492 -0.1055
  655ERGO    R4 9621   6.137   4.821   8.743  0.1242 -0.2832 -0.0553
  655ERGO    R5 9622   6.347   4.767   8.769  0.2370  0.0898 -0.1356
  655ERGO    C1 9623   6.340   4.826   8.392 -0.0002  0.1343 -0.1251
  655ERGO    C2 9624   6.337   4.950   8.147 -0.1460 -0.2257  0.0740
  656ERGO   ROH 9625   2.192   1.504   9.674 -0.1544 -0.0061 -0.1427
  656ERGO    R1 9626   2.418   1.547   9.509 -0.1011 -0.0663 -0.0861
  656ERGO    R2 9627   2.596   1.345   9.446 -0.1138 -0.1043 -0.0052
  656ERGO    R3 9628   2.541   1.420   9.191 -0.0316 -0.1346 -0.0321
  656ERGO    R4 9629   2.792   1.270   9.171 -0.0653 -0.1995  0.0551
  656ERGO    R5 9630   2.755   1.471   9.096  0.0036 -0.2042  0.0112
  656ERGO    C1 9631   2.854   1.295   8.772  0.0400 -0.2834  0.0649
  656ERGO    C2 9632   2.920   1.143   8.353 -0.0809 -0.1075 -0.1718
  657ERGO   ROH 9633   3.940   3.963   9.286  0.2035  0.2069  0.0253
  657ERGO    R1 9634   3.895   3.848   9.031  0.0814  0.1757  0.0615
  657ERGO    R2 9635   3.962   3.976   8.796  0.0582  0.1034  0.0202
  657ERGO    R3 9636   4.098   3.746   8.747 -0.0462  0.0410  0.0156
  657ERGO    R4 9637   4.030   3.851   8.482  0.3278  0.2866  0.0016
  657ERGO    R5 9638   3.987   3.651   8.557  0.0968  0.2561 -0.1859
  657ERGO    C1 9639   4.198   3.561   8.252  0.3868  0.3348 -0.0134
  657ERGO    C2 9640   4.371   3.319   7.966 -0.0435  0.0741  0.2414
  658ERGO   ROH 9641  13.775   1.664  10.107  0.2272 -0.0826  0.0085
  658ERGO    R1 9642  13.676   1.762   9.860  0.0022 -0.1386  0.0738
  658ERGO    R2 9643  13.827   1.921   9.691 -0.2717  0.1262  0.0638
  658ERGO    R3 9644  13.764   1.730   9.509 -0.0765  0.0909  0.0323
  658ERGO    R4 9645  13.802   1.973   9.350 -0.1675  0.1134  0.0545
  658ERGO    R5 9646  13.628   1.843   9.348 -0.0822  0.0045 -0.0205
  658ERGO    C1 9647  13.729   1.824   8.981  0.0765  0.0728  0.0195
  658ERGO    C2 9648  13.649   1.849   8.628 -0.0636  0.0020 -0.2159
  659ERGO   ROH 9649   2.405  12.244   9.463  0.2524  0.0996  0.0846
  659ERGO    R1 9650   2.429  12.139   9.202  0.1846  0.0710  0.0896
  659ERGO    R2 9651   2.234  11.981   9.086  0.1471  0.0731  0.1510
  659ERGO    R3 9652   2.247  12.167   8.888  0.1142  0.0511  0.1280
  659ERGO    R4 9653   2.237  11.910   8.747  0.1372  0.0297  0.1601
  659ERGO    R5 9654   2.386  12.067   8.721  0.1181  0.0456  0.1331
  659ERGO    C1 9655   2.251  12.044   8.365  0.1006 -0.0162  0.1436
  659ERGO    C2 9656   2.117  12.045   8.108 -0.1672  0.1803  0.4218
  660ERGO   ROH 9657  11.758   5.415   9.553  0.0413 -0.0517  0.0059
  660ERGO    R1 9658  11.821   5.502   9.291 -0.2470 -0.0042 -0.0481
  660ERGO    R2 9659  12.048   5.419   9.156 -0.1588  0.3802 -0.1273
  660ERGO    R3 9660  11.868   5.347   8.965 -0.1168 -0.0040 -0.0334
  660ERGO    R4 9661  12.126   5.346   8.827 -0.1312  0.3054 -0.1062
  660ERGO    R5 9662  11.946   5.453   8.766 -0.3236  0.0090 -0.1208
  660ERGO    C1 9663  12.003   5.237   8.457 -0.0757 -0.0990 -0.0057
  660ERGO    C2 9664  11.867   5.245   8.127 -0.3278  0.2417  0.0898
  661ERGO   ROH 9665   9.705  15.434   9.712 -0.1747  0.0187  0.0646
  661ERGO    R1 9666   9.631  15.539   9.460 -0.0614 -0.0865 -0.0144
  661ERGO    R2 9667   9.704  15.793   9.378 -0.1884 -0.0443 -0.0080
  661ERGO    R3 9668   9.804  15.660   9.164  0.0795 -0.0160  0.0963
  661ERGO    R4 9669   9.744  15.929   9.063  0.0597 -0.0562  0.0171
  661ERGO    R5 9670   9.675  15.740   8.978  0.2257 -0.0902 -0.0364
  661ERGO    C1 9671   9.862  15.883   8.678  0.4556 -0.0364  0.1298
  661ERGO    C2 9672   9.648  16.063   8.413 -0.0683 -0.1225  0.1819
  662ERGO   ROH 9673   4.149  11.867   9.393 -0.0266  0.0362  0.0442
  662ERGO    R1 9674   4.118  12.077   9.205  0.0589  0.0957  0.0954
  662ERGO    R2 9675   4.319  12.150   9.029  0.0932  0.0626  0.1161
  662ERGO    R3 9676   4.124  12.111   8.843  0.0801  0.1814  0.1045
  662ERGO    R4 9677   4.317  12.289   8.712  0.1357  0.1457  0.1521
  662ERGO    R5 9678   4.103  12.323   8.734  0.1513  0.2143  0.1600
  662ERGO    C1 9679   4.133  12.333   8.354  0.1480  0.3056  0.1623
  662ERGO    C2 9680   4.236  12.330   8.100  0.0680  0.4277 -0.1224
  663ERGO   ROH 9681  18.518  16.746   9.558  0.0630  0.0207 -0.0133
  663ERGO    R1 9682  18.517  16.877   9.307  0.1139  0.0093 -0.0201
  663ERGO    R2 9683  18.748  16.925   9.163  0.1341 -0.0976 -0.0302
  663ERGO    R3 9684  18.613  16.795   8.966  0.0710 -0.0515 -0.0167
  663ERGO    R4 9685  18.854  16.897   8.835 -0.0232  0.0532 -0.0945
  663ERGO    R5 9686  18.648  16.929   8.771 -0.0578  0.0293  0.0182
  663ERGO    C1 9687  18.788  16.760   8.459 -0.1740  0.1845 -0.1192
  663ERGO    C2 9688  18.892  16.731   8.184  0.1093  0.0286  0.1868
  664ERGO   ROH 9689   2.841   2.318   9.653  0.0496 -0.1355 -0.1362
  664ERGO    R1 9690   2.864   2.480   9.422 -0.3855 -0.0279 -0.1135
  664ERGO    R2 9691   3.089   2.479   9.262 -0.2370  0.8025  0.0406
  664ERGO    R3 9692   2.908   2.427   9.065  0.0668  0.1278 -0.0863
  664ERGO    R4 9693   3.118   2.584   8.934 -0.3319  0.7916  0.0288
  664ERGO    R5 9694   2.904   2.627   8.933 -0.4972  0.0873 -0.1527
  664ERGO    C1 9695   2.966   2.596   8.558 -0.1020  0.1519 -0.0973
  664ERGO    C2 9696   2.900   2.629   8.157 -0.0645  0.0478  0.0963
  665ERGO   ROH 9697   3.600   5.250   9.460  0.0573 -0.0771  0.0434
  665ERGO    R1 9698   3.511   5.278   9.193  0.0582 -0.0262  0.0483
  665ERGO    R2 9699   3.645   5.433   9.007  0.0480  0.0253  0.0832
  665ERGO    R3 9700   3.642   5.204   8.861  0.0686  0.0564  0.0341
  665ERGO    R4 9701   3.703   5.417   8.667 -0.0461  0.1135  0.0623
  665ERGO    R5 9702   3.543   5.268   8.652 -0.0091  0.0734  0.0768
  665ERGO    C1 9703   3.734   5.192   8.331 -0.0815  0.1940  0.0042
  665ERGO    C2 9704   3.855   5.240   7.953 -0.3240 -0.0638 -0.0798
  666ERGO   ROH 9705   9.767  17.164   9.868 -0.2889  0.0547  0.0005
  666ERGO    R1 9706   9.906  17.118   9.625 -0.2162  0.1195  0.0298
  666ERGO    R2 9707   9.881  16.883   9.482 -0.0363  0.0882  0.0515
  666ERGO    R3 9708   9.817  17.052   9.279 -0.1115  0.0231  0.0202
  666ERGO    R4 9709   9.875  16.797   9.147 -0.0605  0.0039  0.0732
  666ERGO    R5 9710   9.964  16.991   9.101 -0.1186  0.0189  0.0139
  666ERGO    C1 9711   9.811  16.906   8.762 -0.1451 -0.1064  0.0563
  666ERGO    C2 9712   9.705  16.984   8.360  0.0264 -0.0487  0.0079
  667ERGO   ROH 9713   6.778   1.641   9.827 -0.1951  0.0278 -0.1583
  667ERGO    R1 9714   6.955   1.625   9.607 -0.1574 -0.0592 -0.1234
  667ERGO    R2 9715   6.942   1.421   9.420 -0.2180 -0.0577 -0.1285
  667ERGO    R3 9716   6.927   1.628   9.244 -0.0864 -0.0476 -0.1276
  667ERGO    R4 9717   7.065   1.416   9.097  0.0440 -0.0200 -0.0314
  667ERGO    R5 9718   7.134   1.620   9.125  0.0079 -0.0225  0.0389
  667ERGO    C1 9719   7.121   1.606   8.744  0.3202  0.0114  0.0260
  667ERGO    C2 9720   7.151   1.366   8.497 -0.0775  0.0634 -0.1860
  668ERGO   ROH 9721   4.868   5.425   9.441 -0.3778 -0.1209  0.1196
  668ERGO    R1 9722   4.756   5.470   9.185 -0.2914 -0.1250  0.0811
  668ERGO    R2 9723   4.911   5.504   8.958 -0.2112  0.0394  0.1620
  668ERGO    R3 9724   4.757   5.301   8.863 -0.0349 -0.0357  0.0324
  668ERGO    R4 9725   4.893   5.408   8.627 -0.0336  0.1629  0.1152
  668ERGO    R5 9726   4.679   5.380   8.651 -0.0252 -0.0036  0.0380
  668ERGO    C1 9727   4.739   5.162   8.344  0.2354  0.1644 -0.0338
  668ERGO    C2 9728   4.851   4.868   8.151 -0.2526  0.0261  0.1729
  669ERGO   ROH 9729   7.725   7.138   9.651 -0.3162 -0.0339 -0.0841
  669ERGO    R1 9730   7.775   7.136   9.372 -0.2187  0.0507 -0.0683
  669ERGO    R2 9731   7.849   6.908   9.235  0.0538  0.1365 -0.0757
  669ERGO    R3 9732   7.635   6.971   9.079  0.0414 -0.0518 -0.1372
  669ERGO    R4 9733   7.860   6.948   8.892  0.0712 -0.0504 -0.0974
  669ERGO    R5 9734   7.725   7.118   8.912 -0.0110 -0.1032 -0.2092
  669ERGO    C1 9735   7.666   7.030   8.546  0.0697 -0.3359 -0.1677
  669ERGO    C2 9736   7.426   6.930   8.291  0.0882  0.0765 -0.2000
  670ERGO   ROH 9737  13.540  17.005   9.646  0.1873 -0.0938  0.0553
  670ERGO    R1 9738  13.508  16.895   9.387  0.1938  0.0037  0.0116
  670ERGO    R2 9739  13.286  16.946   9.230  0.0874 -0.1132  0.1135
  670ERGO    R3 9740  13.473  17.022   9.048 -0.0387  0.1446  0.0874
  670ERGO    R4 9741  13.246  16.930   8.887 -0.0051  0.0391  0.1166
  670ERGO    R5 9742  13.452  16.862   8.871  0.0443  0.2256  0.0089
  670ERGO    C1 9743  13.398  16.991   8.517 -0.1774  0.3698  0.0939
  670ERGO    C2 9744  13.459  17.024   8.098  0.0079  0.0537 -0.2788
  671ERGO   ROH 9745  16.287  12.295   9.221 -0.1161 -0.1296 -0.0579
  671ERGO    R1 9746  16.224  12.238   8.951 -0.3146 -0.1458 -0.0093
  671ERGO    R2 9747  15.966  12.184   8.867 -0.4541  0.2922  0.1067
  671ERGO    R3 9748  16.015  12.386   8.692 -0.1320  0.1218 -0.0072
  671ERGO    R4 9749  15.822  12.214   8.555 -0.1979  0.2108 -0.0218
  671ERGO    R5 9750  16.014  12.280   8.477 -0.0768 -0.0308  0.0675
  671ERGO    C1 9751  15.784  12.421   8.208  0.2536  0.0036 -0.2036
  671ERGO    C2 9752  15.692  12.497   7.872 -0.1019  0.0037 -0.0092
  672ERGO   ROH 9753   7.978  13.907   9.377  0.3227 -0.0257 -0.0767
  672ERGO    R1 9754   7.804  13.863   9.158  0.2725 -0.1909 -0.0059
  672ERGO    R2 9755   7.786  14.038   8.945 -0.1141 -0.1103  0.0845
  672ERGO    R3 9756   7.838  13.816   8.799  0.1615  0.0379 -0.0482
  672ERGO    R4 9757   7.711  14.000   8.610 -0.3244 -0.1036  0.1299
  672ERGO    R5 9758   7.650  13.795   8.652  0.0716 -0.2334  0.1002
  672ERGO    C1 9759   7.717  13.768   8.277 -0.1882  0.0395  0.0320
  672ERGO    C2 9760   7.951  13.816   7.909  0.2078 -0.1640  0.1355
  673ERGO   ROH 9761   6.074   3.227   9.728 -0.1911 -0.1681  0.0094
  673ERGO    R1 9762   5.988   3.206   9.459 -0.1616  0.0088 -0.0158
  673ERGO    R2 9763   5.968   3.426   9.292  0.1102  0.0893  0.0431
  673ERGO    R3 9764   6.128   3.277   9.131 -0.0155 -0.0398  0.0375
  673ERGO    R4 9765   5.993   3.462   8.949  0.2819  0.1969  0.0665
  673ERGO    R5 9766   6.000   3.246   8.931  0.0217  0.1993 -0.0211
  673ERGO    C1 9767   6.158   3.344   8.598  0.2638  0.1384  0.0750
  673ERGO    C2 9768   6.279   3.480   8.341 -0.3587 -0.0279 -0.2646
  674ERGO   ROH 9769  17.431  13.606   9.204  0.1615  0.1524 -0.0582
  674ERGO    R1 9770  17.235  13.615   9.001  0.1178  0.0906 -0.0209
  674ERGO    R2 9771  17.200  13.834   8.837  0.0007  0.0941 -0.0047
  674ERGO    R3 9772  17.230  13.650   8.639  0.0403  0.1143 -0.0156
  674ERGO    R4 9773  17.106  13.880   8.507 -0.1101  0.0376  0.0197
  674ERGO    R5 9774  17.034  13.675   8.504 -0.0020  0.0081  0.0364
  674ERGO    C1 9775  17.079  13.734   8.130 -0.1373  0.0236  0.0236
  674ERGO    C2 9776  17.014  13.675   7.845  0.0383 -0.0064  0.0686
  675PSPI    C1 9777   6.782   2.078   5.305 -0.1191  0.0234 -0.1485
  675PSPI    C2 9778   6.447   2.222   5.140 -0.2695 -0.0415  0.0953
  675PSPI    C3 9779   6.488   1.828   5.199  0.0123 -0.0745 -0.2855
  675PSPI   PO4 9780   6.881   2.419   5.479 -0.0672 -0.1475 -0.1287
  675PSPI   GL1 9781   6.713   2.581   5.886  0.2648  0.0692 -0.1363
  675PSPI   GL2 9782   6.776   2.621   6.236 -0.1020  0.1417  0.1083
  675PSPI   C1A 9783   6.337   2.384   6.124 -0.0115 -0.0149 -0.0833
  675PSPI   C2A 9784   5.893   2.412   6.208 -0.3872 -0.0890 -0.1236
  675PSPI   C3A 9785   5.525   2.171   6.242 -0.2069 -0.0467  0.0620
  675PSPI   C4A 9786   5.239   2.361   6.492 -0.1098  0.2160 -0.0177
  675PSPI   C1B 9787   6.739   2.955   6.556  0.0108 -0.2943  0.0626
  675PSPI   C2B 9788   6.679   3.157   6.930  0.1049 -0.1644 -0.1408
  675PSPI   C3B 9789   6.779   3.520   6.984 -0.0711 -0.0664  0.0261
  675PSPI   C4B 9790   6.634   3.898   7.336 -0.2291 -0.1450 -0.2646
  676PSPI    C1 9791   5.039   9.243   5.554  0.0060  0.0914  0.0924
  676PSPI    C2 9792   4.931   8.971   5.282 -0.0752  0.1741  0.0412
  676PSPI    C3 9793   5.115   8.856   5.618 -0.2171  0.0432  0.0754
  676PSPI   PO4 9794   4.885   9.442   5.509 -0.0298 -0.1943  0.1252
  676PSPI   GL1 9795   4.969   9.689   5.880  0.2451 -0.0898  0.1109
  676PSPI   GL2 9796   4.722   9.868   5.807  0.0416  0.0614  0.0928
  676PSPI   C1A 9797   5.110   9.768   6.322 -0.2795 -0.0947  0.2580
  676PSPI   C2A 9798   5.108   9.912   6.659 -0.0804  0.0506  0.1302
  676PSPI   C3A 9799   5.092  10.176   6.956 -0.1398  0.2287 -0.1381
  676PSPI   C4A 9800   5.083  10.588   7.203 -0.0283  0.1250  0.0251
  676PSPI   C1B 9801   4.737  10.077   6.231 -0.0959  0.2607 -0.0121
  676PSPI   C2B 9802   4.807  10.357   6.432  0.1568  0.1164  0.3249
  676PSPI   C3B 9803   4.631  10.579   6.875 -0.1245 -0.2533 -0.1809
  676PSPI   C4B 9804   4.474  10.507   7.317  0.1145  0.0118  0.0483
  677PSPI    C1 9805  17.320   1.278   5.307  0.0850  0.1475 -0.3472
  677PSPI    C2 9806  17.097   0.981   5.160  0.2482 -0.0883 -0.1252
  677PSPI    C3 9807  17.224   1.273   4.919 -0.1310 -0.0567 -0.2931
  677PSPI   PO4 9808  17.161   1.345   5.514 -0.0512  0.0493  0.1644
  677PSPI   GL1 9809  17.132   1.327   5.853 -0.0840 -0.2498  0.2718
  677PSPI   GL2 9810  16.876   1.058   6.054 -0.1998 -0.1989  0.1731
  677PSPI   C1A 9811  17.259   1.417   6.289  0.3807  0.3911  0.0038
  677PSPI   C2A 9812  17.147   1.514   6.673  0.2037 -0.0758  0.1704
  677PSPI   C3A 9813  17.148   1.644   7.112  0.1379 -0.0616 -0.0975
  677PSPI   C4A 9814  17.111   2.042   7.372 -0.1928 -0.3387  0.0234
  677PSPI   C1B 9815  17.055   0.997   6.476  0.1728  0.0661  0.4706
  677PSPI   C2B 9816  16.922   0.834   6.876 -0.2710 -0.0671 -0.1203
  677PSPI   C3B 9817  16.413   0.994   7.094 -0.0781  0.0159 -0.0028
  677PSPI   C4B 9818  16.224   1.194   7.380  0.1003 -0.0374  0.3056
  678PSPI    C1 9819  14.749  16.269   5.726  0.0420 -0.1714 -0.2185
  678PSPI    C2 9820  14.594  16.602   5.566 -0.0850 -0.0663  0.1155
  678PSPI    C3 9821  14.420  16.248   5.500 -0.1011 -0.0322 -0.0259
  678PSPI   PO4 9822  14.856  16.326   5.977  0.0183 -0.0836  0.4883
  678PSPI   GL1 9823  14.695  16.342   6.364  0.0036 -0.1666  0.0263
  678PSPI   GL2 9824  14.722  16.025   6.458  0.2544 -0.0890 -0.1237
  678PSPI   C1A 9825  14.455  16.432   6.743  0.0899  0.0959  0.3096
  678PSPI   C2A 9826  14.390  16.371   7.145 -0.0718  0.0335 -0.0971
  678PSPI   C3A 9827  14.519  16.463   7.561 -0.1140 -0.4304  0.1349
  678PSPI   C4A 9828  14.499  16.771   7.970  0.1422  0.0587 -0.1908
  678PSPI   C1B 9829  14.528  15.751   6.827 -0.0449 -0.0778  0.3191
  678PSPI   C2B 9830  14.552  15.867   7.272 -0.2618 -0.0340 -0.0422
  678PSPI   C3B 9831  14.537  15.911   7.722  0.0423 -0.1664  0.1051
  678PSPI   C4B 9832  14.711  15.988   8.068 -0.0913  0.0690  0.2081
  679PSPI    C1 9833  16.812  10.519   5.254  0.0664 -0.0957  0.0543
  679PSPI    C2 9834  16.768  10.815   4.988 -0.2414 -0.0003  0.2069
  679PSPI    C3 9835  16.710  10.435   4.876 -0.2603  0.0303  0.1118
  679PSPI   PO4 9836  16.825  10.670   5.488  0.0125  0.1228  0.1389
  679PSPI   GL1 9837  16.871  10.780   5.889  0.1111  0.1839 -0.0931
  679PSPI   GL2 9838  16.914  10.421   5.950  0.0227  0.2650 -0.1047
  679PSPI   C1A 9839  17.112  10.840   6.275 -0.2808  0.4410 -0.0940
  679PSPI   C2A 9840  17.142  10.908   6.705 -0.1874 -0.1272 -0.4284
  679PSPI   C3A 9841  17.093  10.739   7.109  0.2392  0.1150  0.0583
  679PSPI   C4A 9842  17.346  10.620   7.552  0.1440  0.1590  0.1465
  679PSPI   C1B 9843  17.007  10.383   6.447 -0.0768 -0.0236 -0.1350
  679PSPI   C2B 9844  17.013  10.320   6.785 -0.1286  0.5018  0.0293
  679PSPI   C3B 9845  17.015  10.340   7.316 -0.1650  0.1685 -0.0964
  679PSPI   C4B 9846  16.789  10.077   7.677  0.0965  0.1310  0.0755
  680PSPI    C1 9847  13.379  10.788   5.980 -0.1148 -0.0082  0.0782
  680PSPI    C2 9848  13.663  10.984   6.182  0.0972 -0.0943 -0.1325
  680PSPI    C3 9849  13.480  11.160   5.873 -0.0624 -0.0485 -0.0130
  680PSPI   PO4 9850  13.236  10.685   6.148  0.0544  0.0999  0.2343
  680PSPI   GL1 9851  12.945  10.865   6.439  0.1824 -0.1771 -0.0948
  680PSPI   GL2 9852  13.259  11.130   6.437  0.1030  0.1102  0.1623
  680PSPI   C1A 9853  13.100  10.907   6.873 -0.0181  0.2019 -0.1262
  680PSPI   C2A 9854  12.915  11.003   7.205  0.1345  0.0138  0.0787
  680PSPI   C3A 9855  12.808  11.012   7.664  0.0597  0.2729 -0.0503
  680PSPI   C4A 9856  12.708  10.842   8.111  0.0917  0.0626  0.1091
  680PSPI   C1B 9857  13.545  10.968   6.699 -0.1064  0.2765 -0.2831
  680PSPI   C2B 9858  13.559  10.861   7.166 -0.2772 -0.1341 -0.4115
  680PSPI   C3B 9859  13.806  11.126   7.452  0.0303 -0.0341  0.2409
  680PSPI   C4B 9860  13.957  11.499   7.762 -0.0896  0.3702 -0.0083
  681PSPI    C1 9861   6.870   9.236   5.520  0.1940 -0.0705 -0.2841
  681PSPI    C2 9862   6.559   8.988   5.479  0.0045  0.1047  0.0482
  681PSPI    C3 9863   6.846   8.997   5.201 -0.2332 -0.1336 -0.2107
  681PSPI   PO4 9864   6.937   9.163   5.806 -0.3573 -0.0765 -0.0810
  681PSPI   GL1 9865   7.060   8.913   6.111  0.2234  0.2089  0.1004
  681PSPI   GL2 9866   7.372   9.060   5.977 -0.5910 -0.0535 -0.0835
  681PSPI   C1A 9867   7.112   8.753   6.470  0.0984 -0.0430 -0.1167
  681PSPI   C2A 9868   7.314   8.565   6.705 -0.0414  0.0035  0.4153
  681PSPI   C3A 9869   7.437   8.537   7.099  0.0293 -0.0302  0.2929
  681PSPI   C4A 9870   7.699   8.452   7.489  0.2768  0.0394 -0.0404
  681PSPI   C1B 9871   7.682   9.128   6.422  0.3170 -0.0988 -0.1495
  681PSPI   C2B 9872   7.672   8.929   6.804 -0.2568 -0.0152 -0.0937
  681PSPI   C3B 9873   7.692   8.910   7.271  0.4113  0.0081 -0.2208
  681PSPI   C4B 9874   7.751   8.929   7.795 -0.0417  0.0630  0.0382
  682PSPI    C1 9875   7.922   4.025   5.416 -0.0444  0.1340 -0.2241
  682PSPI    C2 9876   8.039   3.645   5.371 -0.1132  0.0975 -0.1005
  682PSPI    C3 9877   7.708   3.775   5.189 -0.1596  0.0637 -0.0410
  682PSPI   PO4 9878   7.933   4.099   5.682  0.0960  0.0402  0.0717
  682PSPI   GL1 9879   7.945   4.052   6.064 -0.0146 -0.0398 -0.3065
  682PSPI   GL2 9880   8.219   3.964   6.341 -0.0376 -0.0527  0.3158
  682PSPI   C1A 9881   7.705   4.030   6.358  0.0394  0.3286 -0.3135
  682PSPI   C2A 9882   7.406   3.971   6.740 -0.0230  0.0225  0.3439
  682PSPI   C3A 9883   7.211   3.975   7.069 -0.1348 -0.0506  0.1945
  682PSPI   C4A 9884   6.926   4.305   7.271  0.2336 -0.0411  0.1454
  682PSPI   C1B 9885   8.061   4.062   6.731  0.1763  0.2254 -0.0380
  682PSPI   C2B 9886   8.048   4.153   7.170 -0.2158 -0.1440  0.1504
  682PSPI   C3B 9887   8.371   4.249   7.484  0.0891 -0.2534  0.0136
  682PSPI   C4B 9888   8.522   4.535   7.849  0.1612 -0.1128 -0.2049
  683PSPI    C1 9889  10.570  15.985   5.953 -0.0535  0.2704 -0.0831
  683PSPI    C2 9890  10.745  15.816   5.636  0.0605 -0.0341  0.1365
  683PSPI    C3 9891  10.965  16.020   5.900  0.0011  0.0279  0.1383
  683PSPI   PO4 9892  10.255  15.872   6.053 -0.0396  0.3359 -0.0172
  683PSPI   GL1 9893   9.875  16.010   6.284  0.0583 -0.0640  0.1092
  683PSPI   GL2 9894   9.761  16.370   6.035  0.1446 -0.0929 -0.0274
  683PSPI   C1A 9895  10.065  16.015   6.694  0.1110  0.1238 -0.0990
  683PSPI   C2A 9896   9.938  15.954   7.119  0.0334 -0.0707 -0.0444
  683PSPI   C3A 9897   9.816  16.038   7.521  0.0440 -0.1392 -0.3391
  683PSPI   C4A 9898   9.779  15.970   7.952  0.0468 -0.2954  0.2781
  683PSPI   C1B 9899   9.756  16.394   6.549  0.1203  0.0247 -0.1346
  683PSPI   C2B 9900   9.828  16.408   6.949 -0.0678 -0.2610 -0.2418
  683PSPI   C3B 9901   9.687  16.543   7.359 -0.3362 -0.0486 -0.2111
  683PSPI   C4B 9902   9.683  16.732   7.776  0.2106 -0.1051 -0.1500
  684PSPI    C1 9903   8.479   4.126   5.881 -0.2585  0.1168  0.0658
  684PSPI    C2 9904   8.403   4.043   5.497  0.1003 -0.0739  0.0322
  684PSPI    C3 9905   8.387   4.421   5.627 -0.4793 -0.0582 -0.0614
  684PSPI   PO4 9906   8.612   3.877   5.952  0.2495  0.1414  0.5007
  684PSPI   GL1 9907   8.724   3.776   6.210  0.0023  0.1881 -0.1825
  684PSPI   GL2 9908   8.897   3.566   6.338 -0.1442  0.0476  0.1466
  684PSPI   C1A 9909   8.728   3.947   6.587 -0.3191  0.1894  0.0895
  684PSPI   C2A 9910   8.930   3.926   6.913  0.1491 -0.0285 -0.0917
  684PSPI   C3A 9911   8.798   3.987   7.378  0.0105 -0.0927  0.2250
  684PSPI   C4A 9912   8.753   4.115   7.773 -0.2809 -0.1607 -0.4972
  684PSPI   C1B 9913   9.263   3.507   6.578 -0.0225 -0.3150  0.3887
  684PSPI   C2B 9914   9.363   3.572   7.014 -0.0691  0.1768  0.2136
  684PSPI   C3B 9915   9.340   3.792   7.441  0.0343  0.0465 -0.1464
  684PSPI   C4B 9916   9.291   4.212   7.657 -0.1461  0.4513  0.1128
  685PSPI    C1 9917   1.992   2.674   5.671  0.2455  0.0319  0.1774
  685PSPI    C2 9918   2.327   2.514   5.523  0.2885  0.1381  0.1589
  685PSPI    C3 9919   2.177   2.849   5.363  0.1218  0.0405  0.1072
  685PSPI   PO4 9920   2.011   2.629   5.921 -0.0113  0.3082  0.0649
  685PSPI   GL1 9921   1.998   2.594   6.314 -0.2675  0.3450  0.1771
  685PSPI   GL2 9922   2.144   2.344   6.409 -0.1806 -0.0538 -0.4344
  685PSPI   C1A 9923   2.250   2.760   6.724  0.1783  0.2721  0.0335
  685PSPI   C2A 9924   2.385   3.118   6.830  0.0182 -0.1604 -0.2063
  685PSPI   C3A 9925   2.508   3.405   7.058 -0.0064  0.1611  0.2584
  685PSPI   C4A 9926   2.921   3.561   7.320  0.1801  0.1860  0.1240
  685PSPI   C1B 9927   2.012   2.275   6.831 -0.1365 -0.0269 -0.0116
  685PSPI   C2B 9928   2.016   2.507   7.198 -0.0464 -0.0270 -0.1547
  685PSPI   C3B 9929   2.161   2.637   7.650 -0.2511 -0.1414  0.1355
  685PSPI   C4B 9930   2.540   2.771   7.840  0.1277  0.1995  0.0657
  686PSPI    C1 9931   4.420  16.268   5.479 -0.0146  0.1299  0.2439
  686PSPI    C2 9932   4.206  16.269   5.141  0.0203 -0.0778  0.2201
  686PSPI    C3 9933   4.492  16.543   5.197  0.0604 -0.0840  0.0514
  686PSPI   PO4 9934   4.523  16.020   5.567 -0.0295  0.2220  0.2173
  686PSPI   GL1 9935   4.858  16.029   5.760  0.2485  0.0495 -0.1352
  686PSPI   GL2 9936   4.933  15.832   5.903  0.1658  0.3207  0.2235
  686PSPI   C1A 9937   4.738  16.385   5.990  0.0955  0.2066  0.0452
  686PSPI   C2A 9938   4.887  16.521   6.441 -0.2670  0.0752 -0.0150
  686PSPI   C3A 9939   4.873  16.513   6.923  0.2790 -0.4193 -0.1822
  686PSPI   C4A 9940   4.707  16.284   7.276  0.0556 -0.1891  0.3225
  686PSPI   C1B 9941   4.898  15.719   6.395 -0.0401  0.2615 -0.1581
  686PSPI   C2B 9942   4.745  15.301   6.648  0.2384  0.0776 -0.0878
  686PSPI   C3B 9943   4.682  15.312   7.056  0.0579 -0.0075  0.5008
  686PSPI   C4B 9944   4.256  15.394   7.203 -0.2845  0.1393  0.1352
  687PSPI    C1 9945  15.115   3.322   5.672 -0.0860  0.1711 -0.0853
  687PSPI    C2 9946  15.316   2.976   5.681  0.0292  0.2429  0.2750
  687PSPI    C3 9947  14.993   3.014   5.449 -0.0464 -0.1406  0.3117
  687PSPI   PO4 9948  15.101   3.365   5.905  0.1923 -0.0772 -0.0065
  687PSPI   GL1 9949  15.175   3.262   6.249 -0.0866  0.0351  0.1327
  687PSPI   GL2 9950  15.541   3.232   6.321 -0.1039  0.0520  0.0467
  687PSPI   C1A 9951  15.271   3.324   6.747 -0.0611 -0.2786 -0.1124
  687PSPI   C2A 9952  15.507   3.051   7.042  0.0207 -0.1202 -0.2275
  687PSPI   C3A 9953  15.515   3.104   7.434 -0.3381 -0.0340  0.1061
  687PSPI   C4A 9954  15.622   2.739   7.745  0.2132  0.1634 -0.0564
  687PSPI   C1B 9955  15.773   3.058   6.595 -0.0833  0.3002  0.1415
  687PSPI   C2B 9956  16.025   3.082   6.983 -0.2756  0.2718 -0.1013
  687PSPI   C3B 9957  15.981   3.165   7.415  0.0581  0.0814  0.4153
  687PSPI   C4B 9958  15.789   3.357   7.792  0.2026  0.2822 -0.1918
  688PSPI    C1 9959  16.668   8.619   4.955  0.0404 -0.0273 -0.0984
  688PSPI    C2 9960  16.325   8.563   5.153  0.1055  0.1444  0.0669
  688PSPI    C3 9961  16.348   8.476   4.763  0.0312 -0.3853  0.1732
  688PSPI   PO4 9962  16.903   8.485   5.020  0.0412  0.1580 -0.0099
  688PSPI   GL1 9963  16.934   8.515   5.394 -0.5320 -0.0089  0.3518
  688PSPI   GL2 9964  16.711   8.332   5.545  0.2435 -0.0481 -0.0006
  688PSPI   C1A 9965  17.117   8.467   5.835  0.1974  0.1792 -0.2859
  688PSPI   C2A 9966  16.910   8.406   6.249 -0.1942 -0.3600  0.1373
  688PSPI   C3A 9967  16.824   8.193   6.586  0.2111 -0.0919  0.1840
  688PSPI   C4A 9968  16.860   8.359   6.974  0.1914  0.3631  0.0887
  688PSPI   C1B 9969  16.536   8.313   5.988 -0.0576 -0.5080  0.0954
  688PSPI   C2B 9970  16.414   8.432   6.347  0.0748 -0.1994 -0.1073
  688PSPI   C3B 9971  16.388   8.505   6.721 -0.1315  0.0982  0.0269
  688PSPI   C4B 9972  16.086   8.643   6.976  0.1081  0.0315 -0.0830
  689PSPI    C1 9973  12.782   5.765   5.618 -0.1532 -0.0121 -0.0286
  689PSPI    C2 9974  12.857   5.965   5.280 -0.0527 -0.0740 -0.0434
  689PSPI    C3 9975  13.158   5.863   5.523 -0.0750 -0.4080 -0.1500
  689PSPI   PO4 9976  12.561   5.863   5.774  0.1547 -0.3451 -0.1299
  689PSPI   GL1 9977  12.524   5.764   6.150 -0.0435 -0.2075 -0.1246
  689PSPI   GL2 9978  12.402   5.445   6.211 -0.1483  0.0124 -0.2571
  689PSPI   C1A 9979  12.653   5.935   6.612  0.4616  0.0552  0.0279
  689PSPI   C2A 9980  12.850   5.881   7.048 -0.0429 -0.1960  0.0499
  689PSPI   C3A 9981  13.033   5.793   7.496 -0.1796 -0.2449 -0.0261
  689PSPI   C4A 9982  12.845   5.802   7.833 -0.0619  0.0766  0.0967
  689PSPI   C1B 9983  12.302   5.537   6.566  0.1776 -0.0290  0.0695
  689PSPI   C2B 9984  12.411   5.617   6.967 -0.3361  0.2040  0.1567
  689PSPI   C3B 9985  12.209   5.376   7.313  0.3259 -0.0726  0.2579
  689PSPI   C4B 9986  12.161   5.069   7.661  0.0224  0.3156 -0.0172
  690PSPI    C1 9987  15.450  15.202   5.656 -0.1778 -0.2455 -0.1123
  690PSPI    C2 9988  15.798  15.382   5.576 -0.0380 -0.3935  0.1486
  690PSPI    C3 9989  15.555  15.274   5.277 -0.0693  0.1116 -0.0181
  690PSPI   PO4 9990  15.547  15.108   5.921  0.0867  0.1225  0.0519
  690PSPI   GL1 9991  15.696  15.375   6.104 -0.0962 -0.2761  0.0535
  690PSPI   GL2 9992  16.020  15.155   6.013  0.1596 -0.0181  0.1067
  690PSPI   C1A 9993  15.972  15.327   6.498 -0.0043  0.1333 -0.0908
  690PSPI   C2A 9994  15.881  15.340   6.934  0.0423  0.2253 -0.1303
  690PSPI   C3A 9995  15.954  15.812   6.969  0.1634  0.1901  0.1493
  690PSPI   C4A 9996  15.926  16.164   6.633  0.1617  0.0013  0.1365
  690PSPI   C1B 9997  16.341  15.024   6.292  0.0613  0.0076 -0.0935
  690PSPI   C2B 9998  16.367  15.079   6.739 -0.0588 -0.0184  0.0716
  690PSPI   C3B 9999  16.506  14.912   7.123 -0.0569 -0.3159 -0.2609
  690PSPI   C4B10000  16.417  14.772   7.458 -0.0320 -0.0201  0.0967
  691PSPI    C110001   7.408  15.707   5.679 -0.1064  0.4113 -0.2176
  691PSPI    C210002   7.434  15.654   5.284 -0.1060 -0.1031 -0.1550
  691PSPI    C310003   7.076  15.671   5.459 -0.1035 -0.1727 -0.1427
  691PSPI   PO410004   7.541  15.540   5.758 -0.2012  0.0427 -0.1410
  691PSPI   GL110005   7.810  15.684   6.058 -0.1697  0.0690  0.1833
  691PSPI   GL210006   7.626  15.923   6.161  0.2125  0.1595 -0.1733
  691PSPI   C1A10007   7.827  15.510   6.464  0.1481 -0.0893  0.0716
  691PSPI   C2A10008   7.811  15.398   6.888 -0.0554  0.1292  0.0685
  691PSPI   C3A10009   7.648  15.349   7.392  0.0052  0.2816 -0.0498
  691PSPI   C4A10010   7.193  15.415   7.533  0.5190 -0.0623  0.2754
  691PSPI   C1B10011   7.787  16.067   6.558 -0.2751  0.0985 -0.2133
  691PSPI   C2B10012   7.820  15.902   6.985  0.3986 -0.3630 -0.2154
  691PSPI   C3B10013   7.935  16.167   7.333 -0.2756  0.0650 -0.1041
  691PSPI   C4B10014   8.404  16.225   7.472  0.0344  0.0154  0.3408
  692PSPI    C110015  17.541  14.609   5.131 -0.1779 -0.0164 -0.0469
  692PSPI    C210016  17.591  14.282   4.906  0.0922 -0.0211  0.0157
  692PSPI    C310017  17.375  14.590   4.768  0.0064 -0.1437 -0.1256
  692PSPI   PO410018  17.440  14.528   5.366  0.1592 -0.1110 -0.0866
  692PSPI   GL110019  17.674  14.274   5.725 -0.0694 -0.1367 -0.1274
  692PSPI   GL210020  17.888  13.986   5.630 -0.2337 -0.1020  0.2128
  692PSPI   C1A10021  17.416  14.194   6.149 -0.4632  0.1431  0.1225
  692PSPI   C2A10022  17.493  14.191   6.635 -0.0750 -0.0856  0.2955
  692PSPI   C3A10023  17.700  14.061   6.994 -0.4225  0.0772 -0.1388
  692PSPI   C4A10024  17.930  14.032   7.403 -0.1846 -0.2524 -0.1459
  692PSPI   C1B10025  18.056  14.217   6.061 -0.2578 -0.2462  0.1856
  692PSPI   C2B10026  17.946  14.243   6.502 -0.1596 -0.0450  0.0104
  692PSPI   C3B10027  18.153  14.047   6.801 -0.1607 -0.0031 -0.0550
  692PSPI   C4B10028  18.317  13.823   7.098 -0.0127  0.1174  0.1108
  693PSPI    C110029  18.399   6.826   4.967  0.0793  0.0312  0.1591
  693PSPI    C210030  18.051   6.995   4.866  0.0226 -0.1367  0.0687
  693PSPI    C310031  18.256   6.783   4.595  0.2069 -0.0205  0.1153
  693PSPI   PO410032  18.446   6.723   5.210 -0.2264 -0.2129  0.2249
  693PSPI   GL110033  18.417   6.546   5.544 -0.0348 -0.3537 -0.0529
  693PSPI   GL210034  18.562   6.296   5.359  0.1276 -0.0364 -0.0266
  693PSPI   C1A10035  18.298   6.414   5.926 -0.1716 -0.0031  0.0215
  693PSPI   C2A10036  18.334   6.044   6.259  0.2401  0.1141  0.2840
  693PSPI   C3A10037  18.382   5.860   6.633  0.1549 -0.1223 -0.1871
  693PSPI   C4A10038  18.445   5.676   7.074 -0.0733 -0.1222  0.0364
  693PSPI   C1B10039  18.586   5.999   5.655 -0.0824 -0.2689  0.0838
  693PSPI   C2B10040  18.436   5.663   5.889 -0.0601 -0.0529  0.2277
  693PSPI   C3B10041  18.232   5.485   6.308  0.1489  0.0377  0.2309
  693PSPI   C4B10042  18.325   5.008   6.384 -0.3195 -0.0521  0.1495
  694PSPI    C110043   4.544   6.427   4.997  0.0817  0.0654 -0.0822
  694PSPI    C210044   4.464   6.049   5.099  0.0969  0.1025  0.0695
  694PSPI    C310045   4.622   6.130   4.741  0.0307 -0.0281  0.0098
  694PSPI   PO410046   4.606   6.506   5.278 -0.2591 -0.2655 -0.0018
  694PSPI   GL110047   4.514   6.213   5.647 -0.1488 -0.2029  0.2098
  694PSPI   GL210048   4.416   5.924   5.673 -0.1458 -0.2364  0.1479
  694PSPI   C1A10049   4.486   6.445   6.011  0.0020  0.2612  0.0315
  694PSPI   C2A10050   4.478   6.743   6.291 -0.0271  0.0205  0.2234
  694PSPI   C3A10051   4.271   6.636   6.619 -0.3323 -0.1016  0.0017
  694PSPI   C4A10052   4.357   6.527   6.928  0.1709  0.4141 -0.2147
  694PSPI   C1B10053   4.203   6.087   6.021  0.1074  0.0836 -0.1973
  694PSPI   C2B10054   4.233   6.210   6.423 -0.1429  0.1782 -0.0229
  694PSPI   C3B10055   4.314   6.062   6.787 -0.1426 -0.1446 -0.0979
  694PSPI   C4B10056   4.132   5.979   7.287  0.0165 -0.3027  0.1782
  695POPI    C110057  10.308   2.176   5.580  0.1618  0.0984 -0.0836
  695POPI    C210058  10.056   2.456   5.713 -0.1585 -0.1123 -0.2335
  695POPI    C310059  10.178   2.462   5.332  0.0017 -0.0569 -0.1819
  695POPI   PO410060  10.517   2.123   5.820  0.1417 -0.2720 -0.2359
  695POPI   GL110061  10.593   2.245   6.292 -0.1253 -0.0114 -0.0857
  695POPI   GL210062  10.271   2.134   6.458 -0.1365 -0.3225 -0.0191
  695POPI   C1A10063  10.575   2.571   6.567 -0.1082 -0.0232  0.2547
  695POPI   D2A10064  10.220   2.850   6.708 -0.1037 -0.0082 -0.1694
  695POPI   C3A10065  10.177   2.959   7.203  0.1699  0.3939 -0.1261
  695POPI   C4A10066   9.936   3.075   7.521  0.1204  0.4607  0.1528
  695POPI   C1B10067  10.460   2.072   6.849  0.1554 -0.0716  0.1262
  695POPI   C2B10068  10.513   1.916   7.270 -0.0133 -0.2562  0.1440
  695POPI   C3B10069  10.645   1.810   7.737  0.2840 -0.0072  0.0118
  695POPI   C4B10070  10.796   1.845   8.199  0.1952  0.1846  0.1288
  696POPI    C110071  10.185   5.861   5.342 -0.0412  0.1884 -0.3966
  696POPI    C210072  10.316   5.491   5.269 -0.2098  0.0097  0.1566
  696POPI    C310073  10.530   5.806   5.148  0.1063 -0.2672 -0.0229
  696POPI   PO410074  10.154   5.835   5.631 -0.1887  0.0848  0.0848
  696POPI   GL110075   9.934   5.774   5.947 -0.0228  0.1986  0.0707
  696POPI   GL210076  10.042   5.510   6.089 -0.0409 -0.1864 -0.3098
  696POPI   C1A10077   9.870   6.199   6.062  0.2406 -0.1994  0.0962
  696POPI   D2A10078  10.069   6.498   6.219  0.0622 -0.0054  0.0515
  696POPI   C3A10079  10.147   6.312   6.586  0.2854 -0.0357 -0.0053
  696POPI   C4A10080  10.346   6.387   6.906  0.1197  0.3002 -0.0928
  696POPI   C1B10081  10.115   5.290   6.565  0.0326 -0.0260  0.0075
  696POPI   C2B10082  10.092   5.099   7.034 -0.0043  0.1728  0.2183
  696POPI   C3B10083  10.142   5.104   7.462  0.3492  0.2305 -0.1761
  696POPI   C4B10084  10.533   5.092   7.713 -0.3834  0.0552 -0.1864
  697POPI    C110085   7.684   9.077   5.518 -0.1495 -0.1982  0.1235
  697POPI    C210086   7.333   9.060   5.327  0.0578  0.2017 -0.3155
  697POPI    C310087   7.657   8.890   5.165  0.1005 -0.0562  0.0265
  697POPI   PO410088   7.714   9.277   5.527 -0.2297 -0.1387 -0.2129
  697POPI   GL110089   7.714   9.376   5.917 -0.1041  0.0318  0.1068
  697POPI   GL210090   7.547   9.533   6.093 -0.0172 -0.1165 -0.2947
  697POPI   C1A10091   8.136   9.322   6.129 -0.1065  0.1233 -0.2694
  697POPI   D2A10092   8.490   9.205   6.380  0.0161 -0.1303  0.0999
  697POPI   C3A10093   8.478   9.445   6.852  0.1407  0.0638  0.2121
  697POPI   C4A10094   8.440   9.584   7.293 -0.1137 -0.1815  0.2377
  697POPI   C1B10095   7.253   9.324   6.382  0.1472  0.0894 -0.0878
  697POPI   C2B10096   7.304   9.237   6.731  0.0833  0.1757  0.2392
  697POPI   C3B10097   7.520   9.350   7.129  0.0790 -0.1845 -0.1868
  697POPI   C4B10098   7.741   9.347   7.518 -0.1659  0.2061 -0.0909
  698POPI    C110099   0.766   6.714   4.964  0.0032  0.0333 -0.0875
  698POPI    C210100   0.628   6.717   4.588 -0.1804 -0.2316 -0.0250
  698POPI    C310101   0.610   6.381   4.805  0.2014 -0.1632  0.1211
  698POPI   PO410102   0.717   6.900   5.083 -0.3744  0.3067  0.0074
  698POPI   GL110103   0.690   7.077   5.523  0.2696  0.1163  0.0032
  698POPI   GL210104   0.887   6.793   5.548  0.2522 -0.2849 -0.3135
  698POPI   C1A10105   0.623   6.812   5.954  0.1275 -0.0199 -0.1492
  698POPI   D2A10106   0.709   6.642   6.338 -0.1425 -0.1578  0.3356
  698POPI   C3A10107   0.691   6.890   6.707  0.1245 -0.0065  0.1942
  698POPI   C4A10108   0.594   7.003   7.091 -0.0658  0.1123 -0.3911
  698POPI   C1B10109   0.974   6.432   5.891  0.1783 -0.0750  0.0862
  698POPI   C2B10110   1.083   6.133   6.243  0.1710 -0.1374 -0.0280
  698POPI   C3B10111   0.882   5.775   6.559 -0.3328 -0.0360  0.3188
  698POPI   C4B10112   0.711   5.736   6.977  0.2741  0.1987  0.0928
  699POPI    C110113   3.897   5.251   5.292  0.2327  0.0482 -0.1060
  699POPI    C210114   3.576   5.181   5.064  0.1938 -0.1360  0.0029
  699POPI    C310115   3.854   5.441   4.943 -0.0079  0.0440 -0.0807
  699POPI   PO410116   3.799   5.115   5.517  0.0382  0.1265 -0.1265
  699POPI   GL110117   3.998   4.909   5.896 -0.4207 -0.3865 -0.0259
  699POPI   GL210118   4.264   4.928   5.755 -0.0199 -0.1029 -0.0122
  699POPI   C1A10119   3.829   5.060   6.187 -0.1426 -0.1893  0.0672
  699POPI   D2A10120   3.895   5.100   6.564 -0.2957  0.0272  0.3044
  699POPI   C3A10121   3.647   5.157   6.982  0.1148 -0.0895 -0.1103
  699POPI   C4A10122   3.754   5.142   7.405 -0.0313  0.4882  0.1214
  699POPI   C1B10123   4.348   5.183   6.178 -0.2280  0.1603  0.1774
  699POPI   C2B10124   4.333   5.241   6.644 -0.0370 -0.0312 -0.2426
  699POPI   C3B10125   4.244   5.213   7.104  0.2215 -0.1071  0.1132
  699POPI   C4B10126   4.307   5.262   7.478 -0.1206  0.1032 -0.1194
  700POPI    C110127  14.898   8.856   4.948  0.1046 -0.2898  0.2331
  700POPI    C210128  15.075   8.648   4.656 -0.2356  0.1556 -0.3113
  700POPI    C310129  14.703   8.557   4.769 -0.0841 -0.0535  0.0372
  700POPI   PO410130  15.132   8.960   5.092 -0.0601  0.2477 -0.1263
  700POPI   GL110131  15.413   8.780   5.502  0.0223 -0.2413  0.0411
  700POPI   GL210132  15.802   8.637   5.427 -0.1239  0.0484  0.1363
  700POPI   C1A10133  15.353   8.762   5.933 -0.2099 -0.2432  0.2894
  700POPI   D2A10134  15.628   8.839   6.268  0.1731 -0.3128  0.2137
  700POPI   C3A10135  15.672   8.553   6.650  0.1531 -0.2512  0.1266
  700POPI   C4A10136  15.560   8.312   6.984  0.0743 -0.2086  0.0652
  700POPI   C1B10137  15.724   8.439   5.818 -0.0877 -0.1043  0.0498
  700POPI   C2B10138  15.907   8.392   6.178  0.1103 -0.0493  0.1477
  700POPI   C3B10139  15.987   8.182   6.690 -0.0161 -0.1789  0.0136
  700POPI   C4B10140  16.368   8.036   6.740 -0.0185 -0.2265  0.1053
  701POPI    C110141   9.702  18.493   6.083  0.1421 -0.0182 -0.0242
  701POPI    C210142   9.759  18.859   5.931  0.2121 -0.0278 -0.0216
  701POPI    C310143   9.773  18.539   5.692  0.1057 -0.0253 -0.0316
  701POPI   PO410144   9.512  18.583   6.290  0.0542  0.1642 -0.0386
  701POPI   GL110145   9.287  18.432   6.616  0.1909  0.0691 -0.0068
  701POPI   GL210146   8.934  18.380   6.609  0.1698 -0.0202  0.2550
  701POPI   C1A10147   9.174  18.471   7.143  0.0761 -0.2835 -0.0408
  701POPI   D2A10148   9.062  18.795   7.432 -0.4760 -0.1696 -0.0423
  701POPI   C3A10149   9.231  18.941   7.815  0.1309  0.0193 -0.0395
  701POPI   C4A10150   9.243  19.112   8.189 -0.0520 -0.3453 -0.1560
  701POPI   C1B10151   8.695  18.247   6.985 -0.3345 -0.1498  0.0983
  701POPI   C2B10152   8.770  18.406   7.394 -0.2141  0.0634  0.0415
  701POPI   C3B10153   8.423  18.451   7.700 -0.1133 -0.0777 -0.1907
  701POPI   C4B10154   8.315  18.098   7.952  0.2182  0.0638  0.0093
  702POPI    C110155   2.464  16.202   5.713  0.1713 -0.0443 -0.2296
  702POPI    C210156   2.636  15.870   5.854 -0.0763 -0.0809 -0.0040
  702POPI    C310157   2.390  15.849   5.539 -0.1701 -0.1276  0.0720
  702POPI   PO410158   2.452  16.306   5.922 -0.0734  0.1857 -0.3382
  702POPI   GL110159   2.252  16.407   6.188  0.0206 -0.2442  0.0270
  702POPI   GL210160   2.021  16.514   6.239  0.2545  0.1924  0.1593
  702POPI   C1A10161   2.386  16.698   6.524 -0.3098 -0.2308 -0.0334
  702POPI   D2A10162   2.579  16.611   6.888 -0.3139 -0.0532 -0.0155
  702POPI   C3A10163   2.496  16.637   7.270  0.0414 -0.1445 -0.0406
  702POPI   C4A10164   2.558  16.580   7.730 -0.0590 -0.1169 -0.0158
  702POPI   C1B10165   1.875  16.626   6.723  0.0083  0.0179 -0.0124
  702POPI   C2B10166   1.762  16.825   7.030 -0.0270  0.0200  0.0422
  702POPI   C3B10167   1.572  17.104   7.311 -0.0227  0.2590  0.0242
  702POPI   C4B10168   1.294  16.969   7.584 -0.1280 -0.4279  0.1653
  703POPI    C110169  13.434  13.330   5.623  0.1083 -0.1328 -0.0502
  703POPI    C210170  13.666  13.617   5.468  0.1905 -0.1199  0.0948
  703POPI    C310171  13.680  13.246   5.319  0.2639 -0.1061  0.0673
  703POPI   PO410172  13.469  13.364   5.875  0.2182 -0.0050 -0.3079
  703POPI   GL110173  13.231  13.279   6.294 -0.1345  0.1821  0.3361
  703POPI   GL210174  12.944  13.317   6.407 -0.1798  0.2944  0.1723
  703POPI   C1A10175  13.399  13.151   6.734 -0.1663 -0.2675  0.1765
  703POPI   D2A10176  13.363  12.889   7.145  0.2755  0.0498 -0.0475
  703POPI   C3A10177  13.512  12.772   7.609  0.0757  0.2535  0.4487
  703POPI   C4A10178  13.519  12.403   7.770  0.2709 -0.0524 -0.0722
  703POPI   C1B10179  13.055  13.536   6.765  0.2187 -0.2612  0.1201
  703POPI   C2B10180  13.145  13.358   7.161  0.3272 -0.2699 -0.0519
  703POPI   C3B10181  13.612  13.266   7.367  0.1185  0.1515  0.3678
  703POPI   C4B10182  13.887  13.095   7.721 -0.2263  0.4793 -0.2403
  704POPI    C110183   5.000  16.999   5.302  0.1055 -0.0199 -0.0617
  704POPI    C210184   5.294  17.025   5.032  0.0839  0.0092 -0.0826
  704POPI    C310185   5.065  16.697   5.047 -0.0496  0.0946 -0.2391
  704POPI   PO410186   5.096  17.098   5.504  0.1060  0.0260 -0.0925
  704POPI   GL110187   4.898  17.181   5.820  0.0087 -0.1248 -0.2043
  704POPI   GL210188   5.136  17.339   6.024  0.0409 -0.0230  0.0179
  704POPI   C1A10189   4.732  17.041   6.267  0.1251 -0.0462  0.1851
  704POPI   D2A10190   4.671  17.031   6.650 -0.0509  0.2063  0.0946
  704POPI   C3A10191   5.105  16.987   6.911  0.3125  0.1248 -0.0680
  704POPI   C4A10192   5.198  17.173   7.289 -0.1921 -0.1934 -0.0928
  704POPI   C1B10193   5.015  17.335   6.569  0.0971 -0.3391 -0.0279
  704POPI   C2B10194   4.774  17.559   6.781 -0.0838 -0.3840  0.1399
  704POPI   C3B10195   4.825  17.582   7.207 -0.0348 -0.1976  0.2689
  704POPI   C4B10196   4.807  17.293   7.530  0.4751  0.1645  0.1964
  705POPI    C110197   0.046   2.935   5.187  0.2210  0.0625 -0.2815
  705POPI    C210198  -0.222   2.705   4.999  0.2873 -0.0502 -0.2399
  705POPI    C310199   0.087   2.859   4.796  0.0626  0.2786 -0.3419
  705POPI   PO410200  -0.052   3.087   5.329 -0.1533 -0.1037 -0.3405
  705POPI   GL110201   0.069   3.440   5.488  0.1521 -0.1893 -0.2953
  705POPI   GL210202   0.246   3.312   5.701 -0.1496 -0.2471 -0.0124
  705POPI   C1A10203  -0.275   3.477   5.804 -0.2308  0.0554  0.0919
  705POPI   D2A10204  -0.378   3.530   6.256  0.0652 -0.0164  0.0532
  705POPI   C3A10205  -0.304   3.603   6.686  0.0098  0.1964  0.0681
  705POPI   C4A10206  -0.135   3.518   7.059 -0.0392  0.2581  0.1983
  705POPI   C1B10207   0.200   3.561   6.063 -0.1726 -0.1860  0.0542
  705POPI   C2B10208   0.371   3.723   6.485 -0.1302 -0.1935  0.0234
  705POPI   C3B10209   0.525   4.103   6.757 -0.3221 -0.0165 -0.2246
  705POPI   C4B10210   0.677   4.350   7.118 -0.0758 -0.1273 -0.0256
  706POPI    C110211   6.503   7.376   5.704 -0.0848 -0.2513 -0.0777
  706POPI    C210212   6.398   7.113   5.987 -0.1331 -0.0362  0.1068
  706POPI    C310213   6.151   7.412   5.890  0.0396  0.1049  0.0969
  706POPI   PO410214   6.768   7.450   5.759  0.2427 -0.2928 -0.0183
  706POPI   GL110215   7.011   7.466   6.146 -0.2979  0.1028  0.2400
  706POPI   GL210216   7.193   7.249   6.296 -0.1732  0.0176  0.0193
  706POPI   C1A10217   7.051   7.826   6.441 -0.2830  0.1749  0.0353
  706POPI   D2A10218   7.170   8.012   6.842 -0.2256  0.2565  0.0563
  706POPI   C3A10219   6.900   8.367   6.984  0.2408  0.0050  0.0069
  706POPI   C4A10220   6.619   8.359   7.216 -0.0655 -0.1008 -0.0701
  706POPI   C1B10221   7.167   7.300   6.658  0.2861  0.2081  0.0779
  706POPI   C2B10222   7.066   7.510   6.909 -0.5489 -0.1456 -0.1003
  706POPI   C3B10223   7.057   7.727   7.351 -0.0425 -0.0362 -0.0830
  706POPI   C4B10224   7.190   8.175   7.460  0.0316 -0.0606 -0.0059
  707POPI    C110225   3.704  11.550   4.923 -0.0125 -0.0589  0.0562
  707POPI    C210226   3.862  11.718   4.596 -0.2464  0.0802  0.0128
  707POPI    C310227   3.683  11.362   4.571 -0.0746 -0.0084  0.0327
  707POPI   PO410228   4.063  11.525   5.086  0.0863 -0.2687  0.0610
  707POPI   GL110229   4.185  11.564   5.467 -0.1406  0.0823 -0.2109
  707POPI   GL210230   4.327  11.275   5.492  0.0986  0.1138 -0.0177
  707POPI   C1A10231   4.134  11.663   5.887  0.1637  0.0847  0.2428
  707POPI   D2A10232   3.981  11.402   6.272  0.1695  0.4819  0.0753
  707POPI   C3A10233   3.865  11.611   6.609  0.3429 -0.1180 -0.2286
  707POPI   C4A10234   3.800  11.786   6.966 -0.0486  0.2052  0.1348
  707POPI   C1B10235   4.048  11.103   5.814 -0.0427 -0.0866 -0.2655
  707POPI   C2B10236   3.992  10.905   6.250 -0.4284 -0.1904  0.1396
  707POPI   C3B10237   3.941  11.054   6.658 -0.1744 -0.0985 -0.0074
  707POPI   C4B10238   3.868  11.253   7.008 -0.0987 -0.4714 -0.1824
  708POPI    C110239   9.779   4.877   5.579 -0.2252  0.0855  0.1683
  708POPI    C210240   9.795   4.478   5.588  0.1603  0.0895 -0.1096
  708POPI    C310241   9.687   4.667   5.252  0.0149  0.2222  0.0101
  708POPI   PO410242   9.672   4.993   5.745 -0.1299  0.1502 -0.1196
  708POPI   GL110243   9.615   4.759   6.045  0.1458 -0.1197 -0.3451
  708POPI   GL210244   9.293   4.781   6.069 -0.1211 -0.0709 -0.0459
  708POPI   C1A10245   9.671   4.422   6.381 -0.2415  0.2087 -0.2080
  708POPI   D2A10246   9.684   4.430   6.824 -0.1396  0.0217  0.2011
  708POPI   C3A10247   9.841   4.682   7.313  0.1022  0.3288  0.0101
  708POPI   C4A10248  10.294   4.645   7.556 -0.1898  0.0074  0.0407
  708POPI   C1B10249   9.104   5.028   6.263  0.1198 -0.0200 -0.0867
  708POPI   C2B10250   9.262   5.277   6.499  0.1360  0.1172 -0.4618
  708POPI   C3B10251   9.526   5.415   6.745 -0.2651  0.2587  0.1383
  708POPI   C4B10252   9.579   5.624   7.067  0.2642  0.1073 -0.0206
  709POPI    C110253  12.484  14.450   5.609  0.1796 -0.0112 -0.0300
  709POPI    C210254  12.710  14.155   5.460  0.1419 -0.0113 -0.0872
  709POPI    C310255  12.388  14.282   5.259 -0.0194 -0.1419  0.0851
  709POPI   PO410256  12.442  14.447   5.842 -0.0852  0.3244 -0.1121
  709POPI   GL110257  12.566  14.483   6.359  0.0304  0.1391  0.1159
  709POPI   GL210258  12.896  14.545   6.356 -0.0236  0.0094 -0.3349
  709POPI   C1A10259  12.484  14.740   6.645  0.0377  0.2272 -0.0335
  709POPI   D2A10260  12.289  14.611   7.005 -0.1874 -0.0102  0.1174
  709POPI   C3A10261  12.500  14.368   7.169 -0.1474  0.0649 -0.1653
  709POPI   C4A10262  12.657  14.029   7.427  0.3958  0.1978 -0.0204
  709POPI   C1B10263  13.054  14.478   6.744 -0.3050  0.3529  0.0806
  709POPI   C2B10264  13.055  14.304   7.055 -0.2176 -0.2050 -0.2208
  709POPI   C3B10265  13.092  14.274   7.469  0.5582  0.0926 -0.0214
  709POPI   C4B10266  13.479  14.255   7.834  0.1855 -0.0949 -0.0053
  710POPI    C110267  16.459   5.012   4.745  0.0571  0.0517  0.1427
  710POPI    C210268  16.201   4.715   4.672 -0.0363  0.1298  0.1524
  710POPI    C310269  16.302   4.969   4.380  0.1304  0.0216  0.1145
  710POPI   PO410270  16.340   5.049   5.014 -0.0179 -0.1163 -0.0089
  710POPI   GL110271  16.393   5.019   5.392 -0.0667 -0.1724 -0.2646
  710POPI   GL210272  16.592   5.297   5.468 -0.0179  0.0123  0.0825
  710POPI   C1A10273  16.674   4.878   5.759 -0.1058 -0.1008 -0.1850
  710POPI   D2A10274  16.632   4.790   6.080  0.0950  0.5022  0.0525
  710POPI   C3A10275  16.826   4.884   6.467  0.1065  0.1307  0.0326
  710POPI   C4A10276  16.892   4.863   6.970  0.1785 -0.1014 -0.0900
  710POPI   C1B10277  16.366   5.235   5.818 -0.0342  0.1561 -0.1099
  710POPI   C2B10278  16.494   5.357   6.222 -0.1479 -0.1075 -0.1536
  710POPI   C3B10279  16.361   5.755   6.404 -0.1495  0.2370  0.2872
  710POPI   C4B10280  16.589   6.064   6.562 -0.0142 -0.0156  0.0747
  711POPI    C110281  13.316   7.808   5.743  0.0947  0.0418  0.1471
  711POPI    C210282  13.371   7.436   5.606  0.0351  0.0819  0.0124
  711POPI    C310283  13.545   7.745   5.421  0.0606  0.1244  0.1064
  711POPI   PO410284  13.055   7.864   5.774 -0.0740  0.1609  0.3619
  711POPI   GL110285  12.985   8.106   6.109  0.0177 -0.2181 -0.2955
  711POPI   GL210286  13.202   8.273   6.109 -0.3395 -0.2809  0.2818
  711POPI   C1A10287  12.876   8.152   6.496  0.0389 -0.2556 -0.1265
  711POPI   D2A10288  12.757   8.339   6.840  0.3696 -0.1668 -0.1695
  711POPI   C3A10289  12.625   8.170   7.174  0.2528  0.2110 -0.0707
  711POPI   C4A10290  12.781   7.829   7.559  0.2664  0.3049 -0.1040
  711POPI   C1B10291  13.412   8.225   6.481 -0.2400  0.3428  0.0287
  711POPI   C2B10292  13.570   7.913   6.740 -0.1237 -0.4426  0.2015
  711POPI   C3B10293  13.765   7.736   7.084  0.2100  0.2286 -0.1738
  711POPI   C4B10294  13.795   7.604   7.567  0.5628  0.2201  0.2880
  712POPI    C110295  14.939   9.567   5.490 -0.1897 -0.0113  0.3539
  712POPI    C210296  15.179   9.253   5.551 -0.3302 -0.1943 -0.0073
  712POPI    C310297  15.203   9.459   5.210 -0.3138  0.1249  0.1828
  712POPI   PO410298  14.756   9.486   5.692 -0.0810  0.0325  0.2929
  712POPI   GL110299  14.666   9.176   5.951  0.0044  0.0011 -0.2139
  712POPI   GL210300  14.560   9.377   6.219  0.2917  0.0787 -0.1661
  712POPI   C1A10301  14.576   8.875   6.297  0.2195 -0.1046 -0.0942
  712POPI   D2A10302  14.588   8.880   6.750  0.5341 -0.0224  0.1041
  712POPI   C3A10303  14.871   8.823   7.077  0.0446  0.0320 -0.1713
  712POPI   C4A10304  15.180   8.574   7.231 -0.1980 -0.3345  0.3115
  712POPI   C1B10305  14.447   9.345   6.656 -0.0069  0.0431 -0.2669
  712POPI   C2B10306  14.623   9.338   7.039 -0.0960  0.1340 -0.1539
  712POPI   C3B10307  14.608   9.276   7.491  0.0634 -0.2456 -0.3468
  712POPI   C4B10308  14.234   9.073   7.760 -0.0858  0.1781 -0.0116
  713POPI    C110309  10.991  10.833   5.731 -0.2419  0.0496  0.0555
  713POPI    C210310  11.013  11.144   5.480  0.1567 -0.0008  0.0210
  713POPI    C310311  10.809  10.816   5.376  0.0140  0.1191 -0.0816
  713POPI   PO410312  10.954  10.988   5.960  0.0247  0.0266 -0.0762
  713POPI   GL110313  10.945  10.918   6.340  0.2348  0.3442  0.0646
  713POPI   GL210314  11.194  11.240   6.355  0.1876  0.1564  0.0787
  713POPI   C1A10315  10.747  10.780   6.765 -0.2027  0.0065  0.0479
  713POPI   D2A10316  10.402  10.827   6.972  0.0475  0.0242 -0.0843
  713POPI   C3A10317  10.374  11.086   7.359  0.0702  0.1657 -0.0503
  713POPI   C4A10318  10.494  11.273   7.740  0.0693 -0.1051 -0.0294
  713POPI   C1B10319  11.137  11.177   6.745 -0.2302  0.0419  0.0425
  713POPI   C2B10320  11.194  10.915   7.136 -0.1757 -0.1469  0.1555
  713POPI   C3B10321  11.371  10.875   7.607  0.2051 -0.2544  0.2615
  713POPI   C4B10322  11.543  10.472   7.849  0.0334 -0.0790  0.0060
  714POPI    C110323  18.502  11.417   5.228 -0.0047  0.3264 -0.0840
  714POPI    C210324  18.635  11.560   4.879 -0.1191  0.2727 -0.1502
  714POPI    C310325  18.334  11.296   4.885  0.0506  0.0788 -0.0258
  714POPI   PO410326  18.501  11.613   5.387 -0.1349 -0.1323 -0.1613
  714POPI   GL110327  18.538  11.711   5.772 -0.2178  0.2080 -0.1440
  714POPI   GL210328  18.476  11.518   6.048  0.1198 -0.0707  0.2289
  714POPI   C1A10329  18.627  12.053   6.114 -0.0250 -0.2012 -0.2326
  714POPI   D2A10330  18.750  12.347   6.476 -0.0048 -0.0486  0.1432
  714POPI   C3A10331  18.442  12.404   6.752 -0.1796  0.0643 -0.1477
  714POPI   C4A10332  18.345  12.659   7.131  0.0318  0.1685  0.1476
  714POPI   C1B10333  18.779  11.622   6.387  0.4199  0.2660  0.1071
  714POPI   C2B10334  18.730  11.892   6.642  0.0560 -0.0987 -0.1535
  714POPI   C3B10335  18.860  12.207   6.931 -0.1288  0.1510  0.0478
  714POPI   C4B10336  18.807  12.459   7.225  0.0534  0.1320 -0.0738
  715POPI    C110337  18.005   6.009   4.967 -0.0228  0.2473 -0.1210
  715POPI    C210338  17.692   6.056   4.721 -0.0465  0.0060 -0.1388
  715POPI    C310339  18.065   6.088   4.579 -0.0613  0.2693 -0.1225
  715POPI   PO410340  17.946   5.874   5.125 -0.0785  0.0975  0.0939
  715POPI   GL110341  18.118   5.774   5.479  0.0925  0.1429  0.1972
  715POPI   GL210342  18.071   6.101   5.582  0.0909 -0.0925  0.2328
  715POPI   C1A10343  17.952   5.533   5.833 -0.0927 -0.0197 -0.1824
  715POPI   D2A10344  18.052   5.159   5.918 -0.5472  0.0127  0.3374
  715POPI   C3A10345  17.857   4.821   6.035  0.1654 -0.0512 -0.3282
  715POPI   C4A10346  17.611   4.494   6.349  0.3199 -0.3595 -0.0565
  715POPI   C1B10347  17.886   6.042   5.947  0.0089  0.0767  0.1137
  715POPI   C2B10348  17.882   5.883   6.440 -0.0363 -0.0245 -0.2086
  715POPI   C3B10349  18.018   5.790   6.885  0.1034 -0.0049 -0.1619
  715POPI   C4B10350  17.999   5.751   7.312 -0.0926 -0.0831  0.0978
  716POPI    C110351  11.640   3.282   6.026  0.1616 -0.0892  0.0944
  716POPI    C210352  11.959   3.403   5.817  0.0596  0.0364  0.0105
  716POPI    C310353  11.614   3.605   5.792  0.0191 -0.0036  0.2265
  716POPI   PO410354  11.671   3.286   6.245  0.2142 -0.0433  0.0231
  716POPI   GL110355  11.316   3.251   6.468 -0.1470  0.0623 -0.2915
  716POPI   GL210356  11.392   2.921   6.556  0.0978  0.1366  0.1286
  716POPI   C1A10357  11.243   3.228   6.922  0.3554 -0.2664  0.1460
  716POPI   D2A10358  10.946   3.522   7.184  0.1335  0.0877 -0.0295
  716POPI   C3A10359  11.076   3.336   7.548  0.0950 -0.0852 -0.1698
  716POPI   C4A10360  10.907   3.137   7.861 -0.1887 -0.0968 -0.1597
  716POPI   C1B10361  11.467   2.779   6.961  0.4728 -0.0166 -0.1635
  716POPI   C2B10362  11.397   2.932   7.365  0.0376 -0.0721  0.0824
  716POPI   C3B10363  11.387   2.989   7.802 -0.0096 -0.0828  0.0197
  716POPI   C4B10364  11.237   2.857   8.245 -0.0218  0.3393  0.1423
  717POPI    C110365   7.213  14.006   5.722 -0.0156  0.1127 -0.1191
  717POPI    C210366   7.489  14.289   5.787 -0.1958  0.2384  0.1156
  717POPI    C310367   7.209  14.343   5.507 -0.1737  0.2512  0.0961
  717POPI   PO410368   7.335  13.830   5.849 -0.1961  0.4843  0.0338
  717POPI   GL110369   7.741  13.897   6.037 -0.1364 -0.1021 -0.2712
  717POPI   GL210370   7.783  14.178   6.209  0.0800 -0.0512 -0.0362
  717POPI   C1A10371   7.782  13.755   6.457  0.1732 -0.4527 -0.0195
  717POPI   D2A10372   7.897  13.882   6.919 -0.4321 -0.1913 -0.3403
  717POPI   C3A10373   7.758  13.721   7.373  0.0350  0.0629 -0.1644
  717POPI   C4A10374   7.517  13.801   7.749  0.1701  0.3663  0.1232
  717POPI   C1B10375   7.567  14.275   6.633  0.1241 -0.2696  0.2129
  717POPI   C2B10376   7.524  14.640   6.771  0.0692  0.3644 -0.0049
  717POPI   C3B10377   7.679  14.937   7.074 -0.2051  0.0021 -0.4059
  717POPI   C4B10378   8.069  15.042   7.096  0.0054  0.0647  0.0031
  718POPI    C110379   1.047  18.181   5.178  0.0954  0.2795  0.1370
  718POPI    C210380   0.698  18.371   5.130 -0.0311  0.0373  0.0822
  718POPI    C310381   1.006  18.453   4.887 -0.1554  0.0095 -0.0863
  718POPI   PO410382   0.955  18.117   5.472  0.2508  0.2030  0.4032
  718POPI   GL110383   0.988  17.947   5.803  0.0965 -0.3232 -0.4173
  718POPI   GL210384   1.165  18.110   6.045  0.2795  0.3033  0.3172
  718POPI   C1A10385   0.700  18.051   6.170 -0.0587  0.3565  0.2868
  718POPI   D2A10386   0.837  18.426   6.365 -0.1409 -0.1720  0.0056
  718POPI   C3A10387   0.645  18.880   6.332  0.1151  0.5423 -0.0195
  718POPI   C4A10388   0.429  19.268   6.276 -0.0191  0.0184  0.1090
  718POPI   C1B10389   1.412  17.912   6.262 -0.1520 -0.0037 -0.1102
  718POPI   C2B10390   1.391  17.723   6.731 -0.1179  0.1611 -0.0149
  718POPI   C3B10391   1.204  17.623   7.006  0.0038  0.1302  0.2074
  718POPI   C4B10392   1.168  17.452   7.414  0.0598  0.0796  0.2201
  719POPI    C110393  11.163   8.399   5.415 -0.0847  0.0304 -0.0584
  719POPI    C210394  11.471   8.348   5.166  0.0503  0.1240  0.0872
  719POPI    C310395  11.103   8.407   5.020  0.1247  0.1593 -0.0890
  719POPI   PO410396  11.299   8.403   5.727 -0.1859 -0.0818  0.0592
  719POPI   GL110397  11.361   8.327   6.137  0.0134 -0.0526 -0.0818
  719POPI   GL210398  11.026   8.316   6.183 -0.1409 -0.1058 -0.1640
  719POPI   C1A10399  11.155   7.898   6.456 -0.2349 -0.1153 -0.2744
  719POPI   D2A10400  11.030   7.652   6.814 -0.1987 -0.0379  0.1874
  719POPI   C3A10401  10.953   7.811   7.114 -0.3011  0.1421 -0.0259
  719POPI   C4A10402  10.912   8.043   7.429 -0.0701  0.2580  0.1822
  719POPI   C1B10403  10.892   8.400   6.675  0.3243 -0.1645  0.1599
  719POPI   C2B10404  10.924   8.467   7.111 -0.2091 -0.0675  0.1356
  719POPI   C3B10405  10.613   8.436   7.501 -0.1180  0.3107  0.0734
  719POPI   C4B10406  10.971   8.509   7.906  0.2741  0.0825 -0.0926
  720POPI    C110407   9.743   8.407   5.717  0.0762  0.2091  0.0639
  720POPI    C210408   9.775   8.051   5.539 -0.0429  0.2642 -0.0692
  720POPI    C310409  10.100   8.278   5.589  0.0820  0.0203  0.2650
  720POPI   PO410410   9.641   8.272   5.961  0.2005 -0.0142  0.0341
  720POPI   GL110411   9.796   8.482   6.248 -0.2170  0.2205 -0.0092
  720POPI   GL210412   9.864   8.759   6.317 -0.3981  0.1813 -0.2859
  720POPI   C1A10413   9.864   8.322   6.670  0.2953  0.2078  0.0673
  720POPI   D2A10414  10.092   8.227   7.127 -0.1509  0.0296 -0.0502
  720POPI   C3A10415   9.802   7.953   7.444  0.2843 -0.2590  0.1897
  720POPI   C4A10416   9.684   7.633   7.680  0.1742  0.1935  0.0777
  720POPI   C1B10417  10.009   9.093   6.589 -0.1542  0.0547 -0.1878
  720POPI   C2B10418   9.998   9.135   6.983 -0.0645 -0.3011  0.2237
  720POPI   C3B10419  10.211   9.339   7.295  0.0595  0.1735  0.0118
  720POPI   C4B10420  10.465   9.729   7.556  0.3715  0.1810 -0.0174
  721POPI    C110421  18.662  14.250   5.265  0.0782  0.1293  0.1711
  721POPI    C210422  18.419  14.448   5.017  0.2546  0.0013 -0.1096
  721POPI    C310423  18.806  14.547   5.039  0.2900 -0.1451 -0.0632
  721POPI   PO410424  18.449  14.148   5.473  0.0414 -0.0941  0.1574
  721POPI   GL110425  18.376  13.747   5.671 -0.2401  0.0310 -0.1873
  721POPI   GL210426  18.314  13.385   5.493 -0.1622 -0.2669 -0.0134
  721POPI   C1A10427  18.388  13.846   6.030  0.1815  0.2118 -0.1285
  721POPI   D2A10428  18.294  13.771   6.429  0.1599 -0.1746  0.3042
  721POPI   C3A10429  18.534  13.547   6.761  0.0665 -0.2377 -0.1443
  721POPI   C4A10430  18.819  13.458   7.091 -0.3871  0.1320 -0.1156
  721POPI   C1B10431  18.365  13.326   5.988 -0.6419 -0.0271 -0.0554
  721POPI   C2B10432  18.308  13.248   6.389  0.2590 -0.3404  0.2665
  721POPI   C3B10433  18.467  13.034   6.782  0.0677 -0.3486  0.1707
  721POPI   C4B10434  18.713  13.015   7.027 -0.0541  0.1229  0.1332
  722POPI    C110435  16.628  17.113   5.541 -0.2768  0.1139  0.1454
  722POPI    C210436  16.660  16.763   5.350 -0.1646 -0.0334  0.4279
  722POPI    C310437  16.393  17.034   5.227 -0.0216 -0.0793 -0.0011
  722POPI   PO410438  16.640  17.061   5.839 -0.1773  0.0703  0.2664
  722POPI   GL110439  16.635  17.228   6.147 -0.1395  0.1410  0.2612
  722POPI   GL210440  16.538  17.614   6.098  0.1072  0.0121  0.0763
  722POPI   C1A10441  16.740  17.330   6.493 -0.2453 -0.0250  0.2609
  722POPI   D2A10442  16.613  17.353   6.864  0.0064  0.4810 -0.0410
  722POPI   C3A10443  16.734  17.589   7.164  0.0165 -0.4176 -0.3068
  722POPI   C4A10444  16.857  17.645   7.578  0.1278  0.1023 -0.0682
  722POPI   C1B10445  16.383  17.739   6.477  0.0608 -0.1289  0.1161
  722POPI   C2B10446  16.434  17.954   6.789  0.0018  0.0665  0.3033
  722POPI   C3B10447  16.633  18.056   7.275 -0.2965  0.1516  0.1605
  722POPI   C4B10448  16.861  18.122   7.567  0.0049  0.1879 -0.1252
  723POPI    C110449   5.752   4.806   5.432  0.1550  0.0677 -0.1864
  723POPI    C210450   5.495   4.761   5.130 -0.0782  0.1002  0.0043
  723POPI    C310451   5.565   4.457   5.380 -0.1700  0.1877  0.1374
  723POPI   PO410452   5.619   4.983   5.545 -0.0989 -0.0708  0.0427
  723POPI   GL110453   5.369   5.117   5.865 -0.3599 -0.1376 -0.1512
  723POPI   GL210454   5.221   4.948   6.030  0.1719  0.1473 -0.0914
  723POPI   C1A10455   5.290   5.436   6.110 -0.0244  0.4463 -0.0619
  723POPI   D2A10456   5.122   5.789   6.390 -0.0300 -0.0189 -0.1119
  723POPI   C3A10457   5.151   5.792   6.812  0.0006  0.1982 -0.1088
  723POPI   C4A10458   5.051   5.589   7.129  0.2654  0.1839 -0.0786
  723POPI   C1B10459   5.190   5.028   6.440 -0.3299  0.0124  0.0525
  723POPI   C2B10460   5.190   4.940   6.920 -0.1254  0.2791 -0.0378
  723POPI   C3B10461   5.182   4.904   7.319 -0.1214 -0.1557  0.3405
  723POPI   C4B10462   5.029   4.776   7.704  0.0450 -0.2102  0.0588
  724POPI    C110463  16.263  15.637   5.408  0.1111  0.1222 -0.0102
  724POPI    C210464  16.125  15.970   5.583 -0.0504  0.0052  0.0880
  724POPI    C310465  16.161  15.632   5.795 -0.1224 -0.1040 -0.0718
  724POPI   PO410466  16.547  15.688   5.398 -0.0803 -0.1441 -0.0633
  724POPI   GL110467  16.687  15.557   5.813 -0.0039 -0.2428  0.1647
  724POPI   GL210468  16.543  15.297   5.996 -0.3422  0.0746  0.1087
  724POPI   C1A10469  16.899  15.632   6.196  0.1239 -0.3866  0.2331
  724POPI   D2A10470  17.098  15.771   6.563 -0.0194  0.2128  0.1514
  724POPI   C3A10471  17.293  15.464   6.763  0.0889 -0.0961 -0.1743
  724POPI   C4A10472  17.600  15.048   6.929 -0.1209 -0.1296  0.0361
  724POPI   C1B10473  16.822  15.128   6.332  0.1661  0.1117  0.0169
  724POPI   C2B10474  16.837  15.017   6.726  0.0720  0.2504  0.2182
  724POPI   C3B10475  17.086  15.071   7.009  0.3289 -0.0059  0.1615
  724POPI   C4B10476  17.417  14.968   7.346 -0.0712  0.2769 -0.1315
  725POPI    C110477  15.561   0.315   5.537  0.2224 -0.0984  0.0447
  725POPI    C210478  15.880   0.546   5.463  0.0562  0.0739 -0.1455
  725POPI    C310479  15.529   0.627   5.288 -0.1135 -0.0670  0.1231
  725POPI   PO410480  15.491   0.353   5.838  0.1065 -0.0062  0.0137
  725POPI   GL110481  15.532   0.448   6.255 -0.0738 -0.2720 -0.1184
  725POPI   GL210482  15.790   0.488   6.200  0.0624 -0.0943 -0.0560
  725POPI   C1A10483  15.509   0.310   6.692  0.1125  0.1248  0.2175
  725POPI   D2A10484  15.584   0.234   7.107 -0.0460 -0.2776  0.0190
  725POPI   C3A10485  15.376   0.469   7.271 -0.1482 -0.0925 -0.2028
  725POPI   C4A10486  15.342   0.606   7.654  0.3213  0.2494  0.2594
  725POPI   C1B10487  16.240   0.628   6.246  0.3158 -0.0464  0.0109
  725POPI   C2B10488  16.309   0.939   6.583  0.1124  0.1034 -0.3428
  725POPI   C3B10489  16.622   1.207   6.573  0.0256  0.3703  0.0237
  725POPI   C4B10490  16.584   1.560   6.423  0.0652  0.0830 -0.3099
  726POPI    C110491   1.079  12.067   4.829  0.1748  0.0232 -0.0202
  726POPI    C210492   1.138  11.674   4.787 -0.0235 -0.0159  0.0561
  726POPI    C310493   0.932  11.876   4.510  0.1410  0.0493 -0.0204
  726POPI   PO410494   0.936  12.086   5.067 -0.3715 -0.0214  0.4361
  726POPI   GL110495   1.067  12.095   5.537 -0.1246  0.2366 -0.0413
  726POPI   GL210496   1.325  12.218   5.362 -0.2083 -0.3832 -0.3002
  726POPI   C1A10497   1.065  12.232   6.029  0.0413  0.0420  0.1224
  726POPI   D2A10498   1.325  12.534   6.216  0.1505 -0.2056 -0.0070
  726POPI   C3A10499   1.494  12.501   6.668  0.0083  0.1175 -0.0065
  726POPI   C4A10500   1.204  12.493   7.027 -0.1555 -0.1347 -0.1483
  726POPI   C1B10501   1.546  12.307   5.787 -0.0830  0.1204  0.3086
  726POPI   C2B10502   1.754  12.546   5.951  0.1219 -0.1766 -0.0596
  726POPI   C3B10503   1.799  12.798   6.355 -0.1874  0.3815  0.0076
  726POPI   C4B10504   1.538  13.016   6.649 -0.0482 -0.1806  0.0180
  727POPI    C110505  18.617   2.313   5.235 -0.0379  0.0349 -0.1563
  727POPI    C210506  18.975   2.173   5.124 -0.0599  0.0046 -0.1894
  727POPI    C310507  18.712   2.289   4.847 -0.0170  0.1739 -0.1603
  727POPI   PO410508  18.678   2.463   5.439  0.0426 -0.4034 -0.0728
  727POPI   GL110509  18.479   2.676   5.813 -0.1346  0.0668  0.2996
  727POPI   GL210510  18.637   2.988   5.900  0.1572  0.2252 -0.3527
  727POPI   C1A10511  18.334   2.648   6.231 -0.3161  0.2507 -0.0797
  727POPI   D2A10512  18.236   2.314   6.487 -0.0336 -0.1610 -0.2127
  727POPI   C3A10513  18.322   2.318   6.890  0.0940  0.0371 -0.0095
  727POPI   C4A10514  18.442   2.535   7.306  0.2655 -0.1239  0.0872
  727POPI   C1B10515  18.592   3.056   6.373  0.1240 -0.0914  0.1552
  727POPI   C2B10516  18.846   3.268   6.754  0.0239  0.2117  0.4086
  727POPI   C3B10517  19.000   3.697   7.016 -0.2021  0.0286  0.1282
  727POPI   C4B10518  19.382   3.837   7.321 -0.1564 -0.0506  0.2355
  728POPI    C110519   6.317   1.303   5.439  0.0652  0.1743  0.0239
  728POPI    C210520   6.288   1.329   5.837 -0.1123  0.1041  0.0167
  728POPI    C310521   6.166   0.997   5.648 -0.0078  0.1281 -0.0946
  728POPI   PO410522   6.182   1.511   5.399  0.2737  0.0176 -0.0019
  728POPI   GL110523   5.989   1.697   5.793 -0.0552 -0.3068  0.3512
  728POPI   GL210524   6.148   1.911   6.153 -0.0828 -0.0216 -0.0862
  728POPI   C1A10525   5.568   1.610   6.001  0.0560  0.1978 -0.1206
  728POPI   D2A10526   5.425   1.271   6.277  0.0520  0.0586  0.0307
  728POPI   C3A10527   5.580   1.201   6.771  0.0845 -0.0349 -0.4239
  728POPI   C4A10528   5.425   1.121   7.220 -0.0282  0.1386 -0.1095
  728POPI   C1B10529   6.161   1.969   6.601  0.4039 -0.1462 -0.0089
  728POPI   C2B10530   6.195   2.179   6.950  0.0622 -0.0485  0.4185
  728POPI   C3B10531   6.262   2.374   7.447 -0.1005 -0.0000  0.0863
  728POPI   C4B10532   6.382   2.481   7.922  0.1847  0.0817  0.1692
  729POPI    C110533   9.678   5.838   5.490 -0.1716 -0.0066 -0.2077
  729POPI    C210534   9.774   5.647   5.151  0.0171 -0.0676 -0.1216
  729POPI    C310535   9.707   6.042   5.147  0.1822 -0.0399 -0.2009
  729POPI   PO410536   9.502   5.627   5.585  0.2072  0.0725  0.0592
  729POPI   GL110537   9.445   5.484   6.042 -0.1288  0.1786  0.0718
  729POPI   GL210538   9.601   5.233   6.163  0.0595 -0.0992 -0.1039
  729POPI   C1A10539   9.632   5.760   6.359  0.2200  0.2986  0.1368
  729POPI   D2A10540   9.690   6.132   6.613  0.0634  0.0604  0.1955
  729POPI   C3A10541   9.465   6.169   6.995  0.1755  0.0987 -0.0060
  729POPI   C4A10542   9.385   6.325   7.312  0.1141 -0.2462 -0.0963
  729POPI   C1B10543   9.704   4.920   6.511 -0.2447  0.0225 -0.0793
  729POPI   C2B10544  10.146   4.734   6.602  0.0286  0.1111 -0.0006
  729POPI   C3B10545  10.300   4.629   7.020  0.1417 -0.0863 -0.0880
  729POPI   C4B10546  10.632   4.385   7.142 -0.0903 -0.6688 -0.1767
  730POPI    C110547   2.602   6.613   5.009  0.0152  0.3314  0.0994
  730POPI    C210548   2.223   6.730   4.950 -0.0476  0.1281  0.0936
  730POPI    C310549   2.514   6.864   4.710 -0.1578  0.0674 -0.0752
  730POPI   PO410550   2.634   6.251   5.122 -0.2917  0.1749  0.1518
  730POPI   GL110551   2.600   6.019   5.488  0.0839 -0.0143  0.1749
  730POPI   GL210552   2.789   6.237   5.610  0.1217  0.0819  0.2201
  730POPI   C1A10553   2.618   5.696   5.805 -0.1453  0.2207 -0.0937
  730POPI   D2A10554   2.423   5.625   6.186 -0.0126  0.0278  0.0112
  730POPI   C3A10555   2.051   5.846   6.328 -0.0897 -0.0340  0.2017
  730POPI   C4A10556   1.840   5.609   6.690  0.1158 -0.0129 -0.0885
  730POPI   C1B10557   2.610   6.237   6.027  0.0604 -0.4147 -0.1032
  730POPI   C2B10558   2.501   6.050   6.455 -0.0444 -0.2285  0.3052
  730POPI   C3B10559   2.446   5.975   6.847  0.0401 -0.2174 -0.2209
  730POPI   C4B10560   2.155   5.857   7.027  0.1055  0.1225  0.0665
  731POPI    C110561   9.249  11.573   5.254 -0.0351  0.0482  0.0095
  731POPI    C210562   9.603  11.434   5.131 -0.0613 -0.0959  0.0949
  731POPI    C310563   9.429  11.737   4.937  0.1959  0.1013  0.1652
  731POPI   PO410564   9.345  11.522   5.581 -0.0110 -0.2271  0.1309
  731POPI   GL110565   9.497  11.653   6.000 -0.2248  0.0500 -0.1589
  731POPI   GL210566   9.287  11.899   5.912 -0.1046 -0.0168  0.1737
  731POPI   C1A10567   9.380  11.472   6.425  0.2604  0.0696 -0.1319
  731POPI   D2A10568   9.444  11.597   6.816 -0.2474  0.0090  0.0364
  731POPI   C3A10569   9.136  11.735   7.056  0.1241  0.0483  0.0719
  731POPI   C4A10570   9.129  11.740   7.454 -0.3627  0.3174  0.3006
  731POPI   C1B10571   8.912  12.028   6.041  0.0308 -0.2253 -0.0134
  731POPI   C2B10572   8.526  12.141   6.215  0.0051 -0.3039 -0.0015
  731POPI   C3B10573   8.464  12.306   6.550  0.0416 -0.1532  0.0067
  731POPI   C4B10574   8.233  12.498   6.919  0.2251  0.1405  0.3927
  732POPI    C110575  14.064  12.743   5.347 -0.0186  0.0569  0.0184
  732POPI    C210576  14.326  12.737   5.045 -0.1318 -0.0433 -0.0791
  732POPI    C310577  14.092  13.057   5.101  0.0490  0.0695  0.0422
  732POPI   PO410578  14.193  12.691   5.532  0.0567 -0.1188  0.2696
  732POPI   GL110579  14.033  12.635   5.946 -0.1109 -0.2149 -0.0081
  732POPI   GL210580  13.789  12.457   6.008 -0.2558 -0.0553 -0.0415
  732POPI   C1A10581  14.244  12.588   6.284  0.3277 -0.0877  0.3330
  732POPI   D2A10582  14.205  12.398   6.634 -0.0587 -0.1582  0.1209
  732POPI   C3A10583  14.462  12.405   6.989 -0.0244 -0.0729 -0.2237
  732POPI   C4A10584  14.408  12.358   7.396 -0.1334 -0.1914 -0.1280
  732POPI   C1B10585  13.769  12.233   6.359 -0.3423 -0.1259  0.1407
  732POPI   C2B10586  13.788  12.227   6.826 -0.0425  0.1611  0.2651
  732POPI   C3B10587  14.003  12.164   7.205 -0.1507  0.0202  0.0951
  732POPI   C4B10588  14.037  12.042   7.560 -0.4049  0.1179 -0.2100
  733POPI    C110589   4.096   3.137   5.220  0.0922 -0.1556 -0.2029
  733POPI    C210590   4.043   2.740   5.220 -0.0387 -0.1387 -0.2533
  733POPI    C310591   4.393   2.895   5.106  0.0602 -0.2452 -0.0974
  733POPI   PO410592   4.046   3.178   5.540  0.2456 -0.2482 -0.0438
  733POPI   GL110593   4.332   3.274   5.833 -0.1526  0.0047  0.1213
  733POPI   GL210594   4.657   3.319   5.769 -0.2662 -0.1077  0.0358
  733POPI   C1A10595   4.444   3.048   6.166  0.0081  0.2306  0.2133
  733POPI   D2A10596   4.435   2.681   6.531  0.1316 -0.0096 -0.0641
  733POPI   C3A10597   4.554   2.527   6.925 -0.1932 -0.2969  0.0521
  733POPI   C4A10598   4.584   2.447   7.438  0.3816  0.1729  0.0288
  733POPI   C1B10599   4.962   3.568   6.039  0.1963  0.4240  0.2115
  733POPI   C2B10600   5.108   3.542   6.423 -0.2290  0.2637  0.0137
  733POPI   C3B10601   5.035   3.598   6.841 -0.0104 -0.1279 -0.1155
  733POPI   C4B10602   4.953   3.699   7.228  0.0299  0.1534 -0.0691
  734POPI    C110603  15.090   0.742   5.787 -0.1152 -0.0552 -0.1513
  734POPI    C210604  14.973   0.719   5.405  0.2095 -0.2884 -0.2409
  734POPI    C310605  14.928   0.404   5.646 -0.3438 -0.0208  0.0233
  734POPI   PO410606  15.063   1.027   5.786  0.0023  0.2198  0.2386
  734POPI   GL110607  15.013   1.309   6.117 -0.1530  0.0528 -0.1546
  734POPI   GL210608  15.389   1.187   6.147  0.4022  0.0910 -0.1392
  734POPI   C1A10609  14.909   1.526   6.458  0.0539 -0.0458 -0.2665
  734POPI   D2A10610  14.627   1.611   6.792  0.0396 -0.2169 -0.0596
  734POPI   C3A10611  14.787   1.800   7.165 -0.1404 -0.1256  0.1711
  734POPI   C4A10612  14.599   1.922   7.479 -0.1437  0.2292 -0.1113
  734POPI   C1B10613  15.333   1.141   6.642  0.1803  0.3596  0.0221
  734POPI   C2B10614  15.193   1.462   6.942  0.0334  0.0317  0.1261
  734POPI   C3B10615  15.270   1.621   7.273 -0.2209 -0.0749 -0.2127
  734POPI   C4B10616  15.130   1.720   7.596  0.0385 -0.4030 -0.3204
  735POPI    C110617   5.308  13.305   5.459 -0.3500 -0.1081  0.1087
  735POPI    C210618   5.026  13.466   5.227 -0.2016 -0.0489 -0.0330
  735POPI    C310619   5.195  13.119   5.124 -0.2342 -0.0934  0.0612
  735POPI   PO410620   5.485  13.517   5.580 -0.1370 -0.1173 -0.0461
  735POPI   GL110621   5.761  13.563   5.970 -0.1690  0.4340  0.5233
  735POPI   GL210622   6.011  13.652   5.854  0.0536 -0.2805 -0.3191
  735POPI   C1A10623   5.800  13.838   6.368  0.0517 -0.1864  0.2626
  735POPI   D2A10624   5.710  14.238   6.468 -0.2663  0.0987  0.1653
  735POPI   C3A10625   5.361  14.356   6.729  0.1960 -0.0993 -0.0800
  735POPI   C4A10626   4.986  14.368   7.031  0.1346 -0.0237 -0.1858
  735POPI   C1B10627   6.282  13.808   6.146  0.0552  0.2262 -0.2166
  735POPI   C2B10628   6.225  14.077   6.514  0.0305 -0.1389  0.1924
  735POPI   C3B10629   6.202  14.140   6.970 -0.0329  0.4760 -0.1539
  735POPI   C4B10630   6.050  14.035   7.289 -0.3699 -0.1366  0.0041
  736POPI    C110631   0.222  18.674   5.221  0.0215 -0.0397 -0.1136
  736POPI    C210632  -0.136  18.763   5.067 -0.1554 -0.5049  0.0106
  736POPI    C310633   0.080  18.465   4.911  0.1781 -0.2334 -0.0570
  736POPI   PO410634   0.216  18.670   5.466  0.0731  0.1880 -0.1125
  736POPI   GL110635   0.112  18.419   5.858  0.3254  0.1050 -0.1183
  736POPI   GL210636   0.071  18.120   5.862 -0.3345 -0.2255 -0.0153
  736POPI   C1A10637   0.309  18.477   6.168 -0.2438  0.1977  0.0688
  736POPI   D2A10638   0.395  18.280   6.563 -0.1418 -0.0945  0.0432
  736POPI   C3A10639   0.448  18.273   6.969 -0.1278 -0.3082 -0.1717
  736POPI   C4A10640   0.655  18.173   7.413  0.0008  0.2800 -0.1047
  736POPI   C1B10641   0.125  18.009   6.274 -0.1931  0.2429 -0.1836
  736POPI   C2B10642   0.047  17.848   6.800 -0.1814 -0.1586  0.1047
  736POPI   C3B10643   0.323  17.806   7.206  0.0470  0.0610  0.0376
  736POPI   C4B10644   0.663  17.675   7.413  0.0500  0.2908  0.0562
  737POPI    C110645  10.549  13.626   5.568 -0.2417 -0.0360  0.1043
  737POPI    C210646  10.338  13.911   5.382 -0.0067  0.0601 -0.0199
  737POPI    C310647  10.326  13.534   5.249 -0.1417  0.0546  0.0070
  737POPI   PO410648  10.519  13.633   5.861  0.1638  0.1442  0.2852
  737POPI   GL110649  10.547  13.747   6.317  0.2493  0.0030 -0.0142
  737POPI   GL210650  10.822  13.712   6.467  0.2228 -0.1243  0.2382
  737POPI   C1A10651  10.216  13.998   6.469 -0.0165 -0.0442 -0.2676
  737POPI   D2A10652   9.954  14.030   6.830 -0.2069  0.2197  0.0704
  737POPI   C3A10653  10.070  14.283   7.198  0.0772  0.1006  0.3444
  737POPI   C4A10654  10.280  14.559   7.438 -0.0355 -0.2034  0.2566
  737POPI   C1B10655  10.523  13.599   6.816 -0.1321  0.2302 -0.1824
  737POPI   C2B10656  10.575  13.364   7.157 -0.2658  0.1016  0.2267
  737POPI   C3B10657  10.451  13.050   7.444 -0.2298 -0.2245 -0.2072
  737POPI   C4B10658  10.446  12.617   7.691 -0.1059  0.1299 -0.0071
  738POPI    C110659  16.388  10.872   5.272 -0.1025  0.0311  0.0765
  738POPI    C210660  16.330  10.482   5.341 -0.1567  0.0016 -0.1297
  738POPI    C310661  16.261  10.634   4.977 -0.0161  0.1806 -0.0832
  738POPI   PO410662  16.258  10.994   5.486 -0.0602  0.1941 -0.0578
  738POPI   GL110663  15.910  11.077   5.789  0.0223  0.0298 -0.0893
  738POPI   GL210664  15.742  11.353   5.729 -0.1006  0.1615  0.0710
  738POPI   C1A10665  16.095  10.885   6.127 -0.1774 -0.0771  0.0002
  738POPI   D2A10666  15.999  10.656   6.517 -0.1082 -0.1576 -0.4050
  738POPI   C3A10667  16.133  10.635   6.916 -0.0933 -0.1223  0.3139
  738POPI   C4A10668  16.343  10.973   7.176 -0.3606  0.0877 -0.0253
  738POPI   C1B10669  15.970  11.356   6.171 -0.0236  0.2602 -0.1148
  738POPI   C2B10670  15.962  11.244   6.589 -0.3956  0.1983  0.1166
  738POPI   C3B10671  16.160  11.331   6.892 -0.0314  0.2181 -0.0740
  738POPI   C4B10672  16.206  11.455   7.204 -0.0414  0.0457 -0.0811
  739POPI    C110673   6.043   3.882   5.207 -0.2119  0.1820  0.0936
  739POPI    C210674   6.035   3.521   5.035 -0.1789  0.1004  0.2602
  739POPI    C310675   6.066   3.850   4.809 -0.0751 -0.0073  0.1151
  739POPI   PO410676   5.878   3.991   5.410 -0.1527  0.1933  0.1212
  739POPI   GL110677   5.576   4.000   5.711 -0.2811 -0.2206  0.0623
  739POPI   GL210678   5.250   3.887   5.760 -0.0204  0.1350 -0.2445
  739POPI   C1A10679   5.940   3.823   6.008 -0.1700 -0.0525 -0.4136
  739POPI   D2A10680   6.131   3.720   6.343  0.0799  0.2029  0.3236
  739POPI   C3A10681   5.913   3.628   6.701  0.0750  0.2603 -0.2670
  739POPI   C4A10682   5.941   3.385   7.065 -0.0803  0.0947  0.3176
  739POPI   C1B10683   5.198   4.003   6.244 -0.1863  0.0051  0.0733
  739POPI   C2B10684   5.142   4.081   6.725  0.1140  0.0634  0.0750
  739POPI   C3B10685   4.776   4.065   6.985  0.1350 -0.1689  0.1444
  739POPI   C4B10686   4.412   3.998   7.329 -0.0791 -0.1440  0.0379
  740POPI    C110687  12.081   2.010   6.042 -0.2138  0.0721  0.1042
  740POPI    C210688  12.043   2.270   6.344  0.2293  0.1531  0.0970
  740POPI    C310689  11.986   2.391   5.967  0.1006  0.1558  0.1169
  740POPI   PO410690  12.006   1.759   6.230  0.1858  0.1659  0.0616
  740POPI   GL110691  11.962   1.509   6.562 -0.1453 -0.2848 -0.3605
  740POPI   GL210692  11.759   1.576   6.674  0.0200 -0.3866 -0.1581
  740POPI   C1A10693  12.051   1.301   7.018  0.0092  0.2337  0.1224
  740POPI   D2A10694  11.869   1.485   7.335  0.1956  0.0987  0.0432
  740POPI   C3A10695  11.711   1.279   7.677  0.0633  0.1621  0.1701
  740POPI   C4A10696  11.644   1.186   8.180  0.2903  0.1158  0.0879
  740POPI   C1B10697  11.829   1.811   6.935 -0.1628  0.1553 -0.3221
  740POPI   C2B10698  12.048   1.998   7.301 -0.0282  0.0368 -0.1358
  740POPI   C3B10699  12.346   2.169   7.569  0.0405 -0.1275 -0.0898
  740POPI   C4B10700  12.589   2.244   7.815 -0.0893 -0.0541 -0.2923
  741POPI    C110701   9.089   7.121   5.558  0.1221  0.1329  0.1797
  741POPI    C210702   9.173   7.510   5.520 -0.1848  0.1684 -0.1995
  741POPI    C310703   9.299   7.251   5.243  0.1154 -0.0236  0.1095
  741POPI   PO410704   9.176   7.097   5.835 -0.0708  0.2783 -0.1537
  741POPI   GL110705   9.481   6.969   6.130 -0.1213 -0.2357 -0.1166
  741POPI   GL210706   9.305   6.762   6.200  0.3983 -0.2596 -0.0018
  741POPI   C1A10707   9.663   7.252   6.393  0.0687  0.0482  0.1547
  741POPI   D2A10708  10.091   7.452   6.372 -0.1325 -0.3019  0.0481
  741POPI   C3A10709  10.092   7.449   6.781 -0.0213  0.0339 -0.0629
  741POPI   C4A10710  10.051   7.768   7.049 -0.1609  0.0081  0.1695
  741POPI   C1B10711   9.620   6.608   6.475 -0.0068 -0.1629  0.1075
  741POPI   C2B10712   9.760   6.643   6.916 -0.2205  0.5067  0.1869
  741POPI   C3B10713   9.984   6.577   7.230  0.0319  0.2141  0.0143
  741POPI   C4B10714  10.263   6.449   7.412 -0.3187 -0.1656 -0.4584
  742POPS   CNO10715   0.106   9.988   4.740  0.4694  0.0242  0.2118
  742POPS   PO410716   0.056  10.061   5.134  0.2424  0.1092 -0.3679
  742POPS   GL110717   0.183   9.866   5.412  0.1681  0.1201  0.1839
  742POPS   GL210718   0.256   9.563   5.494  0.0227 -0.0285  0.1586
  742POPS   C1A10719   0.084   9.836   5.852 -0.1052  0.3393  0.0636
  742POPS   D2A10720   0.030  10.138   6.097  0.2221 -0.1942 -0.0484
  742POPS   C3A10721  -0.248   9.972   6.495 -0.0469 -0.0342  0.0486
  742POPS   C4A10722  -0.325  10.063   6.882  0.1675  0.2298 -0.0345
  742POPS   C1B10723   0.281   9.352   5.826  0.3722  0.2800 -0.1484
  742POPS   C2B10724   0.162   9.418   6.206  0.2724  0.0936  0.1641
  742POPS   C3B10725  -0.101   9.494   6.554  0.1008 -0.3996 -0.1277
  742POPS   C4B10726  -0.225   9.551   6.987 -0.2916  0.3717 -0.2473
  743POPS   CNO10727  15.755  11.682   5.186 -0.3328 -0.0100  0.0022
  743POPS   PO410728  15.960  11.816   5.617 -0.0200 -0.0207  0.0773
  743POPS   GL110729  15.880  11.998   5.941  0.2528  0.2233 -0.0325
  743POPS   GL210730  16.087  12.230   6.004  0.0647 -0.1786 -0.1930
  743POPS   C1A10731  15.841  11.861   6.286  0.1053  0.1398 -0.2475
  743POPS   D2A10732  15.984  11.714   6.687 -0.3142  0.0077  0.1234
  743POPS   C3A10733  15.956  11.916   7.018  0.1462  0.1502 -0.0906
  743POPS   C4A10734  15.806  12.224   7.324  0.3508 -0.2018  0.1771
  743POPS   C1B10735  16.258  12.043   6.380 -0.3849 -0.4312 -0.0189
  743POPS   C2B10736  16.389  12.174   6.799 -0.0666  0.0560  0.1818
  743POPS   C3B10737  16.354  12.101   7.241 -0.0642 -0.0623  0.1736
  743POPS   C4B10738  16.483  12.159   7.623 -0.1430  0.2112  0.1063
  744POPS   CNO10739  10.465  12.675   5.717 -0.0935 -0.0215 -0.1352
  744POPS   PO410740  10.040  12.460   5.857 -0.0097 -0.0454 -0.3760
  744POPS   GL110741  10.326  12.246   6.108  0.0651 -0.0696  0.0184
  744POPS   GL210742  10.464  12.012   6.028  0.0561 -0.2308 -0.0465
  744POPS   C1A10743  10.764  12.134   6.437 -0.3016  0.2198 -0.1023
  744POPS   D2A10744  10.867  11.733   6.552  0.2646 -0.0186  0.1633
  744POPS   C3A10745  11.048  11.580   7.023  0.1909 -0.0174  0.2154
  744POPS   C4A10746  11.311  11.433   7.357 -0.1154  0.2164  0.2129
  744POPS   C1B10747  10.415  11.789   6.480 -0.2021 -0.1009 -0.1807
  744POPS   C2B10748  10.477  11.676   6.967  0.2441  0.0317  0.2355
  744POPS   C3B10749  10.508  11.820   7.359 -0.1033 -0.3933 -0.0395
  744POPS   C4B10750  10.309  11.709   7.833 -0.3477  0.2820  0.0286
  745POPS   CNO10751  15.065  18.320   5.365  0.2506  0.2879 -0.0739
  745POPS   PO410752  14.930  17.889   5.509  0.1626  0.0018  0.0149
  745POPS   GL110753  14.928  17.829   5.929  0.3725  0.3576 -0.3883
  745POPS   GL210754  14.628  17.755   6.076 -0.1961  0.3179  0.2298
  745POPS   C1A10755  14.979  17.904   6.378  0.3467 -0.1080  0.0570
  745POPS   D2A10756  15.083  18.202   6.665  0.0310 -0.2368 -0.0484
  745POPS   C3A10757  15.183  18.003   7.096 -0.0056 -0.0860  0.1203
  745POPS   C4A10758  15.173  17.803   7.395 -0.2798 -0.1759 -0.1078
  745POPS   C1B10759  14.437  17.864   6.494 -0.0824 -0.1633 -0.0398
  745POPS   C2B10760  14.200  17.887   6.867 -0.0450  0.0613  0.2192
  745POPS   C3B10761  14.152  17.946   7.349  0.1434 -0.1597  0.2114
  745POPS   C4B10762  14.187  17.979   7.813  0.2581 -0.2220 -0.2289
  746POPS   CNO10763   3.460   8.555   4.917  0.0078  0.0786  0.1543
  746POPS   PO410764   3.552   8.392   5.308 -0.0665  0.0229  0.3149
  746POPS   GL110765   3.473   8.245   5.662  0.2128  0.3069 -0.0510
  746POPS   GL210766   3.363   7.940   5.832  0.0510 -0.0089 -0.0715
  746POPS   C1A10767   3.580   8.401   6.025  0.3026  0.0216  0.0533
  746POPS   D2A10768   3.755   8.326   6.323 -0.1090  0.1101  0.1342
  746POPS   C3A10769   3.675   8.412   6.667  0.0081  0.1920  0.3694
  746POPS   C4A10770   3.616   8.466   7.135  0.0702  0.1682  0.0160
  746POPS   C1B10771   3.549   7.875   6.217  0.0694  0.0047  0.0543
  746POPS   C2B10772   3.578   7.919   6.672  0.0664 -0.0647  0.0088
  746POPS   C3B10773   3.425   8.026   7.061  0.0605  0.0021  0.2500
  746POPS   C4B10774   3.470   8.117   7.519 -0.1962 -0.3562 -0.2315
  747POPS   CNO10775   3.971   8.670   5.065 -0.0801 -0.0456 -0.2637
  747POPS   PO410776   4.049   8.803   5.427 -0.0893  0.1391 -0.0790
  747POPS   GL110777   3.913   8.712   5.865  0.0586 -0.0080 -0.1740
  747POPS   GL210778   4.183   8.491   6.035 -0.1340 -0.0983  0.1191
  747POPS   C1A10779   3.802   8.862   6.253  0.0359  0.1328 -0.0389
  747POPS   D2A10780   3.745   8.880   6.652  0.0871  0.1136 -0.0595
  747POPS   C3A10781   3.575   8.949   7.002 -0.1248  0.1794 -0.1007
  747POPS   C4A10782   3.791   8.977   7.288  0.2062 -0.2987  0.1858
  747POPS   C1B10783   4.261   8.461   6.400  0.0762 -0.1621 -0.2115
  747POPS   C2B10784   4.175   8.634   6.809 -0.0242 -0.0134 -0.0155
  747POPS   C3B10785   4.213   8.834   7.099 -0.4105  0.0384  0.0695
  747POPS   C4B10786   4.484   9.184   7.278  0.0722 -0.1705  0.3269
  748POPS   CNO10787  11.140   9.421   5.417 -0.0640 -0.0937  0.0311
  748POPS   PO410788  11.006   9.323   5.793  0.1953 -0.1975  0.1106
  748POPS   GL110789  11.097   9.241   6.232 -0.1710  0.1457  0.2777
  748POPS   GL210790  10.886   9.337   6.548 -0.0324  0.0971 -0.1573
  748POPS   C1A10791  11.350   8.908   6.521 -0.1920 -0.0305 -0.1985
  748POPS   D2A10792  11.481   8.688   6.799 -0.3403 -0.0541 -0.1255
  748POPS   C3A10793  11.547   8.231   6.781  0.5326 -0.1814 -0.2230
  748POPS   C4A10794  11.946   8.011   6.940  0.0865 -0.2528 -0.0522
  748POPS   C1B10795  11.292   9.401   6.705  0.1992 -0.1800 -0.2638
  748POPS   C2B10796  11.589   9.248   6.905 -0.1594  0.2653  0.2037
  748POPS   C3B10797  12.054   9.305   6.965  0.2575  0.1381 -0.1937
  748POPS   C4B10798  12.252   9.565   7.169 -0.1881 -0.0166  0.1410
  749POPS   CNO10799  14.946   8.078   4.657  0.3559  0.1582 -0.1313
  749POPS   PO410800  15.116   7.934   5.050 -0.0645  0.1365 -0.2871
  749POPS   GL110801  15.074   7.930   5.507  0.3975 -0.4475 -0.0853
  749POPS   GL210802  14.893   7.744   5.718  0.0013 -0.0391 -0.0078
  749POPS   C1A10803  15.200   8.335   5.764  0.1902  0.1259 -0.2366
  749POPS   D2A10804  15.267   8.299   6.140 -0.2755 -0.2109 -0.0732
  749POPS   C3A10805  15.230   8.521   6.422 -0.0807  0.2852 -0.2011
  749POPS   C4A10806  15.296   8.887   6.709  0.0830  0.0710 -0.0180
  749POPS   C1B10807  14.793   8.057   5.997  0.0906 -0.2258  0.3148
  749POPS   C2B10808  14.777   8.369   6.170 -0.0409  0.1323 -0.0392
  749POPS   C3B10809  14.749   8.422   6.536 -0.3194  0.2084 -0.4906
  749POPS   C4B10810  15.068   8.217   6.874  0.0037  0.0833 -0.2954
  750POPS   CNO10811   5.811  13.927   5.486  0.1821  0.3454 -0.0127
  750POPS   PO410812   5.664  14.287   5.502 -0.2672  0.1172  0.0596
  750POPS   GL110813   5.544  14.484   5.812 -0.2980  0.2663  0.0810
  750POPS   GL210814   5.617  14.761   5.910  0.0545  0.4127  0.2034
  750POPS   C1A10815   5.341  14.397   6.133  0.1692 -0.0222  0.0243
  750POPS   D2A10816   5.046  14.240   6.342 -0.0382  0.0370 -0.0408
  750POPS   C3A10817   4.641  14.378   6.471  0.1815  0.0958 -0.1337
  750POPS   C4A10818   4.504  14.320   6.995  0.0206 -0.0600 -0.0498
  750POPS   C1B10819   5.643  14.716   6.344 -0.2382 -0.2153  0.3767
  750POPS   C2B10820   5.600  14.848   6.730  0.1346 -0.0415 -0.0539
  750POPS   C3B10821   5.917  14.944   6.921  0.3469  0.3223 -0.1164
  750POPS   C4B10822   5.955  14.796   7.425  0.0792 -0.1943  0.3294
  751POPS   CNO10823  14.993   3.762   5.317 -0.0905 -0.3183  0.2251
  751POPS   PO410824  14.787   4.129   5.522 -0.0582 -0.0250  0.0107
  751POPS   GL110825  14.938   4.298   5.987  0.1286 -0.2617  0.0150
  751POPS   GL210826  14.817   4.599   6.126  0.1283  0.1623  0.0219
  751POPS   C1A10827  14.994   4.216   6.500  0.1020 -0.0301 -0.0082
  751POPS   D2A10828  15.026   4.366   6.953  0.1901 -0.0862 -0.1794
  751POPS   C3A10829  15.317   4.138   7.174 -0.2260  0.1699  0.0907
  751POPS   C4A10830  15.698   4.099   7.464 -0.1414  0.0239 -0.1628
  751POPS   C1B10831  14.542   4.438   6.457  0.2183 -0.1153 -0.0114
  751POPS   C2B10832  14.600   4.286   6.899 -0.0209  0.1480  0.0489
  751POPS   C3B10833  14.767   4.099   7.275  0.0324 -0.0372 -0.2616
  751POPS   C4B10834  14.696   3.785   7.463 -0.1500  0.1376 -0.2682
  752POPS   CNO10835   4.871  18.106   5.305 -0.0257 -0.1116  0.0026
  752POPS   PO410836   4.779  17.952   5.704  0.1245 -0.0795  0.1172
  752POPS   GL110837   4.787  18.189   6.096  0.0596 -0.0166 -0.3151
  752POPS   GL210838   5.156  18.349   6.236  0.1653  0.2151 -0.1905
  752POPS   C1A10839   4.554  18.006   6.559 -0.0028  0.1731  0.2295
  752POPS   D2A10840   4.326  17.788   6.916  0.0237  0.0138  0.0636
  752POPS   C3A10841   4.471  17.878   7.408 -0.0452 -0.0054 -0.0728
  752POPS   C4A10842   4.537  17.593   7.833 -0.1717  0.0187  0.0788
  752POPS   C1B10843   5.126  18.640   6.476 -0.1109 -0.2443 -0.3676
  752POPS   C2B10844   5.152  18.534   6.869  0.0237 -0.1175  0.0425
  752POPS   C3B10845   5.425  18.210   6.912 -0.0350 -0.1635 -0.1554
  752POPS   C4B10846   5.579  18.173   6.549 -0.0227  0.3328 -0.1585
  753POPS   CNO10847   5.803  16.951   5.284  0.2880 -0.3919  0.2032
  753POPS   PO410848   5.800  16.597   5.568  0.2348 -0.1467 -0.3964
  753POPS   GL110849   5.811  16.624   6.008  0.0009 -0.0467 -0.0588
  753POPS   GL210850   6.017  16.452   6.110  0.0220  0.2396  0.1767
  753POPS   C1A10851   5.605  16.458   6.443  0.2642 -0.1115  0.2044
  753POPS   D2A10852   5.533  16.520   6.852  0.0691  0.1730  0.0836
  753POPS   C3A10853   5.541  16.784   7.216  0.4455 -0.2419 -0.2259
  753POPS   C4A10854   5.494  16.798   7.669  0.0005 -0.2130 -0.5361
  753POPS   C1B10855   5.943  16.133   6.373 -0.0226 -0.0097  0.1907
  753POPS   C2B10856   6.142  15.890   6.727  0.2373 -0.0375  0.1075
  753POPS   C3B10857   6.178  15.919   7.107 -0.2245 -0.1263 -0.2637
  753POPS   C4B10858   6.501  16.086   7.390  0.1181  0.0451 -0.2218
  754POPS   CNO10859   4.659  14.496   5.366  0.1727 -0.1654  0.2246
  754POPS   PO410860   4.472  14.135   5.673 -0.0255  0.0101  0.1437
  754POPS   GL110861   4.430  13.927   6.035  0.0487 -0.0683  0.2748
  754POPS   GL210862   4.642  13.671   6.009  0.1291 -0.3224 -0.3823
  754POPS   C1A10863   4.692  13.889   6.418 -0.1929 -0.0980 -0.0898
  754POPS   D2A10864   4.775  13.887   6.853 -0.1979  0.2458  0.0189
  754POPS   C3A10865   4.987  13.487   7.015 -0.2386  0.0134 -0.1279
  754POPS   C4A10866   5.140  13.275   7.532  0.0199  0.1173  0.2100
  754POPS   C1B10867   4.279  13.611   6.383  0.0932  0.1120 -0.0184
  754POPS   C2B10868   3.892  13.384   6.507  0.0505  0.0733  0.0174
  754POPS   C3B10869   3.610  13.242   6.828 -0.0134  0.2319 -0.1180
  754POPS   C4B10870   3.589  12.981   7.133 -0.3751  0.0565 -0.4578
  755POPS   CNO10871  10.279   9.837   6.029 -0.0960  0.2076  0.4721
  755POPS   PO410872  10.616  10.115   5.933  0.3343 -0.0069 -0.2043
  755POPS   GL110873  10.373  10.309   6.218 -0.0352 -0.0941 -0.0960
  755POPS   GL210874  10.090  10.367   6.195  0.0779 -0.1076 -0.0062
  755POPS   C1A10875  10.412  10.371   6.664 -0.0685  0.0255  0.1853
  755POPS   D2A10876  10.510  10.344   7.074 -0.1479 -0.1120  0.0374
  755POPS   C3A10877  10.669  10.624   7.382 -0.0621 -0.3488  0.0850
  755POPS   C4A10878  10.835  10.923   7.678 -0.1001 -0.3482  0.3165
  755POPS   C1B10879   9.944  10.321   6.510  0.2822  0.2159  0.1902
  755POPS   C2B10880  10.025  10.308   6.949  0.1968  0.0781  0.0650
  755POPS   C3B10881  10.130  10.631   7.385 -0.3434 -0.0036 -0.2316
  755POPS   C4B10882  10.257  10.763   7.764  0.0592 -0.0563  0.0155
  756POPS   CNO10883   6.940  17.861   5.614  0.2474 -0.0447 -0.2074
  756POPS   PO410884   6.701  17.912   6.017  0.0420  0.2698  0.0449
  756POPS   GL110885   6.754  17.896   6.412 -0.2397  0.3516 -0.0562
  756POPS   GL210886   7.078  17.977   6.538  0.0094 -0.1082 -0.0773
  756POPS   C1A10887   6.688  17.845   6.882 -0.1115 -0.2862 -0.4302
  756POPS   D2A10888   6.806  17.731   7.294  0.0029 -0.0030  0.4400
  756POPS   C3A10889   6.797  17.236   7.346  0.1611 -0.2182  0.0784
  756POPS   C4A10890   6.898  16.979   7.064  0.1332 -0.1758  0.1913
  756POPS   C1B10891   7.149  18.174   6.943  0.0165  0.1902 -0.0386
  756POPS   C2B10892   7.130  18.045   7.328 -0.0534  0.1973  0.0885
  756POPS   C3B10893   7.234  18.040   7.669 -0.2404  0.1505  0.0138
  756POPS   C4B10894   7.296  18.370   7.944 -0.3143 -0.0191  0.0795
  757POPS   CNO10895   3.820  10.591   5.031 -0.0975 -0.0863 -0.1394
  757POPS   PO410896   3.381  10.681   5.235 -0.1243 -0.2218 -0.0848
  757POPS   GL110897   3.342  10.937   5.625  0.4393 -0.4575  0.1946
  757POPS   GL210898   3.193  10.961   5.860  0.3453  0.1764 -0.0053
  757POPS   C1A10899   3.051  11.404   5.702 -0.3082  0.1421 -0.1126
  757POPS   D2A10900   2.844  11.755   5.831  0.1971 -0.1107  0.2996
  757POPS   C3A10901   2.724  11.960   6.223  0.1960 -0.0119 -0.0066
  757POPS   C4A10902   2.428  11.994   6.535 -0.1563  0.1677  0.2721
  757POPS   C1B10903   2.939  11.375   6.195 -0.0143  0.2147 -0.0952
  757POPS   C2B10904   2.592  11.499   6.465 -0.0972 -0.0640 -0.2627
  757POPS   C3B10905   2.390  11.512   6.818  0.1974  0.3417  0.2561
  757POPS   C4B10906   2.325  11.633   7.227  0.2756  0.1713  0.2844
  758POPS   CNO10907  15.057   5.033   5.243  0.2500  0.2533  0.3313
  758POPS   PO410908  15.023   5.225   5.597 -0.0071 -0.0284  0.0175
  758POPS   GL110909  14.982   5.617   5.730 -0.0680  0.1791  0.1226
  758POPS   GL210910  14.637   5.512   5.633  0.1479 -0.1229  0.1832
  758POPS   C1A10911  15.164   5.656   6.066 -0.1235  0.1825 -0.1228
  758POPS   D2A10912  15.269   5.884   6.403  0.2714  0.1225  0.2561
  758POPS   C3A10913  15.271   5.660   6.855 -0.1037  0.0795 -0.0357
  758POPS   C4A10914  15.525   5.598   7.220 -0.3856  0.2666 -0.1807
  758POPS   C1B10915  14.655   5.457   6.114 -0.4934  0.1846 -0.2225
  758POPS   C2B10916  14.926   5.426   6.471 -0.2036 -0.2211 -0.2545
  758POPS   C3B10917  15.051   5.193   6.830 -0.0735  0.0193  0.2426
  758POPS   C4B10918  15.109   4.933   7.146  0.0387 -0.5276  0.0760
  759POPS   CNO10919  13.593   9.484   5.811  0.5801 -0.0980  0.0364
  759POPS   PO410920  13.857   9.771   5.887  0.0086  0.1320  0.1036
  759POPS   GL110921  13.908   9.511   6.227  0.3097  0.1601  0.0121
  759POPS   GL210922  14.094   9.528   6.383  0.1779  0.4265  0.2672
  759POPS   C1A10923  13.704   9.282   6.547 -0.0901 -0.2468  0.0091
  759POPS   D2A10924  13.508   9.240   6.979  0.0141 -0.0878  0.2336
  759POPS   C3A10925  13.693   9.061   7.339  0.0274 -0.0423 -0.0473
  759POPS   C4A10926  13.537   8.671   7.567  0.2931  0.0660  0.1807
  759POPS   C1B10927  14.069   9.556   6.855  0.4525 -0.0958 -0.2501
  759POPS   C2B10928  13.741   9.673   7.224  0.2664 -0.1545 -0.0198
  759POPS   C3B10929  13.449   9.617   7.438 -0.0099 -0.2510 -0.3633
  759POPS   C4B10930  13.123   9.842   7.626  0.0035 -0.4672  0.1125
  760POPS   CNO10931   6.459   0.172   5.415  0.0681 -0.2638  0.0184
  760POPS   PO410932   6.427   0.546   5.602 -0.0646  0.0364 -0.1592
  760POPS   GL110933   6.331   0.756   6.045  0.1260  0.0880 -0.2883
  760POPS   GL210934   6.498   0.492   6.296  0.1415  0.3403  0.0864
  760POPS   C1A10935   6.332   1.051   6.353 -0.1234  0.2310 -0.0937
  760POPS   D2A10936   6.191   1.396   6.649  0.0129  0.1885 -0.0360
  760POPS   C3A10937   6.016   1.653   6.970 -0.1375 -0.0574 -0.4059
  760POPS   C4A10938   5.670   1.626   7.179 -0.4057  0.2640 -0.2330
  760POPS   C1B10939   6.389   0.627   6.623 -0.0315  0.0415 -0.2684
  760POPS   C2B10940   6.263   0.936   6.867 -0.0168 -0.0009  0.0926
  760POPS   C3B10941   5.993   1.142   7.090 -0.0627 -0.0603 -0.0430
  760POPS   C4B10942   5.959   1.346   7.461 -0.1779  0.5502  0.0556
  761POPS   CNO10943  16.975   6.601   5.321  0.0713 -0.0889  0.1502
  761POPS   PO410944  17.112   6.287   5.292  0.0293 -0.0381 -0.0191
  761POPS   GL110945  17.258   6.411   5.724 -0.0216 -0.0312  0.1356
  761POPS   GL210946  17.438   6.189   5.868 -0.1030 -0.1529 -0.1258
  761POPS   C1A10947  17.018   6.373   6.162  0.1040 -0.2427  0.0583
  761POPS   D2A10948  16.948   6.453   6.577  0.1713  0.0916 -0.1960
  761POPS   C3A10949  17.308   6.312   6.851  0.1993 -0.0548  0.0403
  761POPS   C4A10950  17.527   5.899   6.852  0.1073  0.1196  0.0542
  761POPS   C1B10951  17.518   6.210   6.342  0.0242  0.0318 -0.0339
  761POPS   C2B10952  17.839   6.305   6.774 -0.2912  0.1919  0.1406
  761POPS   C3B10953  18.035   6.679   7.045 -0.0334 -0.1776 -0.2268
  761POPS   C4B10954  18.294   6.553   7.368  0.1653 -0.0963  0.1268
  762POPS   CNO10955   4.366   1.037   5.538 -0.1907 -0.3162  0.1997
  762POPS   PO410956   4.550   1.497   5.576  0.1811 -0.2578 -0.1121
  762POPS   GL110957   4.632   1.682   6.023 -0.0739  0.0120  0.1233
  762POPS   GL210958   4.306   1.847   5.912  0.1203 -0.0633  0.1709
  762POPS   C1A10959   4.544   1.704   6.406 -0.0023  0.0675 -0.4976
  762POPS   D2A10960   4.696   1.569   6.791 -0.3609 -0.0247 -0.2388
  762POPS   C3A10961   4.565   1.602   7.277 -0.3017 -0.2394 -0.1995
  762POPS   C4A10962   4.502   1.941   7.553  0.1282 -0.2036  0.1826
  762POPS   C1B10963   4.279   2.078   6.269  0.4535  0.2571  0.2255
  762POPS   C2B10964   4.096   2.320   6.654  0.1244  0.0905  0.0815
  762POPS   C3B10965   3.870   2.391   7.008 -0.3189 -0.1168  0.1388
  762POPS   C4B10966   3.457   2.366   7.220 -0.1449  0.0431  0.0928
  763POPS   CNO10967  13.806   1.418   5.586  0.0450 -0.2603  0.0591
  763POPS   PO410968  13.380   1.302   5.808 -0.2180 -0.1010 -0.2925
  763POPS   GL110969  13.609   1.360   6.123 -0.1973  0.0120 -0.0734
  763POPS   GL210970  13.435   1.395   6.390 -0.2103  0.0486  0.2003
  763POPS   C1A10971  13.938   1.423   6.302 -0.0200 -0.1633 -0.0396
  763POPS   D2A10972  14.329   1.544   6.395  0.4738  0.2081  0.0655
  763POPS   C3A10973  14.173   1.550   6.831 -0.1371 -0.0485  0.0564
  763POPS   C4A10974  14.333   1.492   7.348 -0.0103  0.1444  0.0087
  763POPS   C1B10975  13.535   1.393   6.763  0.1154 -0.1943  0.2498
  763POPS   C2B10976  13.584   1.348   7.088  0.1007  0.1885  0.2341
  763POPS   C3B10977  13.653   1.317   7.436  0.1601 -0.1255  0.1242
  763POPS   C4B10978  13.864   1.566   7.835 -0.1172 -0.1592  0.1230
  764POPS   CNO10979   9.724  17.541   5.809  0.0091 -0.0698  0.3283
  764POPS   PO410980   9.656  17.540   6.292  0.1259  0.4965 -0.0756
  764POPS   GL110981   9.757  17.582   6.621  0.0279 -0.2389 -0.0482
  764POPS   GL210982   9.593  17.666   6.799  0.2924 -0.0632 -0.1681
  764POPS   C1A10983   9.969  17.892   6.951 -0.0964 -0.1508  0.1665
  764POPS   D2A10984  10.090  17.964   7.393  0.1031 -0.0099 -0.0236
  764POPS   C3A10985   9.977  18.217   7.758 -0.2350 -0.2938  0.0185
  764POPS   C4A10986   9.880  18.232   8.216 -0.0047  0.3132  0.1707
  764POPS   C1B10987   9.705  17.664   7.256  0.0016  0.1212 -0.1148
  764POPS   C2B10988   9.670  17.851   7.677 -0.1424  0.1318 -0.3869
  764POPS   C3B10989   9.517  18.093   7.878  0.0228 -0.0009 -0.3063
  764POPS   C4B10990   9.278  18.241   8.088 -0.0075 -0.4313  0.2496
  765POPS   CNO10991  15.836  14.352   5.374 -0.0621  0.1490 -0.0656
  765POPS   PO410992  15.439  14.061   5.363  0.1246 -0.0217 -0.0982
  765POPS   GL110993  15.531  14.116   5.778 -0.0723  0.2242 -0.0561
  765POPS   GL210994  15.321  14.016   5.932 -0.0415  0.0869 -0.0373
  765POPS   C1A10995  15.697  14.494   5.977  0.1355 -0.1989 -0.0612
  765POPS   D2A10996  15.814  14.847   6.270 -0.0974  0.0077 -0.1916
  765POPS   C3A10997  15.817  14.865   6.715 -0.0487  0.0601 -0.3660
  765POPS   C4A10998  15.962  14.881   7.174  0.0237 -0.0965 -0.0132
  765POPS   C1B10999  15.238  14.055   6.307 -0.2462  0.1815 -0.0649
  765POPS   C2B11000  15.394  13.970   6.698 -0.0558 -0.0132 -0.0385
  765POPS   C3B11001  15.426  13.987   7.078 -0.0834  0.0474 -0.0643
  765POPS   C4B11002  15.554  14.139   7.539  0.0475  0.1202  0.1757
  766POPS   CNO11003   5.104   5.695   5.151  0.1734 -0.1034  0.3965
  766POPS   PO411004   4.763   5.679   5.387 -0.2378 -0.0342 -0.0583
  766POPS   GL111005   4.665   5.557   5.884  0.4023 -0.0344 -0.0968
  766POPS   GL211006   4.543   5.751   6.131 -0.1969 -0.5088  0.0976
  766POPS   C1A11007   4.854   5.341   6.267  0.0635  0.1965  0.0382
  766POPS   D2A11008   4.952   5.356   6.720 -0.3063  0.0074  0.0001
  766POPS   C3A11009   4.761   5.169   6.978  0.0925  0.2660 -0.1670
  766POPS   C4A11010   4.541   4.794   7.059 -0.0547  0.1031  0.2921
  766POPS   C1B11011   4.634   5.732   6.518  0.1893  0.0231 -0.3288
  766POPS   C2B11012   4.550   5.608   7.014 -0.0646 -0.2086 -0.0777
  766POPS   C3B11013   4.524   5.674   7.461 -0.2341 -0.0364  0.2859
  766POPS   C4B11014   4.765   5.967   7.710 -0.1152 -0.0619 -0.0897
  767POPS   CNO11015   3.344   4.721   5.033 -0.1973 -0.2331  0.5646
  767POPS   PO411016   2.961   4.773   5.328 -0.0407 -0.2025 -0.0211
  767POPS   GL111017   2.764   5.003   5.602 -0.1730  0.1889 -0.1371
  767POPS   GL211018   2.479   4.806   5.619 -0.4666  0.2435 -0.1306
  767POPS   C1A11019   2.711   5.132   5.972  0.1320  0.0703 -0.2391
  767POPS   D2A11020   2.940   5.290   6.323  0.0420 -0.1242 -0.0098
  767POPS   C3A11021   2.659   5.457   6.601 -0.3419 -0.1321  0.3415
  767POPS   C4A11022   2.381   5.390   6.797 -0.0036 -0.1951 -0.0314
  767POPS   C1B11023   2.211   4.975   5.976 -0.0312 -0.1619 -0.0770
  767POPS   C2B11024   1.835   4.886   6.351 -0.0042  0.0661  0.1985
  767POPS   C3B11025   2.000   5.033   6.768  0.1002  0.1961  0.1493
  767POPS   C4B11026   1.917   5.274   6.989 -0.1403 -0.4320 -0.0312
  768POPS   CNO11027   3.878   3.979   4.851 -0.1843 -0.0951 -0.1182
  768POPS   PO411028   3.772   4.295   5.148  0.1146  0.1243  0.0144
  768POPS   GL111029   3.930   4.325   5.576 -0.0565  0.3267 -0.3282
  768POPS   GL211030   3.813   4.123   5.730 -0.0221  0.2152 -0.0608
  768POPS   C1A11031   4.067   4.422   6.006  0.1601  0.0775  0.0663
  768POPS   D2A11032   4.102   4.644   6.303  0.4574 -0.1060  0.0180
  768POPS   C3A11033   4.090   4.613   6.722 -0.1178  0.2010 -0.3841
  768POPS   C4A11034   4.369   4.366   7.021  0.0465 -0.1212 -0.1188
  768POPS   C1B11035   3.803   3.962   6.050 -0.1214 -0.1520  0.1878
  768POPS   C2B11036   3.568   3.921   6.385  0.1378 -0.0297 -0.2589
  768POPS   C3B11037   3.772   3.959   6.763  0.0283 -0.2615  0.0352
  768POPS   C4B11038   3.934   4.137   7.005  0.2218  0.1798 -0.1344
  769POPS   CNO11039  15.395   9.900   5.144 -0.0441 -0.1905  0.1879
  769POPS   PO411040  15.126  10.069   5.495  0.0341  0.2498 -0.2965
  769POPS   GL111041  15.131   9.989   5.871  0.0896 -0.0923 -0.1453
  769POPS   GL211042  14.862   9.770   6.102  0.0367 -0.1381 -0.0064
  769POPS   C1A11043  15.144  10.172   6.358 -0.0197  0.0202 -0.1890
  769POPS   D2A11044  15.119  10.373   6.702  0.0267  0.2959 -0.0215
  769POPS   C3A11045  15.008  10.219   7.087  0.1648  0.1356  0.3003
  769POPS   C4A11046  14.680  10.100   7.393  0.1826 -0.0426  0.2164
  769POPS   C1B11047  14.914   9.515   6.483  0.1578  0.1242 -0.1440
  769POPS   C2B11048  15.087   9.351   6.941  0.0053  0.1267 -0.0354
  769POPS   C3B11049  15.183   9.161   7.299  0.0903  0.0185 -0.0902
  769POPS   C4B11050  15.588   8.846   7.218  0.0400 -0.1060  0.0818
  770POPS   CNO11051   9.155  13.369   5.187  0.3597  0.1234 -0.2244
  770POPS   PO411052   8.810  13.427   5.526  0.1280 -0.1216  0.2372
  770POPS   GL111053   8.761  13.237   5.904  0.1311  0.1981 -0.2211
  770POPS   GL211054   8.540  13.033   5.975 -0.2106  0.0290  0.1854
  770POPS   C1A11055   9.014  13.109   6.270 -0.1001 -0.1324 -0.0360
  770POPS   D2A11056   8.918  12.856   6.555 -0.2011 -0.0561  0.0582
  770POPS   C3A11057   8.973  13.067   6.910  0.1859 -0.0354  0.2055
  770POPS   C4A11058   9.148  13.078   7.303  0.1035  0.2258  0.0125
  770POPS   C1B11059   8.517  12.716   6.309  0.1229  0.2875 -0.0521
  770POPS   C2B11060   8.441  12.995   6.679 -0.1579 -0.1177 -0.0589
  770POPS   C3B11061   8.284  13.018   7.108  0.0074  0.0403  0.0576
  770POPS   C4B11062   8.278  13.010   7.472 -0.0502  0.2654  0.2248
  771POPS   CNO11063   8.196  11.278   5.617  0.3798 -0.0980 -0.1186
  771POPS   PO411064   7.883  11.680   5.679 -0.1322  0.2232  0.0484
  771POPS   GL111065   8.156  11.685   5.979  0.0454 -0.1079  0.3884
  771POPS   GL211066   8.487  11.702   5.995  0.3934 -0.1314 -0.1876
  771POPS   C1A11067   8.261  11.826   6.513 -0.3580  0.1838  0.3510
  771POPS   D2A11068   7.928  11.880   6.804 -0.1285  0.3091  0.1649
  771POPS   C3A11069   7.983  12.134   7.179  0.0157  0.0907 -0.0730
  771POPS   C4A11070   8.103  11.965   7.547  0.2300  0.1369  0.3700
  771POPS   C1B11071   8.711  11.678   6.387 -0.3893 -0.2627  0.1392
  771POPS   C2B11072   8.733  11.847   6.764  0.1908  0.2277  0.0446
  771POPS   C3B11073   8.593  12.222   7.039 -0.0482 -0.0472 -0.0237
  771POPS   C4B11074   8.501  12.461   7.388  0.1323 -0.1105  0.2026
  772POPS   CNO11075   0.770   8.317   5.329 -0.4232  0.0434 -0.0700
  772POPS   PO411076   0.848   8.717   5.460 -0.0199 -0.0223 -0.0426
  772POPS   GL111077   1.104   8.578   5.772 -0.2352 -0.0354 -0.0903
  772POPS   GL211078   1.454   8.371   5.590 -0.2965 -0.2815 -0.0824
  772POPS   C1A11079   1.235   8.485   6.228 -0.3119  0.1394  0.0676
  772POPS   D2A11080   1.243   8.425   6.662  0.1624 -0.1107 -0.0906
  772POPS   C3A11081   1.563   8.086   6.910 -0.1192 -0.1305 -0.2322
  772POPS   C4A11082   1.832   7.725   7.000 -0.2375 -0.1552  0.0500
  772POPS   C1B11083   1.652   8.479   5.948  0.2114 -0.1005  0.1581
  772POPS   C2B11084   2.073   8.444   6.054 -0.0659  0.4007  0.0267
  772POPS   C3B11085   2.244   8.266   6.475  0.3004  0.0949  0.1060
  772POPS   C4B11086   2.292   7.965   6.802 -0.0522  0.0021  0.0366
  773POPS   CNO11087  17.188  10.450   4.837 -0.2081  0.1513  0.1442
  773POPS   PO411088  17.157  10.170   5.209 -0.1132  0.1841 -0.3325
  773POPS   GL111089  17.417  10.038   5.494  0.1435 -0.1546 -0.4268
  773POPS   GL211090  17.253  10.007   5.780 -0.0293  0.0540 -0.1180
  773POPS   C1A11091  17.761   9.878   5.749 -0.0218  0.0923 -0.2834
  773POPS   D2A11092  18.003   9.428   5.937 -0.0630  0.1930  0.1957
  773POPS   C3A11093  17.913   9.122   6.037 -0.2563 -0.3019  0.0966
  773POPS   C4A11094  17.577   8.857   5.917 -0.2407 -0.0381  0.0010
  773POPS   C1B11095  17.407  10.084   6.210 -0.0927 -0.0513  0.0798
  773POPS   C2B11096  17.770   9.835   6.460 -0.1029 -0.2964  0.0669
  773POPS   C3B11097  18.035   9.520   6.478 -0.1659 -0.1433  0.0702
  773POPS   C4B11098  18.016   9.048   6.539 -0.4252  0.0242  0.0227
  774POPS   CNO11099  15.218   3.884   5.781  0.2123  0.2076  0.3485
  774POPS   PO411100  15.637   3.837   5.406  0.4290  0.1301  0.0762
  774POPS   GL111101  15.745   4.094   5.797 -0.1855 -0.2120  0.1222
  774POPS   GL211102  15.840   3.912   6.146 -0.0784  0.2958 -0.1064
  774POPS   C1A11103  15.393   4.167   6.219 -0.3967  0.1746 -0.1547
  774POPS   D2A11104  15.410   4.399   6.667  0.0257 -0.1679 -0.2392
  774POPS   C3A11105  15.448   4.732   6.825 -0.1714  0.0340 -0.1303
  774POPS   C4A11106  15.538   5.152   7.033 -0.2627 -0.1614 -0.1513
  774POPS   C1B11107  15.836   4.197   6.505  0.1303 -0.2644  0.0743
  774POPS   C2B11108  15.927   4.468   6.811  0.0416 -0.1966 -0.2541
  774POPS   C3B11109  16.154   4.395   7.229  0.3480  0.1818 -0.1889
  774POPS   C4B11110  16.342   4.587   7.528 -0.1652  0.0289 -0.1398
  775POPS   CNO11111  18.442  15.495   5.200  0.1884 -0.1841 -0.1561
  775POPS   PO411112  18.644  15.687   5.620  0.3921  0.3159 -0.1810
  775POPS   GL111113  18.820  15.799   6.087 -0.0285 -0.1425  0.1134
  775POPS   GL211114  18.776  15.403   6.071  0.0794 -0.3946 -0.1070
  775POPS   C1A11115  19.051  15.753   6.402  0.2828 -0.5258 -0.0034
  775POPS   D2A11116  19.336  15.610   6.647  0.0167 -0.2264  0.0481
  775POPS   C3A11117  19.133  15.331   6.953 -0.0121  0.1894 -0.0650
  775POPS   C4A11118  18.690  15.385   7.123 -0.1557  0.0929 -0.0162
  775POPS   C1B11119  19.182  15.257   6.335  0.0445 -0.1661  0.1186
  775POPS   C2B11120  19.397  15.056   6.646  0.2542 -0.0367 -0.1959
  775POPS   C3B11121  19.397  14.827   7.014  0.2186  0.1089 -0.2442
  775POPS   C4B11122  19.141  14.894   7.361 -0.0125  0.0027 -0.0657
  776POPS   CNO11123  13.528  15.867   5.784  0.0424 -0.0849 -0.0120
  776POPS   PO411124  13.653  15.566   5.970 -0.0170 -0.0711 -0.1592
  776POPS   GL111125  13.571  15.580   6.377  0.3211  0.3561 -0.1379
  776POPS   GL211126  13.572  15.823   6.692  0.1941  0.2105  0.1045
  776POPS   C1A11127  13.747  15.339   6.694 -0.0387 -0.0372  0.2983
  776POPS   D2A11128  13.803  15.267   7.216 -0.3582  0.1943  0.1379
  776POPS   C3A11129  13.720  14.842   7.366  0.1994  0.1907  0.0818
  776POPS   C4A11130  13.452  14.645   7.425 -0.0759  0.0683 -0.1506
  776POPS   C1B11131  13.620  15.717   7.076 -0.2230  0.0763  0.1543
  776POPS   C2B11132  13.483  15.624   7.531 -0.0037  0.0230 -0.1207
  776POPS   C3B11133  13.406  15.465   8.011  0.2687 -0.0322 -0.2430
  776POPS   C4B11134  13.538  15.210   8.277 -0.1465  0.0859 -0.0679
  777POPS   CNO11135   8.277   2.127   5.848 -0.0174  0.1101  0.2114
  777POPS   PO411136   8.706   2.317   6.038  0.1090 -0.2555 -0.0827
  777POPS   GL111137   8.749   2.553   6.419  0.0954 -0.0972 -0.1137
  777POPS   GL211138   9.026   2.531   6.432 -0.1680 -0.1866  0.0798
  777POPS   C1A11139   8.808   2.726   6.905 -0.0947 -0.0373  0.0494
  777POPS   D2A11140   8.583   2.419   7.233  0.0859  0.4558  0.1214
  777POPS   C3A11141   8.353   2.319   7.575  0.0202 -0.1220  0.1381
  777POPS   C4A11142   8.096   2.582   7.853 -0.0224 -0.0689  0.1652
  777POPS   C1B11143   9.051   2.135   6.685 -0.1274  0.1503 -0.4413
  777POPS   C2B11144   8.992   2.164   7.135 -0.0010  0.1104 -0.0584
  777POPS   C3B11145   8.773   2.029   7.463 -0.1467 -0.0404 -0.0569
  777POPS   C4B11146   8.778   1.701   7.834  0.2334 -0.0740 -0.3064
  778POPS   CNO11147  14.236   4.781   5.178  0.0898  0.0941  0.1827
  778POPS   PO411148  14.084   5.074   5.540  0.3308 -0.0625  0.3596
  778POPS   GL111149  14.209   5.128   5.970  0.3544 -0.0746  0.2642
  778POPS   GL211150  14.370   4.886   6.186 -0.0836  0.1354 -0.2130
  778POPS   C1A11151  14.211   5.359   6.277 -0.2618  0.0425 -0.0420
  778POPS   D2A11152  14.455   5.549   6.587 -0.4379 -0.1379 -0.0572
  778POPS   C3A11153  14.324   5.760   6.866 -0.1101  0.2228 -0.3297
  778POPS   C4A11154  14.203   6.080   7.139  0.0182  0.2809 -0.2833
  778POPS   C1B11155  14.539   5.081   6.547  0.1098 -0.0015  0.2635
  778POPS   C2B11156  14.621   5.094   7.018  0.2389  0.2447 -0.0172
  778POPS   C3B11157  14.639   5.157   7.461  0.1356  0.1586  0.5308
  778POPS   C4B11158  14.394   5.321   7.793 -0.0266  0.1664 -0.0313
  779POPS   CNO11159   1.489  16.752   5.262  0.0528  0.3497 -0.1132
  779POPS   PO411160   1.690  17.002   5.709 -0.2136 -0.1457 -0.0022
  779POPS   GL111161   1.809  16.994   6.090  0.0117  0.0236 -0.2146
  779POPS   GL211162   2.111  17.035   6.315 -0.1416 -0.1284  0.0909
  779POPS   C1A11163   1.617  16.955   6.481 -0.1716 -0.1174  0.0943
  779POPS   D2A11164   1.458  17.209   6.830  0.1622  0.1786  0.0114
  779POPS   C3A11165   1.111  16.949   7.120 -0.3297  0.1446  0.1920
  779POPS   C4A11166   1.100  16.538   7.299  0.1074  0.0892 -0.1528
  779POPS   C1B11167   2.100  17.143   6.693 -0.1043  0.1909  0.1694
  779POPS   C2B11168   2.244  16.976   7.058  0.2142 -0.0556 -0.1436
  779POPS   C3B11169   2.544  17.154   7.396  0.0107  0.0085  0.1627
  779POPS   C4B11170   2.501  17.489   7.751  0.1460 -0.4453  0.1615
  780POPS   CNO11171  13.310  11.374   5.493  0.1243  0.1229 -0.0155
  780POPS   PO411172  13.186  11.605   5.822 -0.1737  0.2603 -0.0519
  780POPS   GL111173  13.265  11.586   6.129 -0.1049 -0.0995 -0.3599
  780POPS   GL211174  13.306  11.942   6.332  0.2530 -0.1798 -0.3035
  780POPS   C1A11175  13.123  11.574   6.589  0.2616  0.1936 -0.1166
  780POPS   D2A11176  12.868  11.400   6.914  0.0245 -0.4263 -0.1822
  780POPS   C3A11177  12.400  11.457   6.636  0.0011  0.1694  0.0649
  780POPS   C4A11178  11.996  11.547   6.623  0.0118  0.2314 -0.3935
  780POPS   C1B11179  13.291  12.019   6.721 -0.1653  0.0231 -0.1884
  780POPS   C2B11180  13.243  11.726   7.093  0.0530 -0.1169  0.0551
  780POPS   C3B11181  13.355  11.303   7.165 -0.1708  0.2727 -0.0360
  780POPS   C4B11182  13.310  11.159   7.576 -0.2764 -0.0498  0.0946
  781POPS   CNO11183  13.836   3.421   6.123 -0.0521  0.1073  0.0613
  781POPS   PO411184  14.186   3.664   5.995 -0.1651 -0.1560 -0.3669
  781POPS   GL111185  14.157   3.736   6.366 -0.2240 -0.1381  0.0128
  781POPS   GL211186  14.181   3.456   6.516  0.2802 -0.1142 -0.0430
  781POPS   C1A11187  14.174   4.100   6.658 -0.2770 -0.2398  0.1591
  781POPS   D2A11188  13.996   4.365   7.114 -0.0361  0.0086  0.1538
  781POPS   C3A11189  13.871   4.550   7.614 -0.1712  0.0517  0.2716
  781POPS   C4A11190  14.020   4.736   7.971  0.0411  0.1630 -0.2275
  781POPS   C1B11191  14.165   3.608   6.896  0.0425  0.1124  0.2328
  781POPS   C2B11192  14.253   3.912   7.190 -0.3054 -0.0946 -0.1348
  781POPS   C3B11193  14.241   4.221   7.492  0.2174  0.0610 -0.1944
  781POPS   C4B11194  14.582   4.338   7.783 -0.1312 -0.0881  0.2802
  782POPS   CNO11195  13.247  15.275   6.146 -0.0495  0.0545 -0.1500
  782POPS   PO411196  12.826  15.269   6.196  0.4505 -0.0455 -0.2125
  782POPS   GL111197  12.544  15.238   6.524 -0.0535  0.2705  0.0186
  782POPS   GL211198  12.384  15.457   6.558  0.0155 -0.1647  0.2291
  782POPS   C1A11199  12.315  15.153   6.942 -0.0075  0.1086  0.0645
  782POPS   D2A11200  12.263  15.027   7.315 -0.2023 -0.0988 -0.2355
  782POPS   C3A11201  12.213  14.619   7.476 -0.2281 -0.0735  0.0826
  782POPS   C4A11202  12.121  14.179   7.436  0.2288 -0.0056  0.1140
  782POPS   C1B11203  12.634  15.563   6.998 -0.1634  0.3627 -0.0948
  782POPS   C2B11204  12.592  15.390   7.411 -0.0397  0.2603 -0.0660
  782POPS   C3B11205  12.710  15.246   7.684  0.2602  0.1377 -0.0062
  782POPS   C4B11206  12.570  15.211   8.128 -0.0413  0.0774 -0.1135
  783POPS   CNO11207   7.643   6.075   5.689 -0.3089  0.2244 -0.1201
  783POPS   PO411208   7.494   6.480   5.863  0.1575  0.0236  0.1149
  783POPS   GL111209   7.167   6.621   6.190  0.4931 -0.1706 -0.3108
  783POPS   GL211210   6.933   6.321   6.405 -0.0735  0.3250  0.2059
  783POPS   C1A11211   7.042   6.767   6.636 -0.1200 -0.0384 -0.0118
  783POPS   D2A11212   6.885   7.020   6.989  0.0222  0.3939  0.1646
  783POPS   C3A11213   6.580   6.837   7.245  0.0108  0.0339 -0.0245
  783POPS   C4A11214   6.279   6.990   7.598 -0.0754  0.2236  0.3316
  783POPS   C1B11215   6.866   6.335   6.860  0.0807  0.1037  0.1472
  783POPS   C2B11216   6.951   6.269   7.256  0.0736  0.0964  0.0671
  783POPS   C3B11217   7.278   6.412   7.634  0.1598  0.2824 -0.0869
  783POPS   C4B11218   7.677   6.334   7.751  0.0223 -0.0945  0.0019
  784POPS   CNO11219   0.811   2.658   5.445 -0.2133  0.3262 -0.3325
  784POPS   PO411220   1.170   2.478   5.426 -0.1435  0.0240 -0.1991
  784POPS   GL111221   1.175   2.461   5.909 -0.1396  0.3317  0.2396
  784POPS   GL211222   0.884   2.470   6.034  0.0052  0.2673  0.0042
  784POPS   C1A11223   1.146   2.327   6.401 -0.1723 -0.2511 -0.2110
  784POPS   D2A11224   1.206   2.380   6.877  0.3059  0.1451  0.0509
  784POPS   C3A11225   1.518   2.161   7.185  0.2667  0.1426 -0.3138
  784POPS   C4A11226   1.589   2.052   7.585 -0.1637 -0.0276  0.1220
  784POPS   C1B11227   0.768   2.622   6.353 -0.3214 -0.0346 -0.0430
  784POPS   C2B11228   0.748   2.686   6.879 -0.1698  0.0098 -0.0154
  784POPS   C3B11229   0.816   2.766   7.298  0.2939  0.1281 -0.2093
  784POPS   C4B11230   0.831   2.869   7.579  0.0761  0.0759  0.1081
  785POPS   CNO11231  17.530  16.468   5.259  0.4309 -0.2488 -0.0012
  785POPS   PO411232  17.504  16.948   5.488 -0.3785  0.1272  0.1125
  785POPS   GL111233  17.612  16.606   5.754 -0.1032  0.2855  0.0571
  785POPS   GL211234  17.414  16.550   6.092  0.1201 -0.0134 -0.1911
  785POPS   C1A11235  17.745  16.172   5.979 -0.0338 -0.1768  0.4392
  785POPS   D2A11236  17.854  15.800   6.045 -0.1309  0.0535  0.1041
  785POPS   C3A11237  17.493  15.597   6.240  0.1608  0.3431 -0.4595
  785POPS   C4A11238  17.353  15.194   6.360 -0.1415 -0.1549  0.2611
  785POPS   C1B11239  17.214  16.530   6.524 -0.2075  0.1242 -0.0092
  785POPS   C2B11240  17.087  16.543   6.953 -0.2867 -0.0290  0.0311
  785POPS   C3B11241  17.018  16.553   7.309  0.0947  0.0030  0.2838
  785POPS   C4B11242  16.945  16.692   7.712 -0.0960  0.2829  0.1120
  786POPS   CNO11243  16.498  12.468   5.256  0.3262 -0.2510  0.0884
  786POPS   PO411244  16.814  12.311   5.454 -0.2402 -0.0526 -0.1335
  786POPS   GL111245  16.618  12.370   5.832  0.2668 -0.0390 -0.2690
  786POPS   GL211246  16.763  12.101   5.926 -0.1001 -0.0387 -0.1838
  786POPS   C1A11247  16.459  12.621   6.121  0.2202 -0.3951 -0.1386
  786POPS   D2A11248  16.177  12.647   6.458 -0.0577  0.1172  0.0668
  786POPS   C3A11249  16.362  12.890   6.806 -0.1709 -0.1584 -0.0161
  786POPS   C4A11250  16.608  13.000   7.208 -0.0092 -0.0048 -0.0076
  786POPS   C1B11251  16.765  12.175   6.370  0.1518 -0.0654  0.2114
  786POPS   C2B11252  16.730  12.545   6.564  0.0561  0.2570  0.1642
  786POPS   C3B11253  16.576  13.019   6.366 -0.2421 -0.1095 -0.0074
  786POPS   C4B11254  16.387  13.329   6.007  0.0860 -0.2634 -0.4922
  787POPS   CNO11255   4.241   7.801   5.492  0.0983  0.0748  0.2830
  787POPS   PO411256   4.002   7.767   5.821  0.0012 -0.0006 -0.5245
  787POPS   GL111257   4.123   7.753   6.259 -0.2073 -0.0205  0.0833
  787POPS   GL211258   4.405   8.010   6.218 -0.0589 -0.1432  0.1128
  787POPS   C1A11259   3.953   7.499   6.609 -0.2313 -0.0846 -0.1156
  787POPS   D2A11260   3.553   7.448   6.801 -0.1101  0.3531  0.0403
  787POPS   C3A11261   3.635   7.301   7.119 -0.2352 -0.2308 -0.0885
  787POPS   C4A11262   3.496   6.972   7.337  0.1076  0.2266  0.0347
  787POPS   C1B11263   4.591   7.916   6.568 -0.4299  0.1338 -0.0731
  787POPS   C2B11264   4.486   7.640   6.800 -0.1256  0.1020  0.0258
  787POPS   C3B11265   4.421   7.610   7.132  0.2477  0.0350 -0.2547
  787POPS   C4B11266   4.379   7.465   7.547  0.0684  0.0258  0.0175
  788POPS   CNO11267   2.989  16.332   5.921  0.0563  0.4766  0.2531
  788POPS   PO411268   3.215  15.970   5.886  0.0546 -0.0907  0.1510
  788POPS   GL111269   2.966  15.901   6.265  0.0231 -0.2619  0.3500
  788POPS   GL211270   2.748  16.085   6.320  0.0112  0.1363 -0.2407
  788POPS   C1A11271   3.153  15.909   6.590  0.0143 -0.3292 -0.1369
  788POPS   D2A11272   3.223  16.044   7.027 -0.1082 -0.0960  0.3285
  788POPS   C3A11273   3.291  15.846   7.349  0.1566  0.1872  0.2384
  788POPS   C4A11274   3.591  15.612   7.752 -0.1023  0.0141 -0.0025
  788POPS   C1B11275   2.836  16.214   6.768  0.0851  0.0582  0.2646
  788POPS   C2B11276   2.761  16.202   7.129 -0.0470 -0.2476  0.0986
  788POPS   C3B11277   2.835  16.167   7.537  0.0760  0.1993 -0.1779
  788POPS   C4B11278   2.949  16.305   7.915 -0.4345 -0.2657 -0.0102
  789POPS   CNO11279  17.112  14.183   4.988 -0.0437 -0.1143 -0.0908
  789POPS   PO411280  17.002  14.100   5.361 -0.0409  0.1088  0.1272
  789POPS   GL111281  17.176  14.135   5.740 -0.1403  0.0426 -0.0029
  789POPS   GL211282  17.406  13.809   5.735 -0.0072  0.0305 -0.2434
  789POPS   C1A11283  16.931  14.266   6.146 -0.2177  0.1768  0.2526
  789POPS   D2A11284  16.963  14.177   6.477  0.1865  0.1272 -0.2287
  789POPS   C3A11285  16.809  14.460   6.837  0.0307  0.0590 -0.0785
  789POPS   C4A11286  16.880  14.503   7.208 -0.0586 -0.1333  0.1347
  789POPS   C1B11287  17.206  13.708   6.103  0.0059 -0.3268  0.0003
  789POPS   C2B11288  16.788  13.750   6.149  0.0769  0.0187  0.0322
  789POPS   C3B11289  16.478  13.649   6.373  0.0199  0.1860  0.3897
  789POPS   C4B11290  16.218  13.333   6.565  0.0120  0.1021 -0.2524
  790POPS   CNO11291  17.950   0.097   5.213 -0.0244  0.0211 -0.1811
  790POPS   PO411292  18.066   0.499   5.423 -0.0053 -0.1972 -0.4299
  790POPS   GL111293  18.026   0.257   5.882  0.0792  0.0914 -0.2873
  790POPS   GL211294  18.375   0.110   6.011 -0.1512  0.0097  0.2338
  790POPS   C1A11295  17.996   0.180   6.431 -0.2477  0.0242  0.1145
  790POPS   D2A11296  17.781   0.457   6.711  0.1389  0.2616 -0.0977
  790POPS   C3A11297  17.862   0.484   7.111  0.0327 -0.2122 -0.2151
  790POPS   C4A11298  18.056   0.651   7.465 -0.0676 -0.0077  0.0908
  790POPS   C1B11299  18.710   0.260   6.282  0.2664 -0.1615 -0.0206
  790POPS   C2B11300  18.894   0.163   6.591  0.0131  0.1897  0.0392
  790POPS   C3B11301  19.233   0.083   6.778  0.1282  0.2003 -0.1621
  790POPS   C4B11302  19.554  -0.098   6.906 -0.0525  0.3130 -0.0381
  791POPS   CNO11303   4.586  13.564   5.489  0.3694  0.1478  0.1812
  791POPS   PO411304   4.353  13.368   5.283 -0.0545 -0.1361 -0.0878
  791POPS   GL111305   4.380  13.178   5.707 -0.0415  0.1145  0.0279
  791POPS   GL211306   4.266  13.323   5.867  0.1230 -0.0291 -0.0211
  791POPS   C1A11307   4.124  12.866   5.909 -0.1531 -0.3773 -0.1472
  791POPS   D2A11308   3.908  12.906   6.302 -0.1591  0.0263 -0.1306
  791POPS   C3A11309   3.595  12.600   6.593  0.1030 -0.1819 -0.0433
  791POPS   C4A11310   3.327  12.531   6.954 -0.1260 -0.4018 -0.1118
  791POPS   C1B11311   4.477  13.235   6.213 -0.1187 -0.3344  0.0291
  791POPS   C2B11312   4.813  13.315   6.493  0.0453 -0.1850  0.2034
  791POPS   C3B11313   5.216  13.201   6.684  0.3051 -0.0392  0.1541
  791POPS   C4B11314   5.316  13.079   7.098  0.1934 -0.0192  0.0732
  792POPS   CNO11315   9.853  10.106   5.393 -0.0621 -0.0202  0.1462
  792POPS   PO411316   9.812  10.090   5.849 -0.0072  0.0420 -0.0988
  792POPS   GL111317   9.423   9.907   6.113  0.2150  0.0663  0.1647
  792POPS   GL211318   9.443  10.180   6.176  0.0608 -0.0185 -0.0305
  792POPS   C1A11319   9.411   9.794   6.596  0.0430 -0.3263  0.2247
  792POPS   D2A11320   9.637  10.064   6.930  0.0750  0.1068 -0.3240
  792POPS   C3A11321   9.209  10.111   7.124 -0.1496  0.0850 -0.1706
  792POPS   C4A11322   8.831   9.982   7.284 -0.3226 -0.0649 -0.3417
  792POPS   C1B11323   9.433  10.296   6.527 -0.1948 -0.0707  0.2583
  792POPS   C2B11324   9.580  10.546   6.792 -0.1878  0.1090  0.1764
  792POPS   C3B11325   9.559  10.563   7.247  0.1532 -0.1595  0.2477
  792POPS   C4B11326   9.525  10.830   7.675  0.2565 -0.0299  0.0055
  793POPS   CNO11327   2.033  14.295   5.638  0.1920 -0.0710 -0.0734
  793POPS   PO411328   1.680  14.400   5.367 -0.0828  0.3313  0.0162
  793POPS   GL111329   1.415  14.244   5.792 -0.0220  0.4009 -0.0530
  793POPS   GL211330   1.307  13.806   5.728 -0.1199 -0.1947 -0.0093
  793POPS   C1A11331   1.339  14.429   6.342  0.2610 -0.0119  0.3890
  793POPS   D2A11332   1.105  14.346   6.665 -0.0038  0.2894 -0.5938
  793POPS   C3A11333   1.267  13.980   6.858  0.0181  0.0734  0.1661
  793POPS   C4A11334   1.409  13.695   7.224  0.3816 -0.0305 -0.1652
  793POPS   C1B11335   1.567  13.895   6.098 -0.0904 -0.1670  0.0353
  793POPS   C2B11336   1.674  14.005   6.534 -0.0135  0.0793  0.2129
  793POPS   C3B11337   1.762  13.804   6.853  0.5479  0.2110 -0.3276
  793POPS   C4B11338   1.825  13.410   7.034 -0.3360  0.1168  0.4024
  794POPS   CNO11339   1.192   8.073   5.228  0.0759 -0.1140 -0.1934
  794POPS   PO411340   0.894   7.769   5.282 -0.0017  0.0491 -0.1451
  794POPS   GL111341   0.835   7.564   5.626  0.1094 -0.1588 -0.1038
  794POPS   GL211342   1.006   7.620   5.878  0.1166 -0.0287 -0.1304
  794POPS   C1A11343   0.674   7.294   5.990  0.1128  0.2677  0.0211
  794POPS   D2A11344   0.827   7.184   6.320 -0.0784  0.2339 -0.1316
  794POPS   C3A11345   0.756   7.405   6.678  0.1492  0.2475 -0.0457
  794POPS   C4A11346   0.899   7.501   7.046  0.0700  0.0007  0.1165
  794POPS   C1B11347   0.811   7.754   6.261 -0.5367 -0.2371 -0.3893
  794POPS   C2B11348   1.121   7.785   6.726 -0.2646 -0.0824  0.0634
  794POPS   C3B11349   1.135   7.906   7.155  0.2159 -0.1761  0.0180
  794POPS   C4B11350   0.798   7.987   7.379  0.1948 -0.1703 -0.0233
  795POPS   CNO11351   7.209  17.766   6.066 -0.2006  0.1757 -0.1188
  795POPS   PO411352   7.378  17.486   5.820 -0.1044 -0.0413  0.0249
  795POPS   GL111353   7.539  17.275   6.205 -0.0472 -0.1288 -0.0443
  795POPS   GL211354   7.640  16.969   6.255 -0.1173 -0.0259  0.2301
  795POPS   C1A11355   7.295  17.469   6.521  0.1117  0.2055 -0.3477
  795POPS   D2A11356   7.135  17.608   6.933  0.2160 -0.0450  0.2837
  795POPS   C3A11357   7.206  17.434   7.419 -0.2380  0.1145  0.2432
  795POPS   C4A11358   6.965  17.605   7.736  0.1566  0.1682 -0.0216
  795POPS   C1B11359   7.739  16.583   6.617 -0.1097  0.0201  0.2270
  795POPS   C2B11360   7.891  16.435   6.939  0.1263  0.1652 -0.1286
  795POPS   C3B11361   8.239  16.230   6.853 -0.0537  0.1565  0.3647
  795POPS   C4B11362   8.417  15.962   6.998 -0.1143  0.2486 -0.0857
  796POPS   CNO11363  17.125   5.621   4.813 -0.2983  0.0519  0.0243
  796POPS   PO411364  17.387   5.835   5.067 -0.2859  0.2399  0.0259
  796POPS   GL111365  17.565   5.653   5.449  0.3171  0.2329  0.1048
  796POPS   GL211366  17.717   5.424   5.441  0.1122 -0.2824 -0.0358
  796POPS   C1A11367  17.502   5.709   5.958 -0.3035  0.5859 -0.0251
  796POPS   D2A11368  17.451   5.671   6.340 -0.1221 -0.2988 -0.0246
  796POPS   C3A11369  17.729   5.445   6.700  0.1245  0.1180  0.1440
  796POPS   C4A11370  17.668   5.368   7.169 -0.2852  0.3648  0.2022
  796POPS   C1B11371  17.494   5.229   5.820  0.0173 -0.0996  0.2310
  796POPS   C2B11372  17.735   5.256   6.269  0.0953  0.0223  0.0736
  796POPS   C3B11373  17.883   4.992   6.623 -0.0286  0.1540  0.1615
  796POPS   C4B11374  18.158   5.014   6.844 -0.0598 -0.4155  0.0404
  797POPS   CNO11375   8.679  17.120   5.408 -0.0124 -0.0797  0.2828
  797POPS   PO411376   9.009  16.989   5.633  0.2235 -0.1356  0.2441
  797POPS   GL111377   8.892  16.972   6.036 -0.0057 -0.3939  0.0846
  797POPS   GL211378   8.930  16.590   6.109  0.0622 -0.0533 -0.0727
  797POPS   C1A11379   8.616  17.166   6.389  0.1444  0.1421 -0.0892
  797POPS   D2A11380   8.275  17.193   6.660 -0.3190  0.0144 -0.0002
  797POPS   C3A11381   7.807  17.049   6.732 -0.0522  0.0953  0.0767
  797POPS   C4A11382   7.483  17.244   6.933  0.0100 -0.0491 -0.1424
  797POPS   C1B11383   9.000  16.835   6.564 -0.1234 -0.1286  0.1697
  797POPS   C2B11384   8.761  16.948   6.919 -0.0907  0.0239 -0.1841
  797POPS   C3B11385   8.746  16.999   7.354 -0.1796 -0.1214  0.0812
  797POPS   C4B11386   8.711  16.857   7.681  0.1854  0.1931  0.1600
  798POPS   CNO11387  18.269   7.954   5.009 -0.1191  0.2089 -0.1262
  798POPS   PO411388  17.879   8.197   5.194 -0.0189  0.0789  0.1640
  798POPS   GL111389  18.010   8.202   5.538  0.2231  0.1001 -0.0258
  798POPS   GL211390  18.306   8.067   5.706 -0.1876 -0.0658  0.0999
  798POPS   C1A11391  17.924   8.222   5.966  0.0063 -0.1944 -0.2606
  798POPS   D2A11392  17.926   8.012   6.259 -0.0895  0.1444  0.1036
  798POPS   C3A11393  17.731   8.132   6.556  0.1146 -0.0427 -0.0687
  798POPS   C4A11394  17.371   7.982   6.868  0.0827  0.2382  0.0751
  798POPS   C1B11395  18.577   7.658   5.845 -0.0759 -0.0898  0.2106
  798POPS   C2B11396  18.731   7.429   6.131  0.2775  0.5464 -0.1545
  798POPS   C3B11397  19.017   7.393   6.373 -0.1222 -0.2618  0.0083
  798POPS   C4B11398  18.883   7.152   6.776  0.2240 -0.0300  0.0172
  799POPS   CNO11399   8.527   1.157   5.701 -0.1119 -0.0805  0.1940
  799POPS   PO411400   8.825   1.304   5.923  0.0254 -0.1443 -0.1074
  799POPS   GL111401   8.879   1.135   6.367  0.3629  0.4010 -0.0914
  799POPS   GL211402   8.789   0.909   6.550 -0.1116  0.1354 -0.1154
  799POPS   C1A11403   8.715   1.393   6.703  0.0457  0.0242  0.0040
  799POPS   D2A11404   8.761   1.129   7.049  0.1954  0.0291 -0.2158
  799POPS   C3A11405   8.740   1.119   7.429 -0.0499  0.0112 -0.0116
  799POPS   C4A11406   8.828   1.200   7.801 -0.0173  0.1216 -0.1687
  799POPS   C1B11407   8.475   0.788   6.863 -0.3077  0.1575  0.4213
  799POPS   C2B11408   8.336   0.850   7.267  0.1183 -0.0369  0.4156
  799POPS   C3B11409   8.012   0.673   7.554  0.1539  0.2772  0.0514
  799POPS   C4B11410   7.769   0.344   7.837  0.0997 -0.2998  0.3280
  800POPS   CNO11411   9.475   3.480   6.070  0.1607  0.1030  0.2696
  800POPS   PO411412   9.668   3.896   5.867  0.0909  0.0234 -0.1232
  800POPS   GL111413   9.778   3.888   6.321  0.0714 -0.0947 -0.1735
  800POPS   GL211414   9.447   3.950   6.327  0.4230 -0.0902  0.3489
  800POPS   C1A11415   9.758   3.910   6.688 -0.1706  0.0346 -0.2807
  800POPS   D2A11416   9.633   3.979   7.093 -0.1158 -0.0567 -0.0542
  800POPS   C3A11417   9.774   4.117   7.381 -0.1276 -0.0096 -0.0398
  800POPS   C4A11418   9.753   4.400   7.727 -0.0785  0.2400  0.0954
  800POPS   C1B11419   9.261   4.093   6.671 -0.0627  0.3533 -0.0062
  800POPS   C2B11420   9.258   4.223   7.146  0.3134 -0.0692  0.0728
  800POPS   C3B11421   9.300   4.541   7.297  0.1394 -0.1436  0.1579
  800POPS   C4B11422   9.203   4.993   7.353 -0.2192  0.2423  0.2219
  801POPS   CNO11423  14.286  10.782   5.426 -0.0005 -0.1174  0.3360
  801POPS   PO411424  14.314  10.566   5.656  0.0597 -0.0476 -0.0587
  801POPS   GL111425  14.509  10.395   5.937 -0.1544 -0.0173 -0.0226
  801POPS   GL211426  14.797  10.305   6.009 -0.1145 -0.0174 -0.0867
  801POPS   C1A11427  14.549  10.442   6.411  0.2610 -0.1659  0.1498
  801POPS   D2A11428  14.601  10.491   6.892  0.3578  0.3372  0.0106
  801POPS   C3A11429  14.919  10.755   7.063 -0.0346 -0.1142  0.4166
  801POPS   C4A11430  15.409  10.683   7.082 -0.1157 -0.0974 -0.0901
  801POPS   C1B11431  14.989  10.631   6.129 -0.2760  0.0933 -0.1118
  801POPS   C2B11432  15.120  10.908   6.526  0.1554  0.3387  0.2174
  801POPS   C3B11433  14.859  11.235   6.633  0.0491  0.1039  0.1575
  801POPS   C4B11434  14.388  11.448   6.704  0.0772 -0.0591  0.3691
  802POPS   CNO11435   6.196   8.992   5.788  0.2084 -0.1306  0.3659
  802POPS   PO411436   6.013   8.500   5.749 -0.1719 -0.1888  0.3475
  802POPS   GL111437   5.840   8.534   6.123 -0.2501 -0.1985 -0.2484
  802POPS   GL211438   5.535   8.642   6.146 -0.1185  0.0306 -0.2316
  802POPS   C1A11439   5.781   8.327   6.518  0.0625 -0.2550 -0.0988
  802POPS   D2A11440   5.885   8.222   6.930 -0.0296  0.2493  0.0891
  802POPS   C3A11441   5.796   8.363   7.331 -0.1685 -0.1302 -0.0848
  802POPS   C4A11442   5.572   8.463   7.706 -0.0956 -0.1495  0.2178
  802POPS   C1B11443   5.284   8.455   6.490  0.2849  0.0703 -0.1084
  802POPS   C2B11444   5.056   8.606   6.802  0.0645  0.2037  0.0210
  802POPS   C3B11445   4.742   8.741   6.898  0.2147  0.0470 -0.3745
  802POPS   C4B11446   4.719   9.130   6.833 -0.2026 -0.1330  0.0268
  803POPS   CNO11447  14.260   4.057   5.662 -0.1656 -0.1101 -0.1810
  803POPS   PO411448  13.957   4.173   5.952  0.1081  0.0778 -0.1004
  803POPS   GL111449  14.176   4.354   6.152 -0.2474 -0.0865 -0.2093
  803POPS   GL211450  14.451   4.073   6.114  0.0014  0.0193  0.0291
  803POPS   C1A11451  14.005   4.499   6.562 -0.0776 -0.1224  0.1897
  803POPS   D2A11452  14.319   4.741   6.839 -0.0166 -0.0749  0.1139
  803POPS   C3A11453  14.178   4.803   7.297  0.1015 -0.2780  0.2041
  803POPS   C4A11454  13.929   5.144   7.636 -0.1651 -0.0042  0.0381
  803POPS   C1B11455  14.581   3.901   6.555 -0.1237 -0.0687  0.2575
  803POPS   C2B11456  14.864   3.851   6.837 -0.2413 -0.3869  0.2988
  803POPS   C3B11457  15.162   3.635   7.160  0.1404 -0.0677 -0.0043
  803POPS   C4B11458  15.420   3.623   7.499 -0.2172 -0.0751 -0.2118
  804POPS   CNO11459  15.731   4.335   5.189  0.1393  0.0065 -0.1603
  804POPS   PO411460  16.154   4.572   5.185  0.0277  0.2583  0.1518
  804POPS   GL111461  16.088   4.724   5.609  0.1494  0.1621 -0.2875
  804POPS   GL211462  16.006   4.482   5.701  0.0555  0.4159  0.3679
  804POPS   C1A11463  16.137   4.865   5.966  0.3587 -0.1923 -0.2482
  804POPS   D2A11464  16.246   4.957   6.442 -0.1945 -0.0805  0.2319
  804POPS   C3A11465  15.982   4.939   6.888 -0.3587 -0.0654  0.1833
  804POPS   C4A11466  15.886   4.798   7.333 -0.1549  0.1357 -0.2425
  804POPS   C1B11467  15.812   4.531   6.069  0.0609 -0.2270 -0.1106
  804POPS   C2B11468  15.790   4.712   6.407 -0.1035  0.0692  0.2908
  804POPS   C3B11469  15.628   5.102   6.453 -0.0253 -0.0361 -0.0002
  804POPS   C4B11470  15.400   5.447   6.433  0.3742  0.0190  0.0221
  805POPS   CNO11471  11.248  14.129   5.806  0.3761 -0.0294  0.0443
  805POPS   PO411472  11.107  14.531   6.001 -0.2340  0.0878  0.1031
  805POPS   GL111473  11.101  14.495   6.339 -0.0253 -0.2015 -0.2094
  805POPS   GL211474  11.426  14.708   6.372 -0.0500 -0.2085  0.2793
  805POPS   C1A11475  11.028  14.544   6.744  0.3206  0.0596  0.1941
  805POPS   D2A11476  10.673  14.651   7.025 -0.1183 -0.2512  0.0824
  805POPS   C3A11477  10.822  14.461   7.397  0.1907  0.3392 -0.0410
  805POPS   C4A11478  10.866  14.042   7.730  0.2220 -0.0902  0.2102
  805POPS   C1B11479  11.495  14.625   6.822 -0.0559  0.0840  0.2262
  805POPS   C2B11480  11.652  14.490   7.274  0.0544 -0.1908 -0.1950
  805POPS   C3B11481  11.788  14.581   7.650 -0.0575  0.1401 -0.2437
  805POPS   C4B11482  11.629  14.674   8.041 -0.0962 -0.1221  0.2038
  806POPS   CNO11483  12.361  11.671   5.592 -0.0364 -0.4315  0.0616
  806POPS   PO411484  12.003  11.943   5.959 -0.0415  0.1239 -0.0868
  806POPS   GL111485  11.882  11.953   6.404 -0.1942 -0.3939 -0.1737
  806POPS   GL211486  11.708  12.117   6.473 -0.0335 -0.2076 -0.0204
  806POPS   C1A11487  12.042  12.047   6.841 -0.1295  0.2257  0.1531
  806POPS   D2A11488  11.921  12.172   7.271 -0.0622  0.0669  0.1280
  806POPS   C3A11489  12.089  12.348   7.563 -0.1249  0.1690 -0.0815
  806POPS   C4A11490  11.927  12.382   7.947  0.2034 -0.1925 -0.3872
  806POPS   C1B11491  11.531  12.097   6.824 -0.1312  0.1413 -0.1008
  806POPS   C2B11492  11.382  11.974   7.241  0.1326  0.1813  0.0804
  806POPS   C3B11493  11.326  11.884   7.591  0.1760 -0.2440  0.0664
  806POPS   C4B11494  11.348  11.726   7.985  0.0668 -0.1094 -0.3435
  807POPS   CNO11495   6.471   9.574   5.412 -0.1461  0.1432  0.1316
  807POPS   PO411496   6.527   9.967   5.536 -0.1043 -0.1039  0.2587
  807POPS   GL111497   6.481   9.887   5.948 -0.0442 -0.1663  0.0518
  807POPS   GL211498   6.158   9.782   6.081  0.1589  0.1905  0.0118
  807POPS   C1A11499   6.311  10.226   6.277 -0.2691 -0.0376  0.1587
  807POPS   D2A11500   6.536  10.527   6.561  0.0270  0.3534 -0.1841
  807POPS   C3A11501   6.374  10.587   6.974  0.2068  0.1261 -0.0616
  807POPS   C4A11502   5.958  10.736   7.070  0.0852 -0.0640 -0.0012
  807POPS   C1B11503   6.103   9.818   6.491  0.0983 -0.0153  0.5077
  807POPS   C2B11504   6.062   9.617   6.912  0.0916 -0.1660 -0.2904
  807POPS   C3B11505   6.156   9.654   7.355  0.0818 -0.0717 -0.0538
  807POPS   C4B11506   6.378   9.680   7.636 -0.3512 -0.0541 -0.1528
  808POPS   CNO11507  10.991  10.326   5.662 -0.3025  0.1638  0.2629
  808POPS   PO411508  11.308  10.481   5.805  0.1860 -0.0681  0.0918
  808POPS   GL111509  11.490  10.415   6.171 -0.2325 -0.0411  0.0467
  808POPS   GL211510  11.858  10.550   6.175  0.0498  0.0506 -0.0203
  808POPS   C1A11511  11.547  10.265   6.516  0.0622 -0.1596 -0.0017
  808POPS   D2A11512  11.682  10.235   6.845  0.1287  0.0350 -0.1743
  808POPS   C3A11513  12.148  10.041   6.958 -0.0219  0.0730 -0.2674
  808POPS   C4A11514  12.473  10.233   7.191 -0.1137  0.1407  0.0790
  808POPS   C1B11515  11.962  10.631   6.602 -0.0507  0.0153  0.1851
  808POPS   C2B11516  11.687  10.746   6.920  0.0421 -0.1509  0.2142
  808POPS   C3B11517  11.533  10.517   7.269  0.0514  0.0525  0.1081
  808POPS   C4B11518  11.373  10.068   7.328  0.1195 -0.2034  0.0941
  809POPS   CNO11519  13.866   7.562   5.817  0.0482  0.1789 -0.1843
  809POPS   PO411520  13.836   7.314   5.321 -0.0058  0.0280 -0.1435
  809POPS   GL111521  13.964   7.083   5.711  0.0617 -0.2881 -0.1446
  809POPS   GL211522  13.752   7.054   5.959  0.0451  0.0927  0.0196
  809POPS   C1A11523  14.201   7.265   6.053 -0.2669 -0.0683  0.1196
  809POPS   D2A11524  14.525   7.131   6.401  0.1027  0.1094  0.0861
  809POPS   C3A11525  14.516   6.570   6.487 -0.1679 -0.0634  0.1809
  809POPS   C4A11526  14.432   6.176   6.568  0.2927 -0.1310 -0.2643
  809POPS   C1B11527  13.725   7.215   6.381  0.1491 -0.1290 -0.1449
  809POPS   C2B11528  13.491   7.447   6.656 -0.0863 -0.0470 -0.4241
  809POPS   C3B11529  13.335   7.523   7.120  0.0320  0.0728  0.1321
  809POPS   C4B11530  13.269   7.624   7.595  0.1447 -0.0181  0.4355
  810POPS   CNO11531  10.487  14.384   5.697 -0.0287  0.3015 -0.1001
  810POPS   PO411532  10.351  14.716   5.572 -0.2007  0.1777  0.1667
  810POPS   GL111533  10.060  14.626   5.904  0.1959 -0.0032 -0.1078
  810POPS   GL211534   9.814  14.353   5.927  0.1156 -0.0406  0.1749
  810POPS   C1A11535  10.064  14.658   6.382  0.2687 -0.0042  0.0758
  810POPS   D2A11536  10.255  14.502   6.731  0.0146  0.0300 -0.0274
  810POPS   C3A11537  10.173  14.826   7.041  0.3464  0.1129  0.1404
  810POPS   C4A11538   9.878  14.836   7.359 -0.1610  0.0940  0.1221
  810POPS   C1B11539   9.806  14.260   6.347  0.0062  0.0681  0.2523
  810POPS   C2B11540   9.701  14.457   6.823  0.0745  0.0753 -0.1538
  810POPS   C3B11541   9.542  14.288   7.231 -0.1585 -0.2683 -0.0168
  810POPS   C4B11542   9.733  14.310   7.636  0.0301  0.0988  0.5286
  811POPS   CNO11543   8.456  13.708   5.279 -0.1802 -0.0148  0.1158
  811POPS   PO411544   8.141  13.709   5.599  0.0593 -0.0694 -0.0408
  811POPS   GL111545   8.451  13.632   5.936  0.1731 -0.1139 -0.1044
  811POPS   GL211546   8.248  13.923   6.127 -0.0400 -0.0044  0.0185
  811POPS   C1A11547   8.497  13.523   6.352 -0.0008  0.0472 -0.0167
  811POPS   D2A11548   8.570  13.532   6.791 -0.0886  0.1140 -0.0414
  811POPS   C3A11549   8.625  13.331   7.176 -0.1863 -0.3740  0.1207
  811POPS   C4A11550   8.704  13.238   7.665  0.0062 -0.0517  0.1911
  811POPS   C1B11551   8.401  13.996   6.530 -0.0453  0.1455 -0.0738
  811POPS   C2B11552   8.408  14.122   6.969  0.0921 -0.0761 -0.0950
  811POPS   C3B11553   8.681  13.888   7.233 -0.1826  0.1029  0.1373
  811POPS   C4B11554   8.717  13.815   7.613 -0.3540 -0.2977  0.2892
  812YOPS   CNO11555  12.468   7.456   5.197 -0.1557 -0.2968 -0.1657
  812YOPS   PO411556  12.130   7.518   5.480 -0.1677  0.2144  0.0019
  812YOPS   GL111557  12.204   7.377   5.853 -0.1703  0.1869  0.2518
  812YOPS   GL211558  12.444   7.368   6.063  0.3084  0.3118  0.1356
  812YOPS   C1A11559  12.058   7.558   6.359 -0.0724  0.2232  0.2393
  812YOPS   D2A11560  11.906   7.572   6.839 -0.2353  0.0548  0.1034
  812YOPS   C3A11561  11.465   7.815   7.010  0.0087  0.2321 -0.1420
  812YOPS   C4A11562  11.415   8.132   7.259 -0.2320  0.1859  0.1397
  812YOPS   C1B11563  12.308   7.102   6.361  0.2381  0.1035 -0.1307
  812YOPS   C2B11564  12.358   7.139   6.787  0.2264  0.1837  0.1914
  812YOPS   D3B11565  12.193   7.242   7.181 -0.1445  0.0774  0.2803
  812YOPS   C4B11566  12.052   6.893   7.505 -0.0022 -0.1300 -0.4121
  813YOPS   CNO11567  12.495  12.407   5.554 -0.0339 -0.2260  0.0575
  813YOPS   PO411568  12.835  12.578   5.933  0.3394 -0.3148  0.1118
  813YOPS   GL111569  12.546  12.543   6.278  0.0963  0.0429  0.0715
  813YOPS   GL211570  12.346  12.231   6.404 -0.0529 -0.1142  0.2159
  813YOPS   C1A11571  12.720  12.465   6.656 -0.1603 -0.0005  0.0092
  813YOPS   D2A11572  12.938  12.297   7.048 -0.0207  0.0890  0.3023
  813YOPS   C3A11573  12.999  12.054   7.401 -0.1088 -0.0757 -0.0004
  813YOPS   C4A11574  12.694  11.977   7.775 -0.1628 -0.0619  0.4059
  813YOPS   C1B11575  12.187  12.487   6.725  0.2025  0.2150  0.0915
  813YOPS   C2B11576  12.378  12.301   7.125 -0.0456 -0.0160 -0.1066
  813YOPS   D3B11577  12.580  12.370   7.492 -0.1503  0.2804  0.1467
  813YOPS   C4B11578  12.489  12.402   7.932 -0.2711 -0.2253  0.1426
  814YOPS   CNO11579   7.052   1.444   5.911  0.1458 -0.1588  0.0740
  814YOPS   PO411580   7.227   1.268   6.302 -0.0108 -0.0012 -0.0592
  814YOPS   GL111581   7.036   1.311   6.600  0.0378 -0.2157  0.0669
  814YOPS   GL211582   7.079   1.518   6.825 -0.1880  0.0686  0.1266
  814YOPS   C1A11583   6.662   1.165   6.823  0.0751 -0.2608  0.4401
  814YOPS   D2A11584   6.449   1.381   7.132 -0.0419 -0.0142 -0.4888
  814YOPS   C3A11585   6.309   1.764   7.492 -0.2817  0.1614 -0.2815
  814YOPS   C4A11586   6.535   2.094   7.719 -0.1345  0.1774  0.1052
  814YOPS   C1B11587   6.977   1.219   7.173 -0.1272 -0.1393 -0.3223
  814YOPS   C2B11588   6.605   0.923   7.257 -0.2508 -0.1022  0.0590
  814YOPS   D3B11589   6.572   0.759   7.653  0.0888 -0.1703 -0.1352
  814YOPS   C4B11590   7.009   0.619   7.780  0.1742 -0.1008  0.2355
  815YOPS   CNO11591   7.278  12.181   5.459  0.1409  0.1260 -0.0430
  815YOPS   PO411592   7.383  12.368   5.797  0.1503  0.0387 -0.0672
  815YOPS   GL111593   7.417  12.489   6.120 -0.1931 -0.3370  0.4710
  815YOPS   GL211594   7.401  12.275   6.303  0.0281 -0.1364  0.1185
  815YOPS   C1A11595   7.423  12.652   6.544  0.2226  0.0976  0.0503
  815YOPS   D2A11596   7.167  12.877   6.861 -0.0103 -0.0770 -0.1953
  815YOPS   C3A11597   7.147  13.033   7.269  0.1301  0.2234  0.4025
  815YOPS   C4A11598   7.458  12.870   7.495 -0.0084  0.0247  0.0981
  815YOPS   C1B11599   7.814  12.337   6.510  0.1805  0.0405 -0.2342
  815YOPS   C2B11600   7.699  12.466   6.877 -0.1355 -0.0967 -0.0534
  815YOPS   D3B11601   7.672  12.463   7.297 -0.2029 -0.0925  0.4295
  815YOPS   C4B11602   8.047  12.568   7.374  0.2649 -0.1633 -0.1186
  816YOPS   CNO11603   5.241  15.314   5.225 -0.0673 -0.1068  0.0926
  816YOPS   PO411604   5.391  15.091   5.570  0.0910 -0.1401 -0.1806
  816YOPS   GL111605   5.324  15.251   5.964 -0.0353 -0.2234  0.0106
  816YOPS   GL211606   5.176  14.928   6.078 -0.2586  0.3791 -0.0437
  816YOPS   C1A11607   5.540  15.241   6.385  0.0860  0.3418 -0.2138
  816YOPS   D2A11608   5.193  15.283   6.733 -0.0696 -0.0888  0.3111
  816YOPS   C3A11609   5.106  14.986   7.054  0.0192  0.1203  0.0450
  816YOPS   C4A11610   5.338  14.631   7.218  0.0251 -0.2966 -0.1482
  816YOPS   C1B11611   5.156  14.813   6.483 -0.2947 -0.1145  0.1373
  816YOPS   C2B11612   4.724  14.700   6.780 -0.4347  0.1282 -0.2934
  816YOPS   D3B11613   4.620  14.747   7.235  0.0988  0.0246  0.0376
  816YOPS   C4B11614   4.427  14.762   7.665 -0.0504 -0.1794  0.3731
  817YOPS   CNO11615  15.256  12.115   5.061 -0.2684  0.0088  0.2248
  817YOPS   PO411616  15.080  12.406   5.389 -0.3459  0.2249  0.2065
  817YOPS   GL111617  15.116  12.511   5.811  0.0232 -0.1192 -0.0560
  817YOPS   GL211618  14.998  12.883   5.984  0.1010  0.2412  0.3409
  817YOPS   C1A11619  15.230  12.448   6.159 -0.0323  0.1969  0.0435
  817YOPS   D2A11620  15.365  12.455   6.602  0.0950 -0.0861  0.1946
  817YOPS   C3A11621  15.407  12.453   7.065 -0.0950 -0.3430 -0.0607
  817YOPS   C4A11622  15.722  12.723   7.315  0.2533 -0.0145  0.1080
  817YOPS   C1B11623  14.925  12.841   6.505  0.1560  0.0537 -0.2079
  817YOPS   C2B11624  14.981  12.671   6.893 -0.2114  0.0339  0.1147
  817YOPS   D3B11625  14.957  12.593   7.323 -0.2775 -0.0237 -0.0750
  817YOPS   C4B11626  15.336  12.334   7.502 -0.4234  0.0876  0.0363
  818YOPS   CNO11627  16.960   5.090   4.675 -0.1395 -0.1654 -0.0311
  818YOPS   PO411628  17.337   5.074   4.870 -0.1998 -0.0474  0.1841
  818YOPS   GL111629  17.221   5.203   5.281 -0.1132 -0.0098  0.0848
  818YOPS   GL211630  17.050   5.425   5.296  0.1010  0.1098 -0.3646
  818YOPS   C1A11631  17.147   4.899   5.607  0.0122 -0.1406 -0.2240
  818YOPS   D2A11632  16.978   4.526   5.880 -0.4145 -0.0843 -0.5148
  818YOPS   C3A11633  17.060   4.399   6.232  0.0214 -0.1172  0.0823
  818YOPS   C4A11634  16.942   4.426   6.597 -0.4954 -0.0731 -0.0205
  818YOPS   C1B11635  16.993   5.416   5.738  0.0136  0.0894  0.2048
  818YOPS   C2B11636  17.026   5.321   6.141  0.1388 -0.3118  0.0583
  818YOPS   D3B11637  16.822   5.355   6.602  0.2477  0.1860 -0.0729
  818YOPS   C4B11638  16.413   5.307   6.723  0.0017  0.4025 -0.3099
  819YOPS   CNO11639   3.540  13.294   5.232 -0.1636  0.2034  0.1597
  819YOPS   PO411640   3.500  13.689   5.431 -0.0118  0.1286  0.1156
  819YOPS   GL111641   3.638  13.554   5.830 -0.2545 -0.1103 -0.0948
  819YOPS   GL211642   3.848  13.584   6.018  0.0482  0.0490 -0.1160
  819YOPS   C1A11643   3.470  13.221   6.097  0.0665  0.0111  0.0109
  819YOPS   D2A11644   3.374  13.018   6.460  0.0516  0.0458 -0.3159
  819YOPS   C3A11645   3.019  12.744   6.610 -0.2065 -0.0291 -0.0957
  819YOPS   C4A11646   2.884  12.726   7.040 -0.0926  0.0137  0.2765
  819YOPS   C1B11647   3.658  13.883   6.409 -0.5781  0.2148 -0.0312
  819YOPS   C2B11648   3.737  13.686   6.837  0.1038  0.2026 -0.0256
  819YOPS   D3B11649   3.826  13.453   7.272  0.2225 -0.4603  0.3459
  819YOPS   C4B11650   4.071  13.214   7.192  0.1465  0.0310  0.1262
  820YOPS   CNO11651   2.229  10.032   5.082  0.0492  0.0772  0.3068
  820YOPS   PO411652   1.950  10.334   5.297 -0.1476  0.0139 -0.0384
  820YOPS   GL111653   1.948  10.428   5.825 -0.2095 -0.1558 -0.1759
  820YOPS   GL211654   1.980  10.794   5.879  0.1612  0.0139 -0.2821
  820YOPS   C1A11655   1.762  10.387   6.277 -0.0223  0.0255  0.0951
  820YOPS   D2A11656   1.817  10.375   6.643 -0.1585 -0.0147  0.0976
  820YOPS   C3A11657   1.898  10.345   7.023  0.0557 -0.1433  0.2176
  820YOPS   C4A11658   1.574  10.365   7.318 -0.1593 -0.0935 -0.4347
  820YOPS   C1B11659   2.052  10.777   6.266 -0.1766  0.0893  0.0248
  820YOPS   C2B11660   2.045  10.798   6.759 -0.2028 -0.1104 -0.1337
  820YOPS   D3B11661   2.214  10.806   7.112  0.1892 -0.0928 -0.3610
  820YOPS   C4B11662   2.071  11.182   7.177 -0.0385 -0.0193  0.2597
  821YOPS   CNO11663   1.062   0.286   5.002  0.0004  0.1472  0.2557
  821YOPS   PO411664   1.097   0.496   5.393 -0.3405  0.1038  0.0371
  821YOPS   GL111665   0.956   0.394   5.840  0.1991 -0.3322  0.2590
  821YOPS   GL211666   1.094   0.654   5.889 -0.2586  0.1208 -0.0971
  821YOPS   C1A11667   0.931   0.595   6.343  0.1685 -0.3831 -0.2833
  821YOPS   D2A11668   0.733   0.593   6.689  0.1224 -0.2956  0.1911
  821YOPS   C3A11669   0.758   0.460   7.040  0.1078  0.2914 -0.1195
  821YOPS   C4A11670   1.033   0.172   7.323  0.0328  0.0413 -0.1536
  821YOPS   C1B11671   1.438   0.572   6.199 -0.3071  0.4218 -0.1082
  821YOPS   C2B11672   1.435   0.709   6.570  0.0721 -0.2134 -0.0334
  821YOPS   D3B11673   1.586   0.824   6.927 -0.2823  0.1000 -0.2868
  821YOPS   C4B11674   1.946   0.802   7.087 -0.0696 -0.1506  0.0051
  822YOPS   CNO11675   2.705   2.879   4.893 -0.2833 -0.0474 -0.2418
  822YOPS   PO411676   2.662   2.992   5.343  0.1134 -0.0687 -0.2167
  822YOPS   GL111677   2.815   2.863   5.715 -0.1471 -0.0356 -0.0216
  822YOPS   GL211678   3.102   2.907   5.842 -0.0876  0.0300  0.2334
  822YOPS   C1A11679   2.702   2.844   6.203 -0.0434  0.2134 -0.1574
  822YOPS   D2A11680   2.739   2.937   6.583  0.0603  0.2851 -0.1210
  822YOPS   C3A11681   2.926   3.094   7.087 -0.2348 -0.1642 -0.0128
  822YOPS   C4A11682   2.701   3.124   7.505 -0.0357  0.2789  0.2330
  822YOPS   C1B11683   2.995   3.254   6.209 -0.0642  0.3183 -0.1687
  822YOPS   C2B11684   2.760   3.446   6.658 -0.0780  0.0270  0.2548
  822YOPS   D3B11685   2.391   3.656   6.617  0.4319 -0.2439  0.0741
  822YOPS   C4B11686   2.270   4.125   6.746 -0.0920 -0.0816  0.0111
  823YOPS   CNO11687  13.147   9.918   5.618  0.2319 -0.1407 -0.1292
  823YOPS   PO411688  12.987  10.241   5.959  0.1318 -0.3438  0.0141
  823YOPS   GL111689  13.034  10.285   6.340  0.1280  0.1462 -0.2029
  823YOPS   GL211690  13.259  10.109   6.476 -0.0618 -0.0001 -0.0836
  823YOPS   C1A11691  12.910  10.459   6.759  0.1744 -0.3131 -0.0674
  823YOPS   D2A11692  12.892  10.522   7.164 -0.0025  0.0747 -0.0591
  823YOPS   C3A11693  13.182  10.643   7.408  0.0729  0.0336  0.2547
  823YOPS   C4A11694  13.045  10.637   7.846 -0.2579 -0.1993 -0.1390
  823YOPS   C1B11695  13.404  10.444   6.772  0.1000 -0.0264  0.3456
  823YOPS   C2B11696  13.651  10.307   7.082  0.2886 -0.0648  0.0571
  823YOPS   D3B11697  13.759  10.554   7.502  0.1052 -0.0735  0.2242
  823YOPS   C4B11698  13.986  10.445   7.848 -0.2380 -0.0566  0.0062
  824YOPS   CNO11699   5.434  18.074   5.266  0.1891  0.4227 -0.2993
  824YOPS   PO411700   5.261  17.822   5.538 -0.0537 -0.2857  0.0862
  824YOPS   GL111701   5.210  17.847   5.985 -0.3544 -0.1825 -0.3226
  824YOPS   GL211702   5.448  17.933   6.118  0.0480  0.0561  0.0656
  824YOPS   C1A11703   5.058  17.898   6.450 -0.0910  0.0805  0.0507
  824YOPS   D2A11704   4.919  18.022   6.924 -0.0702  0.1492 -0.0188
  824YOPS   C3A11705   5.037  18.053   7.291  0.0870  0.3817  0.0702
  824YOPS   C4A11706   4.775  18.289   7.561  0.1030 -0.1378  0.1453
  824YOPS   C1B11707   5.441  17.609   6.439 -0.1504 -0.2510  0.0588
  824YOPS   C2B11708   5.264  17.612   6.898  0.0290 -0.4385  0.2159
  824YOPS   D3B11709   5.312  17.655   7.350  0.1706 -0.1003 -0.2493
  824YOPS   C4B11710   5.381  17.415   7.709 -0.0308  0.0071 -0.0780
  825YOPS   CNO11711   7.664   0.157   6.250 -0.2892  0.1899  0.0426
  825YOPS   PO411712   7.380   0.524   6.108 -0.6826  0.2973 -0.2926
  825YOPS   GL111713   7.240   0.785   6.474 -0.2107 -0.2498  0.2099
  825YOPS   GL211714   6.895   0.821   6.515 -0.0267 -0.0192  0.1730
  825YOPS   C1A11715   7.224   0.979   6.851  0.0246  0.3809 -0.1087
  825YOPS   D2A11716   7.442   1.033   7.246  0.0526 -0.0902  0.2705
  825YOPS   C3A11717   7.442   0.797   7.760 -0.1167 -0.2710  0.0764
  825YOPS   C4A11718   7.158   0.918   8.121  0.2598  0.0187  0.0776
  825YOPS   C1B11719   6.812   0.689   6.907  0.0329 -0.1736  0.1685
  825YOPS   C2B11720   6.832   0.346   7.277  0.0188  0.0585 -0.0723
  825YOPS   D3B11721   6.631   0.241   7.624  0.0521  0.0719 -0.1002
  825YOPS   C4B11722   6.751   0.286   8.132 -0.0270 -0.0957  0.0737
  826YOPS   CNO11723   4.775   4.132   5.099  0.0941 -0.4298 -0.0872
  826YOPS   PO411724   5.073   4.437   5.157 -0.0873 -0.0975 -0.2117
  826YOPS   GL111725   4.949   4.340   5.549  0.0766  0.1496  0.0289
  826YOPS   GL211726   5.094   4.369   5.800  0.0009  0.1154  0.1477
  826YOPS   C1A11727   4.706   4.004   5.836  0.0496  0.1745  0.0253
  826YOPS   D2A11728   4.290   3.743   6.059 -0.2115 -0.0662 -0.1057
  826YOPS   C3A11729   4.073   3.726   6.363  0.0724 -0.0750  0.2435
  826YOPS   C4A11730   4.206   3.353   6.530  0.0649  0.1363  0.1846
  826YOPS   C1B11731   5.080   4.452   6.171  0.1052 -0.2248  0.1477
  826YOPS   C2B11732   5.230   4.546   6.551  0.1588 -0.0925  0.2081
  826YOPS   D3B11733   5.462   4.466   6.928 -0.0844 -0.0974  0.0664
  826YOPS   C4B11734   5.712   4.774   7.118  0.0705  0.3772  0.0930
  827YOPS   CNO11735   5.236   3.385   5.662 -0.0549  0.1951 -0.1275
  827YOPS   PO411736   5.401   2.969   5.718 -0.2772 -0.0705 -0.0068
  827YOPS   GL111737   5.425   3.227   6.103  0.1792  0.1670  0.0708
  827YOPS   GL211738   5.503   3.499   6.030  0.2393 -0.1614  0.3020
  827YOPS   C1A11739   5.407   3.184   6.605  0.3059  0.2114  0.3552
  827YOPS   D2A11740   5.448   3.284   7.020 -0.2584  0.1286 -0.3303
  827YOPS   C3A11741   5.382   3.005   7.326 -0.1239  0.2751  0.1424
  827YOPS   C4A11742   5.215   2.815   7.550 -0.0168 -0.1683 -0.0379
  827YOPS   C1B11743   5.592   3.657   6.340 -0.1271 -0.0878 -0.1396
  827YOPS   C2B11744   5.478   3.697   6.691  0.2638  0.0846 -0.0939
  827YOPS   D3B11745   5.593   3.754   7.173  0.3283  0.0867  0.3361
  827YOPS   C4B11746   5.325   4.001   7.362  0.1964  0.1758  0.5892
  828YOPS   CNO11747   8.712   9.980   4.802  0.1657  0.0933 -0.2073
  828YOPS   PO411748   8.439  10.040   5.257 -0.1469  0.1518 -0.0992
  828YOPS   GL111749   8.310   9.955   5.660  0.0132  0.0124 -0.1263
  828YOPS   GL211750   8.091   9.670   5.730  0.1332 -0.0183  0.2884
  828YOPS   C1A11751   8.398  10.075   6.108 -0.0691 -0.2849 -0.0700
  828YOPS   D2A11752   8.504  10.255   6.500  0.2231 -0.0375  0.1316
  828YOPS   C3A11753   8.236  10.422   6.816  0.1399 -0.2233 -0.1617
  828YOPS   C4A11754   8.411  10.485   7.245 -0.2100 -0.4414 -0.0934
  828YOPS   C1B11755   7.928   9.805   6.123 -0.2805  0.1139 -0.3599
  828YOPS   C2B11756   7.855   9.629   6.516 -0.0768 -0.1416  0.1038
  828YOPS   D3B11757   7.977   9.320   6.722 -0.0803 -0.1503  0.0420
  828YOPS   C4B11758   8.019   9.323   7.105  0.1882  0.0912 -0.1926
  829YOPS   CNO11759  11.739   7.913   5.236  0.1845  0.0107 -0.0603
  829YOPS   PO411760  11.405   7.852   5.550 -0.3563  0.0452 -0.0053
  829YOPS   GL111761  11.341   7.766   6.045 -0.1649  0.0379  0.0935
  829YOPS   GL211762  11.505   7.470   6.197 -0.2354  0.1056  0.2447
  829YOPS   C1A11763  11.622   7.800   6.513  0.1203 -0.1551 -0.2648
  829YOPS   D2A11764  11.435   7.399   6.715 -0.2543  0.0313  0.0655
  829YOPS   C3A11765  11.316   7.350   7.137  0.3546 -0.3105 -0.0367
  829YOPS   C4A11766  11.337   7.689   7.499  0.2832  0.4900 -0.0372
  829YOPS   C1B11767  11.356   7.079   6.359  0.2130 -0.1873 -0.0867
  829YOPS   C2B11768  11.378   6.895   6.762  0.0049 -0.2086  0.3348
  829YOPS   D3B11769  11.174   6.743   7.221 -0.1050 -0.1728 -0.0416
  829YOPS   C4B11770  11.444   6.859   7.567 -0.0363  0.1955  0.2040
  830YOPS   CNO11771   8.200   7.428   5.674 -0.2720  0.2102  0.2165
  830YOPS   PO411772   8.223   7.030   5.713 -0.0867 -0.0256 -0.3364
  830YOPS   GL111773   8.221   7.049   6.212  0.0384  0.3967 -0.0006
  830YOPS   GL211774   8.525   6.955   6.456  0.0229 -0.3092 -0.2516
  830YOPS   C1A11775   8.098   7.007   6.648  0.2443 -0.0787  0.4360
  830YOPS   D2A11776   7.990   6.978   7.045  0.0718  0.3813  0.3504
  830YOPS   C3A11777   8.024   7.123   7.342  0.0957 -0.3654 -0.1911
  830YOPS   C4A11778   8.106   6.778   7.555 -0.1133 -0.0985  0.0065
  830YOPS   C1B11779   8.805   7.112   6.773  0.0024  0.0455 -0.1800
  830YOPS   C2B11780   9.227   6.924   6.891  0.2199 -0.1642  0.0471
  830YOPS   D3B11781   9.600   7.060   6.851 -0.0544  0.2560  0.0787
  830YOPS   C4B11782   9.664   7.455   7.039 -0.1630  0.1239 -0.0241
  831YOPS   CNO11783  15.430  16.758   5.392  0.0455 -0.0274  0.0016
  831YOPS   PO411784  15.032  16.949   5.678  0.1624 -0.3466  0.0322
  831YOPS   GL111785  14.892  16.848   6.070  0.0255 -0.0925  0.1508
  831YOPS   GL211786  15.131  16.685   6.314 -0.3152  0.3489  0.2389
  831YOPS   C1A11787  14.661  16.857   6.471 -0.3285 -0.2876 -0.0384
  831YOPS   D2A11788  14.525  16.955   6.880 -0.0374  0.0068 -0.0840
  831YOPS   C3A11789  14.577  17.079   7.310  0.1819  0.1229 -0.0318
  831YOPS   C4A11790  14.474  17.512   7.438  0.0137  0.0113  0.0281
  831YOPS   C1B11791  15.028  16.540   6.762  0.2715  0.0774 -0.1032
  831YOPS   C2B11792  14.889  16.631   7.070  0.1241 -0.1729 -0.1251
  831YOPS   D3B11793  14.919  16.785   7.500 -0.1080 -0.0853  0.6086
  831YOPS   C4B11794  14.656  17.193   7.742 -0.0245 -0.1985  0.1779
  832YOPS   CNO11795  17.831  18.494   6.189 -0.3245 -0.2664 -0.1036
  832YOPS   PO411796  17.537  18.264   5.870 -0.1441  0.1785 -0.2167
  832YOPS   GL111797  17.312  18.372   6.188  0.1684  0.0097  0.4642
  832YOPS   GL211798  17.276  18.756   6.000 -0.0665  0.4129  0.0907
  832YOPS   C1A11799  17.162  18.441   6.641 -0.1316 -0.0773  0.3164
  832YOPS   D2A11800  17.114  18.398   7.090 -0.5212  0.0172  0.0854
  832YOPS   C3A11801  16.923  18.603   7.426  0.1571  0.1950  0.0427
  832YOPS   C4A11802  17.139  18.910   7.765  0.2048  0.1265 -0.1460
  832YOPS   C1B11803  17.503  18.772   6.395 -0.0209 -0.2740  0.0552
  832YOPS   C2B11804  17.750  18.490   6.661  0.2540  0.2226 -0.2366
  832YOPS   D3B11805  18.016  18.726   6.974 -0.0146 -0.2357 -0.2593
  832YOPS   C4B11806  17.910  18.738   7.426 -0.2539 -0.2962  0.0577
  833YOPS   CNO11807   8.315   6.600   5.971  0.1631  0.0317  0.0778
  833YOPS   PO411808   7.989   6.438   5.681 -0.3389  0.3905  0.0003
  833YOPS   GL111809   7.964   6.328   6.195 -0.4119  0.3794 -0.1156
  833YOPS   GL211810   7.623   6.297   6.418 -0.0209  0.2244 -0.1699
  833YOPS   C1A11811   8.058   6.010   6.567  0.1230 -0.1646 -0.3034
  833YOPS   D2A11812   7.951   6.019   7.023  0.1158  0.0897  0.2517
  833YOPS   C3A11813   7.851   6.077   7.387 -0.3007 -0.0801 -0.1177
  833YOPS   C4A11814   8.259   6.046   7.642  0.1717  0.1505 -0.1222
  833YOPS   C1B11815   7.439   6.404   6.809 -0.5952  0.2013  0.0555
  833YOPS   C2B11816   7.429   6.149   7.153 -0.1271 -0.0148  0.0371
  833YOPS   D3B11817   7.350   5.927   7.497  0.0481  0.1949  0.1281
  833YOPS   C4B11818   7.001   5.999   7.685  0.0228 -0.4795  0.1349
  834YOPS   CNO11819   6.741   1.166   6.156  0.3917  0.1257 -0.0493
  834YOPS   PO411820   6.613   1.611   6.146 -0.1007 -0.1446 -0.2048
  834YOPS   GL111821   6.571   1.732   6.598 -0.2191  0.2726 -0.1787
  834YOPS   GL211822   6.843   1.941   6.656 -0.1297 -0.0526  0.2515
  834YOPS   C1A11823   6.534   1.859   7.018 -0.2697  0.0996  0.1910
  834YOPS   D2A11824   6.753   2.284   7.301 -0.0028 -0.0201  0.1170
  834YOPS   C3A11825   7.039   2.265   7.711 -0.0473  0.1330  0.2156
  834YOPS   C4A11826   7.123   2.667   7.791  0.2025  0.3277 -0.1330
  834YOPS   C1B11827   6.578   2.294   6.639 -0.0250 -0.3263  0.0601
  834YOPS   C2B11828   6.410   2.726   6.993  0.0741  0.0839 -0.1238
  834YOPS   D3B11829   6.367   2.944   7.370 -0.1905  0.0996  0.1683
  834YOPS   C4B11830   6.033   2.753   7.683  0.2332 -0.0831  0.4049
  835YOPS   CNO11831  13.773   2.759   5.852 -0.0106 -0.1051 -0.0889
  835YOPS   PO411832  14.029   3.122   5.717 -0.1140 -0.3013 -0.1060
  835YOPS   GL111833  14.273   3.133   6.107  0.1567 -0.1316  0.3956
  835YOPS   GL211834  14.546   3.378   6.158 -0.0694 -0.0233 -0.1681
  835YOPS   C1A11835  14.420   2.897   6.487 -0.2984 -0.1652  0.3328
  835YOPS   D2A11836  14.368   3.031   6.860  0.1395 -0.1027  0.0531
  835YOPS   C3A11837  14.311   2.805   7.264  0.0204  0.0103 -0.5174
  835YOPS   C4A11838  13.965   2.648   7.415  0.0155 -0.2780 -0.0786
  835YOPS   C1B11839  14.696   3.387   6.594 -0.1412  0.0614 -0.0630
  835YOPS   C2B11840  14.636   3.445   6.925  0.2088  0.1937 -0.0717
  835YOPS   D3B11841  14.411   3.376   7.345  0.0060  0.3179  0.2994
  835YOPS   C4B11842  14.608   3.358   7.724  0.0893 -0.3172  0.1402
  836YOPS   CNO11843  11.389   2.473   5.903 -0.1605 -0.2789  0.1405
  836YOPS   PO411844  11.524   2.160   6.084 -0.1563  0.1567  0.2216
  836YOPS   GL111845  11.653   2.057   6.532  0.2606  0.0379 -0.0215
  836YOPS   GL211846  11.423   1.946   6.687 -0.0316  0.1845  0.0864
  836YOPS   C1A11847  11.746   2.350   6.827 -0.1715 -0.3477  0.2118
  836YOPS   D2A11848  11.664   2.423   7.277  0.0430 -0.0245 -0.1296
  836YOPS   C3A11849  11.636   2.273   7.694 -0.0695  0.0562 -0.1449
  836YOPS   C4A11850  11.546   2.537   7.989 -0.0529 -0.5094  0.0199
  836YOPS   C1B11851  11.399   1.982   7.134 -0.0725 -0.1691 -0.0644
  836YOPS   C2B11852  11.447   1.809   7.563 -0.3861  0.0714 -0.0972
  836YOPS   D3B11853  11.555   1.867   8.045  0.3232  0.4234 -0.0387
  836YOPS   C4B11854  11.241   1.936   8.394 -0.4447 -0.1823  0.0578
  837YOPS   CNO11855   3.390  18.357   5.844 -0.2003  0.1607 -0.3254
  837YOPS   PO411856   3.377  18.797   5.723  0.0088 -0.2313 -0.1637
  837YOPS   GL111857   3.548  18.781   6.258  0.1246  0.3167 -0.0076
  837YOPS   GL211858   3.657  18.450   6.393  0.0417 -0.1301 -0.0927
  837YOPS   C1A11859   3.559  18.956   6.668  0.1822  0.0932 -0.3996
  837YOPS   D2A11860   3.754  18.873   6.929  0.1538 -0.2010  0.0172
  837YOPS   C3A11861   3.750  18.943   7.263  0.1302 -0.0526  0.0921
  837YOPS   C4A11862   3.391  18.832   7.466 -0.3967  0.3824 -0.0826
  837YOPS   C1B11863   3.591  18.438   6.689 -0.1065 -0.0945  0.0155
  837YOPS   C2B11864   3.532  18.420   7.050 -0.0992 -0.2020  0.1313
  837YOPS   D3B11865   3.349  18.142   7.368 -0.3576 -0.2376  0.2215
  837YOPS   C4B11866   3.290  17.719   7.255 -0.2255  0.0970 -0.0093
  838YOPS   CNO11867   7.411   1.927   5.912 -0.0348 -0.1040 -0.1029
  838YOPS   PO411868   7.773   2.140   6.132 -0.1005 -0.2230 -0.1232
  838YOPS   GL111869   7.578   2.287   6.410  0.1360 -0.0506  0.3559
  838YOPS   GL211870   7.166   2.291   6.501 -0.0745  0.3921 -0.1368
  838YOPS   C1A11871   7.630   2.522   6.736 -0.0072 -0.1133 -0.0752
  838YOPS   D2A11872   7.634   2.297   7.044  0.2367 -0.2318 -0.0585
  838YOPS   C3A11873   8.107   2.106   7.226 -0.0189  0.0234  0.5343
  838YOPS   C4A11874   8.034   1.716   7.487 -0.1110 -0.0165  0.0146
  838YOPS   C1B11875   6.986   2.382   6.858 -0.4135  0.1754 -0.4056
  838YOPS   C2B11876   7.224   2.472   7.281 -0.0003 -0.1608  0.0110
  838YOPS   D3B11877   7.507   2.438   7.593 -0.0921 -0.0574  0.0738
  838YOPS   C4B11878   7.402   2.167   8.137 -0.0576  0.0514 -0.0640
  839YOPS   CNO11879   9.099  18.257   6.135  0.0828  0.0144  0.2407
  839YOPS   PO411880   8.720  18.506   5.984 -0.3422 -0.1153  0.4108
  839YOPS   GL111881   8.482  18.523   6.348  0.0853 -0.0078  0.1754
  839YOPS   GL211882   8.287  18.815   6.273  0.1025 -0.1346  0.1123
  839YOPS   C1A11883   8.278  18.509   6.762  0.0509  0.0195 -0.0846
  839YOPS   D2A11884   8.132  18.469   7.114  0.0288 -0.0666 -0.0224
  839YOPS   C3A11885   7.947  18.838   7.335 -0.3432  0.1579  0.0400
  839YOPS   C4A11886   7.607  18.573   7.622  0.0237  0.0219  0.0857
  839YOPS   C1B11887   8.285  19.039   6.743  0.0456  0.2910 -0.1856
  839YOPS   C2B11888   8.042  19.214   7.029  0.2908  0.1091 -0.3380
  839YOPS   D3B11889   7.599  19.252   7.176 -0.0653  0.0592 -0.1137
  839YOPS   C4B11890   7.398  19.057   7.504 -0.1122 -0.0602 -0.4141
  840YOPS   CNO11891   4.928   3.015   5.474 -0.1206 -0.2027  0.2518
  840YOPS   PO411892   4.833   2.572   5.669 -0.1019  0.0911  0.1764
  840YOPS   GL111893   4.965   2.656   6.144 -0.1582 -0.2733  0.1744
  840YOPS   GL211894   4.973   3.049   6.210  0.1211  0.0161  0.0701
  840YOPS   C1A11895   4.990   2.768   6.605  0.0832 -0.1612  0.0863
  840YOPS   D2A11896   4.958   3.023   6.984 -0.0715 -0.2007  0.1576
  840YOPS   C3A11897   4.832   3.085   7.370  0.0951  0.0112 -0.0622
  840YOPS   C4A11898   4.345   3.266   7.362 -0.2052  0.1693 -0.1445
  840YOPS   C1B11899   4.695   3.159   6.599  0.3035 -0.0390  0.0260
  840YOPS   C2B11900   4.406   3.053   6.905 -0.0835 -0.0624  0.2073
  840YOPS   D3B11901   4.211   2.794   7.219 -0.2241  0.1923 -0.3428
  840YOPS   C4B11902   4.017   2.431   7.510  0.0289  0.1215 -0.0692
  841YOPS   CNO11903  10.402  12.994   5.260 -0.1459  0.1260  0.2705
  841YOPS   PO411904  10.278  13.205   5.656 -0.1068 -0.3989 -0.3727
  841YOPS   GL111905  10.046  12.959   6.095  0.0883  0.0140 -0.0897
  841YOPS   GL211906  10.301  12.767   6.211  0.0349  0.3436  0.1858
  841YOPS   C1A11907   9.954  13.002   6.476  0.0593 -0.0775 -0.1599
  841YOPS   D2A11908   9.829  12.846   6.848  0.0757  0.2244  0.0604
  841YOPS   C3A11909   9.806  12.467   6.910  0.1843 -0.0458  0.0564
  841YOPS   C4A11910   9.857  12.426   6.509  0.0934  0.0605  0.1294
  841YOPS   C1B11911  10.360  12.432   6.553  0.3594  0.0837 -0.0714
  841YOPS   C2B11912  10.375  12.232   6.907  0.1137 -0.0106 -0.1510
  841YOPS   D3B11913  10.534  12.336   7.319 -0.1771 -0.5093  0.2038
  841YOPS   C4B11914  10.909  12.080   7.406  0.1661  0.1241  0.0192
  842POPE   NH311915  13.501  12.866   6.079  0.2535  0.0081  0.0541
  842POPE   PO411916  13.307  12.522   5.957 -0.0146 -0.0699  0.0189
  842POPE   GL111917  13.165  12.611   6.375  0.4050  0.3171  0.4040
  842POPE   GL211918  12.993  12.855   6.338  0.0026  0.1506  0.3723
  842POPE   C1A11919  13.358  12.540   6.826  0.0170 -0.2415 -0.1302
  842POPE   D2A11920  13.408  12.406   7.262  0.0457  0.1050  0.1309
  842POPE   C3A11921  13.483  12.027   7.394  0.1408 -0.0340 -0.1159
  842POPE   C4A11922  13.567  11.621   7.437  0.0001  0.1242  0.0503
  842POPE   C1B11923  12.915  12.938   6.761 -0.1487 -0.0266  0.0061
  842POPE   C2B11924  12.662  12.773   7.041  0.0391 -0.0857  0.1976
  842POPE   C3B11925  12.420  12.901   7.465  0.2316 -0.3627  0.2427
  842POPE   C4B11926  12.303  12.872   7.863  0.0382 -0.1020 -0.0569
  843POPE   NH311927   0.376   2.841   5.614 -0.4565  0.1617 -0.1415
  843POPE   PO411928   0.525   3.160   5.255 -0.0294  0.0441 -0.0219
  843POPE   GL111929   0.817   3.114   5.687 -0.1495  0.1940  0.0591
  843POPE   GL211930   0.780   3.368   5.789  0.1824  0.1770  0.0136
  843POPE   C1A11931   1.106   2.972   5.926 -0.2208  0.1544  0.1540
  843POPE   D2A11932   1.098   2.942   6.209  0.1889 -0.1227 -0.0652
  843POPE   C3A11933   1.178   2.796   6.554  0.2541 -0.0952 -0.2030
  843POPE   C4A11934   1.189   2.910   6.913  0.0874  0.0558  0.1009
  843POPE   C1B11935   0.873   3.405   6.145  0.0539 -0.1713  0.0486
  843POPE   C2B11936   1.181   3.424   6.506 -0.1342  0.2541 -0.1858
  843POPE   C3B11937   1.436   3.580   6.672 -0.1720  0.0050 -0.0259
  843POPE   C4B11938   1.580   3.437   7.010 -0.0732 -0.0255 -0.0119
  844POPE   NH311939   9.566   3.146   5.747 -0.0299 -0.1735  0.3111
  844POPE   PO411940   9.981   2.974   5.843  0.3269 -0.1108  0.0227
  844POPE   GL111941   9.921   3.226   6.193 -0.1242  0.1517  0.1612
  844POPE   GL211942  10.124   3.389   6.205 -0.2834  0.2409  0.1208
  844POPE   C1A11943   9.820   3.308   6.608  0.5121 -0.0633  0.0166
  844POPE   D2A11944   9.822   3.174   6.988 -0.2208 -0.4790 -0.0948
  844POPE   C3A11945   9.505   3.230   7.365 -0.2114 -0.0923  0.3247
  844POPE   C4A11946   9.469   3.430   7.813 -0.0980  0.1099 -0.0148
  844POPE   C1B11947  10.436   3.294   6.459  0.1682  0.0629 -0.0564
  844POPE   C2B11948  10.361   3.341   6.912 -0.1751  0.0244  0.1103
  844POPE   C3B11949  10.403   3.484   7.384  0.3481  0.0754  0.0575
  844POPE   C4B11950  10.642   3.471   7.607  0.2452 -0.0447  0.0072
  845POPE   NH311951   4.134   5.450   5.651  0.0880  0.0364  0.2081
  845POPE   PO411952   3.958   5.811   5.378 -0.3971 -0.0953  0.0712
  845POPE   GL111953   3.719   5.736   5.790  0.2088 -0.3808 -0.0153
  845POPE   GL211954   3.641   5.424   5.860  0.1940  0.0854 -0.2345
  845POPE   C1A11955   3.746   5.997   6.165  0.2466 -0.0377  0.2452
  845POPE   D2A11956   3.581   6.023   6.529  0.1790  0.2562  0.1104
  845POPE   C3A11957   3.853   6.302   6.864  0.0643  0.1143  0.0155
  845POPE   C4A11958   3.726   6.229   7.270  0.1592  0.1265 -0.0320
  845POPE   C1B11959   3.544   5.503   6.280  0.0186  0.2555 -0.0290
  845POPE   C2B11960   3.424   5.605   6.744  0.0256  0.0665 -0.0082
  845POPE   C3B11961   3.257   5.455   7.182 -0.0315 -0.2971 -0.0446
  845POPE   C4B11962   3.354   5.414   7.570 -0.0525  0.2027  0.1076
  846POPE   NH311963   5.085  12.405   5.627  0.0950  0.2979 -0.1451
  846POPE   PO411964   5.055  11.951   5.706 -0.1487 -0.0509  0.3083
  846POPE   GL111965   4.720  12.031   5.874  0.2703 -0.2096  0.0442
  846POPE   GL211966   4.626  11.848   6.123  0.0035 -0.0376 -0.1579
  846POPE   C1A11967   4.256  12.198   6.032 -0.0482  0.1780  0.0113
  846POPE   D2A11968   3.866  12.364   6.206 -0.2606  0.2105  0.1703
  846POPE   C3A11969   3.561  12.493   6.012  0.1332 -0.6347 -0.1594
  846POPE   C4A11970   3.181  12.716   6.088  0.1113 -0.1199  0.0094
  846POPE   C1B11971   4.197  11.834   6.399  0.2572 -0.0738 -0.2048
  846POPE   C2B11972   4.002  12.063   6.613  0.0872 -0.2252  0.1710
  846POPE   C3B11973   4.202  12.461   6.733 -0.2421 -0.4462 -0.3303
  846POPE   C4B11974   4.363  12.741   7.186  0.0994  0.0609  0.4963
  847POPE   NH311975   3.721   0.440   5.941  0.0521  0.0133  0.1110
  847POPE   PO411976   4.003   0.758   5.801 -0.0044  0.0723 -0.2979
  847POPE   GL111977   3.935   0.668   6.302  0.2750  0.2344  0.0507
  847POPE   GL211978   3.966   0.390   6.444  0.2328  0.3001 -0.1488
  847POPE   C1A11979   3.778   0.720   6.711  0.1287 -0.0641  0.2418
  847POPE   D2A11980   3.988   0.625   6.999  0.3010 -0.0118 -0.1344
  847POPE   C3A11981   3.811   0.784   7.307  0.0641  0.1908  0.3016
  847POPE   C4A11982   3.724   1.113   7.635 -0.2586 -0.0975  0.0799
  847POPE   C1B11983   4.159   0.159   6.709 -0.1297  0.0386 -0.1159
  847POPE   C2B11984   4.345   0.222   7.106 -0.3640 -0.3942  0.2205
  847POPE   C3B11985   4.314   0.524   7.464 -0.1505 -0.0673  0.0764
  847POPE   C4B11986   4.136   0.789   7.654 -0.1806  0.0174 -0.1326
  848POPE   NH311987  14.609  14.095   5.480 -0.2064  0.0357  0.2466
  848POPE   PO411988  14.340  13.909   5.824  0.2747 -0.0179 -0.1590
  848POPE   GL111989  14.296  13.995   6.212 -0.1761 -0.1434 -0.1963
  848POPE   GL211990  14.281  14.326   6.350 -0.2490 -0.0621 -0.2384
  848POPE   C1A11991  14.518  14.049   6.718 -0.2694 -0.1443 -0.2940
  848POPE   D2A11992  14.966  14.233   6.733  0.0652 -0.1834 -0.0562
  848POPE   C3A11993  15.094  14.452   7.019  0.0629 -0.0185 -0.0344
  848POPE   C4A11994  15.076  14.253   7.451 -0.1084  0.1884  0.0488
  848POPE   C1B11995  14.436  14.476   6.856  0.2600  0.2438  0.0142
  848POPE   C2B11996  14.654  14.309   7.216  0.1857  0.4077 -0.0363
  848POPE   C3B11997  14.422  14.142   7.606 -0.2813  0.0574 -0.2402
  848POPE   C4B11998  13.972  13.955   7.784  0.1105 -0.2092  0.1744
  849POPE   NH311999   8.112  14.189   5.748  0.0893 -0.0998 -0.3706
  849POPE   PO412000   7.882  14.607   5.802 -0.2401  0.0878 -0.1836
  849POPE   GL112001   7.651  14.746   6.218  0.2211 -0.1371  0.1640
  849POPE   GL212002   7.345  14.542   6.293 -0.1079 -0.2896  0.1609
  849POPE   C1A12003   7.893  15.007   6.511  0.0668  0.1872 -0.0773
  849POPE   D2A12004   8.339  15.067   6.604  0.1234 -0.5521  0.0404
  849POPE   C3A12005   8.543  14.863   6.900 -0.2402  0.0867  0.1213
  849POPE   C4A12006   8.587  14.973   7.296 -0.0496 -0.0988  0.2581
  849POPE   C1B12007   7.089  14.453   6.667 -0.0233 -0.1027 -0.0003
  849POPE   C2B12008   7.217  14.430   7.106  0.1188  0.1070  0.0222
  849POPE   C3B12009   7.641  14.352   7.291 -0.2625 -0.1349 -0.0999
  849POPE   C4B12010   7.875  14.256   7.685  0.1597  0.1411 -0.4961
  850POPE   NH312011   1.640   2.342   5.630  0.0901 -0.1308 -0.4005
  850POPE   PO412012   2.017   2.107   5.755  0.0804 -0.1591 -0.2905
  850POPE   GL112013   1.828   2.146   6.093 -0.5061  0.1055 -0.0975
  850POPE   GL212014   1.610   2.321   6.121  0.1905  0.1051  0.0701
  850POPE   C1A12015   1.544   1.914   6.344  0.1643  0.3352 -0.0458
  850POPE   D2A12016   1.538   1.910   6.772  0.0003 -0.0198 -0.3366
  850POPE   C3A12017   1.868   1.757   7.052 -0.3174 -0.2317  0.2594
  850POPE   C4A12018   2.042   1.978   7.324 -0.1188 -0.0571  0.3199
  850POPE   C1B12019   1.617   2.371   6.552 -0.0851  0.1103 -0.1503
  850POPE   C2B12020   1.614   2.601   6.976 -0.2534 -0.2283  0.3655
  850POPE   C3B12021   1.604   2.707   7.425  0.1548  0.1943 -0.1318
  850POPE   C4B12022   1.337   2.823   7.803  0.1214 -0.1339  0.0042
  851POPE   NH312023  18.622   4.504   4.472 -0.1903 -0.0979 -0.0156
  851POPE   PO412024  19.066   4.557   4.571  0.1826 -0.2207 -0.0271
  851POPE   GL112025  19.206   4.410   4.999 -0.0939  0.0469  0.1581
  851POPE   GL212026  19.372   4.617   5.277  0.0318  0.1330  0.1202
  851POPE   C1A12027  19.389   4.077   5.298 -0.0914 -0.0946 -0.2317
  851POPE   D2A12028  19.524   3.930   5.752 -0.0138 -0.1625  0.1603
  851POPE   C3A12029  19.513   3.915   6.268 -0.2144 -0.3630 -0.0795
  851POPE   C4A12030  19.655   3.840   6.628 -0.1438 -0.1271 -0.3495
  851POPE   C1B12031  19.024   4.830   5.514  0.2199  0.0400 -0.0274
  851POPE   C2B12032  18.914   5.022   5.848  0.0941 -0.2792  0.2329
  851POPE   C3B12033  18.732   5.294   6.135  0.1596  0.2462 -0.1659
  851POPE   C4B12034  18.609   5.364   6.650 -0.0999 -0.1033  0.1011
  852POPE   NH312035  15.237  16.550   5.784  0.1286 -0.1437 -0.1329
  852POPE   PO412036  15.529  16.861   5.855 -0.1264  0.0033  0.0528
  852POPE   GL112037  15.917  16.901   6.077  0.2047 -0.3543  0.0344
  852POPE   GL212038  16.151  17.109   6.060  0.1467  0.1691  0.2117
  852POPE   C1A12039  16.169  16.761   6.453  0.0955  0.0363  0.1662
  852POPE   D2A12040  15.998  16.624   6.864  0.0812  0.1638 -0.2768
  852POPE   C3A12041  15.871  16.281   7.104  0.2679 -0.0140  0.0599
  852POPE   C4A12042  16.130  16.135   7.427  0.2811  0.2474 -0.0901
  852POPE   C1B12043  16.297  17.211   6.518 -0.0299 -0.1920  0.0524
  852POPE   C2B12044  16.174  17.130   6.946 -0.0686  0.0779 -0.1598
  852POPE   C3B12045  15.990  16.863   7.286 -0.1305  0.2015 -0.0533
  852POPE   C4B12046  16.034  16.670   7.562 -0.3619 -0.0132 -0.1477
  853POPE   NH312047   2.261  15.434   5.887 -0.0891 -0.0942 -0.1124
  853POPE   PO412048   2.614  15.144   5.905  0.1856 -0.0772 -0.0155
  853POPE   GL112049   2.649  15.110   6.292  0.2474  0.2563  0.1848
  853POPE   GL212050   2.898  14.956   6.267  0.3195  0.1805  0.0029
  853POPE   C1A12051   2.616  15.110   6.681  0.0034  0.3145 -0.0492
  853POPE   D2A12052   2.406  15.216   6.976 -0.1499 -0.1791  0.1678
  853POPE   C3A12053   2.578  15.295   7.348 -0.1127 -0.0961 -0.2574
  853POPE   C4A12054   2.628  15.654   7.723  0.0497 -0.1814 -0.0429
  853POPE   C1B12055   2.975  14.703   6.679 -0.0434  0.1948 -0.0195
  853POPE   C2B12056   3.194  14.504   7.090  0.0488 -0.0348 -0.0943
  853POPE   C3B12057   3.380  14.198   7.236 -0.1649  0.1643 -0.0439
  853POPE   C4B12058   3.728  13.947   7.253 -0.0778 -0.0553  0.1267
  854POPE   NH312059  18.531   0.609   5.735  0.0991 -0.1277 -0.1322
  854POPE   PO412060  18.897   0.916   5.653 -0.0472 -0.1118  0.0817
  854POPE   GL112061  18.757   0.864   6.095 -0.0664 -0.1443  0.2748
  854POPE   GL212062  18.396   0.840   6.145 -0.0591 -0.2629 -0.1225
  854POPE   C1A12063  18.717   0.720   6.575  0.0632 -0.2020  0.1546
  854POPE   D2A12064  18.910   0.570   6.917  0.2348 -0.1980  0.2778
  854POPE   C3A12065  18.897   0.214   7.131  0.1262  0.1187  0.0458
  854POPE   C4A12066  19.261   0.032   7.335  0.0033  0.0407 -0.1907
  854POPE   C1B12067  18.048   1.072   6.441  0.1595 -0.0747  0.0729
  854POPE   C2B12068  17.897   0.924   6.890  0.5043  0.1096  0.2391
  854POPE   C3B12069  17.742   0.933   7.252  0.0562  0.1472 -0.0393
  854POPE   C4B12070  17.930   1.125   7.684  0.2621 -0.1083 -0.0051
  855POPE   NH312071  12.839   0.677   6.117 -0.4645  0.0081 -0.3921
  855POPE   PO412072  12.847   1.101   6.227  0.1330  0.2266 -0.0823
  855POPE   GL112073  13.100   0.965   6.523  0.0433 -0.1402 -0.3866
  855POPE   GL212074  12.842   0.615   6.634  0.0357  0.0743 -0.1019
  855POPE   C1A12075  13.160   0.907   6.870 -0.2074 -0.1421 -0.2146
  855POPE   D2A12076  13.190   0.814   7.299 -0.0713  0.0506 -0.2015
  855POPE   C3A12077  13.480   1.010   7.703  0.1525 -0.2197  0.2819
  855POPE   C4A12078  13.381   1.340   7.992  0.1523  0.0316  0.4079
  855POPE   C1B12079  12.788   0.547   7.084  0.0390  0.1833  0.2435
  855POPE   C2B12080  12.445   0.448   7.303  0.2743 -0.0909 -0.3394
  855POPE   C3B12081  12.194   0.560   7.592  0.2713 -0.0875  0.0122
  855POPE   C4B12082  12.039   0.185   7.906  0.0360  0.1113 -0.4866
  856POPE   NH312083   9.025   6.640   5.770  0.0562 -0.0168 -0.3019
  856POPE   PO412084   8.802   6.640   6.171 -0.2515 -0.0933  0.2759
  856POPE   GL112085   8.641   6.242   6.487 -0.4265 -0.3540  0.0347
  856POPE   GL212086   8.334   6.446   6.495  0.0037 -0.1382 -0.1245
  856POPE   C1A12087   8.445   6.156   6.863 -0.2637 -0.0265  0.2310
  856POPE   D2A12088   8.225   6.442   7.177  0.0661 -0.0367 -0.2255
  856POPE   C3A12089   8.533   6.721   7.029 -0.1687  0.2888 -0.0138
  856POPE   C4A12090   8.893   7.031   7.241 -0.1978  0.0508  0.1736
  856POPE   C1B12091   7.961   6.476   6.766  0.1987  0.0956 -0.1788
  856POPE   C2B12092   7.716   6.524   7.241 -0.2251 -0.2004  0.0181
  856POPE   C3B12093   7.609   6.781   7.482  0.2306 -0.1745  0.0111
  856POPE   C4B12094   7.434   6.841   7.824  0.0419 -0.2996  0.1232
  857POPE   NH312095   0.324  13.204   4.885 -0.0031  0.0506  0.0224
  857POPE   PO412096   0.625  13.372   5.004 -0.1542  0.4012 -0.1915
  857POPE   GL112097   0.583  13.483   5.333  0.0848  0.1653 -0.2841
  857POPE   GL212098   0.961  13.540   5.380  0.2151 -0.0016 -0.1596
  857POPE   C1A12099   0.595  13.492   5.774  0.0884 -0.0930  0.2000
  857POPE   D2A12100   0.571  13.306   6.160  0.1703 -0.2066  0.1496
  857POPE   C3A12101   0.748  13.476   6.565  0.0847 -0.1512 -0.2713
  857POPE   C4A12102   0.791  13.927   6.709 -0.5259 -0.0403 -0.2013
  857POPE   C1B12103   1.086  13.275   5.752  0.0371  0.0345 -0.0907
  857POPE   C2B12104   1.026  13.512   6.143  0.2344 -0.2602 -0.3105
  857POPE   C3B12105   1.077  13.946   6.299 -0.2733 -0.5406 -0.1700
  857POPE   C4B12106   0.987  14.280   5.966 -0.1317 -0.0370  0.2348
  858POPE   NH312107   1.941  16.241   5.719  0.1441  0.1990 -0.2937
  858POPE   PO412108   1.897  15.823   5.738  0.4157  0.2244 -0.0648
  858POPE   GL112109   1.704  15.833   6.190  0.2389 -0.0539 -0.0558
  858POPE   GL212110   1.712  16.105   6.292 -0.1048 -0.0494  0.2176
  858POPE   C1A12111   1.710  15.632   6.594 -0.1427  0.0780  0.5088
  858POPE   D2A12112   1.630  15.600   7.029  0.1247  0.0867 -0.1155
  858POPE   C3A12113   1.550  15.278   7.366  0.2898  0.0463  0.1066
  858POPE   C4A12114   1.416  15.272   7.760  0.0404 -0.0633 -0.1601
  858POPE   C1B12115   1.655  16.147   6.708  0.1751 -0.3687  0.2368
  858POPE   C2B12116   1.609  16.343   7.163  0.0929 -0.1122 -0.2911
  858POPE   C3B12117   1.634  16.584   7.471 -0.0134  0.1004 -0.0112
  858POPE   C4B12118   1.792  16.712   7.914  0.0718  0.2427  0.1177
  859POPE   NH312119  14.913  15.236   5.919  0.0035 -0.1819  0.1701
  859POPE   PO412120  14.547  14.985   5.779 -0.4038 -0.2843 -0.0195
  859POPE   GL112121  14.485  14.913   6.269  0.0547  0.4601 -0.2957
  859POPE   GL212122  14.735  15.065   6.432 -0.1617  0.0153  0.1609
  859POPE   C1A12123  14.707  14.524   6.373  0.0094  0.1009 -0.2573
  859POPE   D2A12124  14.735  14.136   6.215 -0.3229  0.2150 -0.2642
  859POPE   C3A12125  14.896  13.799   6.103 -0.0266  0.0652 -0.0309
  859POPE   C4A12126  14.836  13.298   6.223 -0.2183  0.1410  0.0385
  859POPE   C1B12127  14.927  14.864   6.688  0.0697  0.2293  0.2545
  859POPE   C2B12128  14.724  14.823   7.167  0.2505  0.0536  0.0166
  859POPE   C3B12129  14.650  15.139   7.526 -0.0024  0.0137  0.0614
  859POPE   C4B12130  14.755  15.481   7.786 -0.1059 -0.1069  0.0532
  860POPE   NH312131   7.015   8.717   5.631  0.0386 -0.0689  0.1057
  860POPE   PO412132   7.332   8.538   5.320  0.0630  0.4305  0.3706
  860POPE   GL112133   7.373   8.299   5.708  0.0120 -0.3068 -0.2948
  860POPE   GL212134   7.367   8.559   5.929  0.0839 -0.1382  0.4727
  860POPE   C1A12135   7.293   8.208   6.206  0.2572 -0.0204 -0.3402
  860POPE   D2A12136   6.915   8.285   6.448  0.1555 -0.4286  0.3644
  860POPE   C3A12137   6.681   8.083   6.670 -0.2268  0.1974  0.2330
  860POPE   C4A12138   6.701   7.900   7.062  0.0720  0.0198 -0.1330
  860POPE   C1B12139   7.848   8.370   5.970  0.1218 -0.0540 -0.0450
  860POPE   C2B12140   8.211   8.320   6.184 -0.2037  0.3273  0.2286
  860POPE   C3B12141   8.392   8.171   6.531 -0.0505 -0.1710  0.1692
  860POPE   C4B12142   8.557   7.921   6.885  0.2292 -0.2598  0.3768
  861POPE   NH312143   7.669   3.614   5.762  0.1706  0.0470 -0.1231
  861POPE   PO412144   7.374   3.875   5.562  0.1217  0.3466  0.1729
  861POPE   GL112145   7.478   4.019   5.935  0.0804 -0.2533  0.0845
  861POPE   GL212146   7.434   4.359   6.022  0.2924 -0.1871  0.5435
  861POPE   C1A12147   7.244   3.954   6.252 -0.1700 -0.0727 -0.0902
  861POPE   D2A12148   6.884   3.849   6.472 -0.1078 -0.2019  0.0412
  861POPE   C3A12149   6.681   3.452   6.468 -0.1353  0.1218 -0.2239
  861POPE   C4A12150   6.336   3.301   6.538  0.1927 -0.1489 -0.1310
  861POPE   C1B12151   7.501   4.463   6.496  0.1792  0.2024 -0.0684
  861POPE   C2B12152   7.698   4.479   6.936 -0.4913  0.1008  0.1544
  861POPE   C3B12153   7.966   4.599   7.296  0.0484  0.0839 -0.1868
  861POPE   C4B12154   7.971   4.687   7.735  0.0658  0.1255  0.0953
  862POPE   NH312155   7.641   0.976   6.181 -0.0072 -0.2874 -0.0584
  862POPE   PO412156   7.971   1.318   6.418 -0.1893  0.0621 -0.1359
  862POPE   GL112157   7.596   1.206   6.627  0.3390 -0.1958  0.0999
  862POPE   GL212158   7.526   1.387   6.802 -0.2383 -0.0519 -0.1240
  862POPE   C1A12159   7.713   0.781   6.748 -0.1502  0.0485 -0.4272
  862POPE   D2A12160   7.673   0.320   6.716 -0.1119 -0.1259 -0.0393
  862POPE   C3A12161   7.538   0.055   7.063 -0.3474 -0.3150 -0.0108
  862POPE   C4A12162   7.208  -0.058   7.346  0.0092  0.1316 -0.0267
  862POPE   C1B12163   7.793   1.706   7.039 -0.1824 -0.0833  0.3339
  862POPE   C2B12164   7.625   1.994   7.437  0.0157  0.0160  0.0406
  862POPE   C3B12165   7.347   1.890   7.767  0.0369  0.2728 -0.1463
  862POPE   C4B12166   6.999   1.793   7.938  0.1109  0.1778  0.1491
  863POPE   NH312167  12.889   1.453   5.885 -0.4174 -0.0844 -0.0351
  863POPE   PO412168  12.744   1.705   6.247  0.3150  0.0660  0.0872
  863POPE   GL112169  12.408   1.817   6.477 -0.2357 -0.1979 -0.0664
  863POPE   GL212170  12.380   1.637   6.874  0.0690  0.2109 -0.0451
  863POPE   C1A12171  12.198   2.126   6.793 -0.1132 -0.2318  0.1694
  863POPE   D2A12172  12.235   2.475   7.166  0.3541  0.1944  0.0175
  863POPE   C3A12173  12.376   2.700   7.506  0.3099 -0.1040 -0.0535
  863POPE   C4A12174  12.593   2.795   7.924 -0.0113  0.0873 -0.3831
  863POPE   C1B12175  12.422   1.625   7.393  0.0032 -0.2211  0.3630
  863POPE   C2B12176  12.503   1.723   7.756  0.0588  0.0801  0.1686
  863POPE   C3B12177  12.825   1.583   7.987 -0.1550  0.1675  0.1884
  863POPE   C4B12178  12.987   1.362   8.378  0.0722 -0.1548  0.0136
  864POPE   NH312179  13.724  18.459   5.508  0.2211  0.0790  0.1704
  864POPE   PO412180  13.944  18.210   5.678 -0.0367 -0.2022  0.4099
  864POPE   GL112181  13.947  18.701   5.946 -0.0662  0.3723 -0.4801
  864POPE   GL212182  14.205  18.750   6.117  0.2614  0.0174 -0.1413
  864POPE   C1A12183  13.789  18.710   6.330  0.0325  0.1736  0.1065
  864POPE   D2A12184  13.622  18.899   6.647  0.1882 -0.0904 -0.1849
  864POPE   C3A12185  13.777  18.887   7.030  0.1421 -0.0161  0.0937
  864POPE   C4A12186  14.028  18.948   7.421 -0.1650 -0.0637  0.0691
  864POPE   C1B12187  14.274  18.766   6.528  0.2697 -0.2110  0.0147
  864POPE   C2B12188  14.354  18.823   7.010  0.0121 -0.0198  0.3486
  864POPE   C3B12189  14.532  18.712   7.355  0.0269 -0.0209  0.1154
  864POPE   C4B12190  14.937  18.850   7.560 -0.0530 -0.2308  0.3670
  865POPE   NH312191  16.698  17.660   5.590 -0.0212  0.3348 -0.1314
  865POPE   PO412192  16.362  17.891   5.677 -0.1522  0.1772 -0.1761
  865POPE   GL112193  16.474  18.126   6.105 -0.0095  0.1970  0.0514
  865POPE   GL212194  16.156  18.186   6.234  0.2663  0.1516 -0.1822
  865POPE   C1A12195  16.646  18.312   6.485  0.1655  0.0149 -0.2306
  865POPE   D2A12196  16.486  18.439   6.939 -0.1426 -0.0621 -0.1614
  865POPE   C3A12197  16.533  18.861   7.168  0.1318 -0.0916 -0.2990
  865POPE   C4A12198  16.503  18.977   7.557 -0.1547 -0.5347 -0.3401
  865POPE   C1B12199  16.037  18.316   6.580  0.3910 -0.1179  0.3965
  865POPE   C2B12200  16.086  18.187   7.082 -0.1933  0.2348 -0.0670
  865POPE   C3B12201  16.186  17.923   7.440 -0.2587  0.1199  0.0152
  865POPE   C4B12202  15.994  17.780   7.809 -0.0829 -0.1837  0.1192
  866POPE   NH312203  12.541   7.145   5.532  0.0108 -0.3193 -0.3234
  866POPE   PO412204  12.892   7.268   5.807 -0.0674 -0.0017  0.1895
  866POPE   GL112205  12.915   7.485   6.111 -0.0013  0.2296 -0.4949
  866POPE   GL212206  13.297   7.436   6.091  0.1730 -0.2521  0.0010
  866POPE   C1A12207  12.805   7.298   6.480  0.3571 -0.0202 -0.2234
  866POPE   D2A12208  13.033   7.421   6.773  0.1886  0.0189 -0.0043
  866POPE   C3A12209  12.868   7.392   7.200  0.2221 -0.0796  0.0484
  866POPE   C4A12210  12.548   7.330   7.601 -0.0319  0.0127 -0.3256
  866POPE   C1B12211  13.170   7.773   6.450  0.2603  0.1539 -0.0764
  866POPE   C2B12212  13.088   7.938   6.896 -0.1212 -0.2247 -0.1436
  866POPE   C3B12213  13.391   8.021   7.293  0.0163 -0.1863 -0.2004
  866POPE   C4B12214  13.723   8.222   7.386 -0.1964  0.0862 -0.0535
  867POPE   NH312215   3.057  13.365   5.385 -0.2685 -0.1990  0.0284
  867POPE   PO412216   2.843  13.751   5.228 -0.0161  0.3241  0.2779
  867POPE   GL112217   2.914  13.740   5.748 -0.0059 -0.3551 -0.1873
  867POPE   GL212218   3.010  13.412   5.899 -0.0368  0.0719  0.1394
  867POPE   C1A12219   2.656  13.647   6.094 -0.3752 -0.0844  0.1481
  867POPE   D2A12220   2.590  13.428   6.463  0.1921  0.0941  0.0202
  867POPE   C3A12221   2.697  13.088   6.688  0.1060 -0.2260  0.0538
  867POPE   C4A12222   2.518  12.643   6.678  0.2623 -0.1082  0.0533
  867POPE   C1B12223   2.904  13.108   6.246 -0.2430  0.3259  0.0306
  867POPE   C2B12224   2.504  12.894   6.216  0.1225 -0.1727  0.0406
  867POPE   C3B12225   2.245  12.541   6.273  0.0602  0.4096  0.1694
  867POPE   C4B12226   1.985  12.122   5.946 -0.1405 -0.1224 -0.4063
  868POPE   NH312227   0.953   9.220   5.392 -0.0503 -0.2308 -0.2995
  868POPE   PO412228   0.816   9.668   5.422 -0.0480  0.1234  0.0955
  868POPE   GL112229   0.768   9.343   5.847  0.2593  0.1160 -0.0881
  868POPE   GL212230   0.663   9.029   5.800 -0.1343 -0.0006  0.1218
  868POPE   C1A12231   0.629   9.230   6.236 -0.0481 -0.2150 -0.0352
  868POPE   D2A12232   0.686   9.270   6.599  0.1015 -0.3587 -0.1870
  868POPE   C3A12233   0.773   8.892   7.005 -0.1352  0.0800  0.2592
  868POPE   C4A12234   0.950   8.876   7.426 -0.1171  0.0803 -0.1438
  868POPE   C1B12235   0.924   8.848   6.136 -0.3905  0.2444  0.1272
  868POPE   C2B12236   0.973   8.887   6.553  0.1751  0.2387 -0.0560
  868POPE   C3B12237   1.334   8.868   6.922  0.1005  0.0104 -0.1415
  868POPE   C4B12238   1.733   8.616   6.936 -0.1886 -0.1239 -0.2188
  869POPE   NH312239   7.381  14.803   5.813  0.0908 -0.1333 -0.2449
  869POPE   PO412240   7.049  14.934   6.082  0.0076  0.1436  0.2086
  869POPE   GL112241   7.256  15.091   6.304  0.0639 -0.1613  0.0496
  869POPE   GL212242   7.398  15.364   6.209  0.4950  0.0312  0.1490
  869POPE   C1A12243   7.351  15.140   6.701 -0.1024 -0.1548  0.0262
  869POPE   D2A12244   7.245  15.176   7.142 -0.1544 -0.2046 -0.0226
  869POPE   C3A12245   7.320  14.843   7.442  0.0371 -0.2472 -0.1165
  869POPE   C4A12246   7.592  15.076   7.779 -0.2526  0.1908  0.1471
  869POPE   C1B12247   7.387  15.656   6.612 -0.1601  0.1392 -0.0071
  869POPE   C2B12248   7.354  15.694   7.097  0.1606  0.0938  0.3352
  869POPE   C3B12249   7.494  15.831   7.538 -0.0697 -0.0053 -0.3080
  869POPE   C4B12250   7.513  15.534   7.893 -0.0462  0.4445  0.1764
  870POPE   NH312251  15.625  15.860   5.579  0.3013  0.2376  0.0796
  870POPE   PO412252  15.206  16.060   5.681  0.0160 -0.1604 -0.1336
  870POPE   GL112253  15.387  16.126   6.077  0.2186 -0.2065  0.2728
  870POPE   GL212254  15.221  16.199   6.438 -0.3855  0.2841 -0.0521
  870POPE   C1A12255  15.578  15.873   6.436 -0.2310 -0.1106  0.0286
  870POPE   D2A12256  15.497  15.594   6.725 -0.3379 -0.0883 -0.1299
  870POPE   C3A12257  15.443  15.531   7.144  0.0234 -0.1500 -0.2367
  870POPE   C4A12258  15.673  15.300   7.360  0.1777 -0.1229  0.0000
  870POPE   C1B12259  15.371  16.069   6.841  0.0623 -0.1938  0.0457
  870POPE   C2B12260  15.490  15.981   7.189  0.1361 -0.0078  0.3393
  870POPE   C3B12261  15.713  15.782   7.455 -0.1274  0.1516 -0.2013
  870POPE   C4B12262  15.726  15.509   7.864  0.0724  0.0012  0.1081
  871POPE   NH312263  13.035  16.028   5.808  0.2903  0.2549 -0.1619
  871POPE   PO412264  13.144  15.840   6.179 -0.2255 -0.0088  0.1632
  871POPE   GL112265  13.250  16.305   6.329 -0.0143 -0.2770  0.0639
  871POPE   GL212266  13.413  16.284   6.712  0.1419 -0.2495  0.2093
  871POPE   C1A12267  13.144  16.740   6.479 -0.1089 -0.0967  0.0036
  871POPE   D2A12268  13.148  17.164   6.688  0.0325 -0.4135 -0.2356
  871POPE   C3A12269  13.066  17.359   7.071  0.0818 -0.1665  0.1079
  871POPE   C4A12270  13.370  17.443   7.397 -0.0482 -0.1277  0.3125
  871POPE   C1B12271  13.472  16.142   7.129 -0.2479  0.0689 -0.0362
  871POPE   C2B12272  13.467  16.161   7.570 -0.0817 -0.3037 -0.2105
  871POPE   C3B12273  13.193  16.303   7.882 -0.1066 -0.0489  0.1467
  871POPE   C4B12274  12.764  16.124   8.075  0.0805 -0.0752 -0.2038
  872YOPE   NH312275  10.965  10.424   6.183  0.0941 -0.0753  0.1459
  872YOPE   PO412276  11.201  10.047   6.053  0.2260  0.1085 -0.0474
  872YOPE   GL112277  11.138   9.893   6.454  0.0411 -0.1249  0.2865
  872YOPE   GL212278  10.803  10.044   6.447 -0.0687  0.1810  0.0638
  872YOPE   C1A12279  11.233   9.904   6.818 -0.2818 -0.0522  0.2324
  872YOPE   D2A12280  11.315   9.586   7.178 -0.0506 -0.1072 -0.3825
  872YOPE   C3A12281  11.187   9.726   7.678 -0.1736 -0.0141  0.0438
  872YOPE   C4A12282  11.250   9.685   8.155 -0.2143 -0.0616  0.1204
  872YOPE   C1B12283  10.736   9.733   6.779 -0.2528  0.0765  0.1643
  872YOPE   C2B12284  10.776   9.642   7.176 -0.1146  0.0684 -0.2257
  872YOPE   D3B12285  10.966   9.344   7.477 -0.0423 -0.0706 -0.0589
  872YOPE   C4B12286  11.031   9.335   7.930  0.0059  0.5090 -0.1112
  873YOPE   NH312287   5.752  17.774   5.598 -0.2036 -0.3894  0.4132
  873YOPE   PO412288   5.964  17.441   5.378 -0.1080 -0.0614  0.1383
  873YOPE   GL112289   5.924  17.248   5.733 -0.2042 -0.3354 -0.0949
  873YOPE   GL212290   5.636  17.455   5.970 -0.0946 -0.0680 -0.1603
  873YOPE   C1A12291   6.042  17.058   6.138  0.1418 -0.2404  0.1879
  873YOPE   D2A12292   6.053  16.776   6.531  0.3076 -0.0698  0.1044
  873YOPE   C3A12293   6.447  16.895   6.838  0.2125  0.1014 -0.3408
  873YOPE   C4A12294   6.517  16.820   7.365  0.2584 -0.0469 -0.1964
  873YOPE   C1B12295   5.927  17.507   6.358 -0.1384 -0.0800 -0.1032
  873YOPE   C2B12296   5.795  17.774   6.773  0.1048  0.2197  0.0846
  873YOPE   D3B12297   5.698  17.920   7.219 -0.2473  0.1674  0.1590
  873YOPE   C4B12298   5.457  18.104   7.501  0.0167  0.0763  0.1733
  874YOPE   NH312299   7.288   2.734   5.465  0.0950  0.1302  0.2167
  874YOPE   PO412300   7.091   2.896   5.846  0.1025  0.0750 -0.0983
  874YOPE   GL112301   6.699   3.041   6.010 -0.0606  0.1680 -0.3176
  874YOPE   GL212302   6.364   2.943   6.013  0.0112 -0.0890  0.1501
  874YOPE   C1A12303   6.397   3.426   6.022  0.3598  0.0340  0.1174
  874YOPE   D2A12304   6.533   3.829   6.062 -0.0986  0.1557  0.3787
  874YOPE   C3A12305   6.229   4.205   6.185  0.0227  0.0447  0.1550
  874YOPE   C4A12306   6.163   4.578   6.308  0.0059  0.2286  0.0124
  874YOPE   C1B12307   6.265   2.796   6.500 -0.2315  0.0714 -0.1153
  874YOPE   C2B12308   6.018   2.554   6.692 -0.2824  0.4400 -0.1224
  874YOPE   D3B12309   5.737   2.250   6.720 -0.1093 -0.2725  0.0858
  874YOPE   C4B12310   5.415   2.147   6.979  0.0040  0.0656  0.1363
  875YOPE   NH312311  13.905  13.736   5.984  0.1409 -0.0200 -0.1218
  875YOPE   PO412312  13.484  13.695   6.287 -0.1857 -0.2400 -0.0544
  875YOPE   GL112313  13.807  13.358   6.382 -0.2208 -0.0489 -0.0903
  875YOPE   GL212314  13.984  13.154   6.236 -0.0757 -0.2380  0.0159
  875YOPE   C1A12315  13.915  13.304   6.825  0.1651  0.1597 -0.1361
  875YOPE   D2A12316  14.116  13.209   7.215  0.0030  0.1550 -0.0087
  875YOPE   C3A12317  14.076  13.476   7.551 -0.3624  0.1051 -0.1877
  875YOPE   C4A12318  14.353  13.672   7.908  0.0789 -0.1480 -0.0443
  875YOPE   C1B12319  14.454  13.010   6.312 -0.0665  0.2544  0.2421
  875YOPE   C2B12320  14.502  12.835   6.714 -0.1043 -0.2028 -0.1557
  875YOPE   D3B12321  14.526  12.869   7.188  0.1255 -0.1310 -0.1602
  875YOPE   C4B12322  14.365  12.846   7.619 -0.0009  0.0910 -0.1734
  876YOPE   NH312323  18.450  16.178   5.612  0.1250  0.2408  0.0098
  876YOPE   PO412324  18.490  16.603   5.594  0.3451 -0.1031 -0.0396
  876YOPE   GL112325  18.549  16.386   6.128 -0.2779  0.2428  0.0888
  876YOPE   GL212326  18.286  16.101   6.059  0.0704 -0.2112 -0.0682
  876YOPE   C1A12327  18.550  16.115   6.478 -0.0291  0.1650 -0.4361
  876YOPE   D2A12328  18.465  16.095   6.971 -0.0496 -0.0452 -0.2664
  876YOPE   C3A12329  18.615  16.503   7.210  0.3659 -0.2706  0.0662
  876YOPE   C4A12330  18.426  16.792   7.451 -0.0351  0.0229  0.1410
  876YOPE   C1B12331  18.024  16.025   6.427  0.1237 -0.2294 -0.0953
  876YOPE   C2B12332  17.988  16.083   6.897 -0.0882 -0.2156  0.0082
  876YOPE   D3B12333  18.223  16.166   7.390  0.1836  0.1106  0.1104
  876YOPE   C4B12334  18.613  16.273   7.654  0.0850  0.0190 -0.1105
  877YOPE   NH312335  10.121   0.997   6.034 -0.0371 -0.0856 -0.1251
  877YOPE   PO412336  10.127   1.458   6.093 -0.1522  0.0108  0.0463
  877YOPE   GL112337  10.022   1.273   6.498 -0.2392  0.0566 -0.0121
  877YOPE   GL212338  10.218   1.018   6.779 -0.1478 -0.1142 -0.1648
  877YOPE   C1A12339   9.808   1.360   6.937 -0.3738 -0.2306  0.1401
  877YOPE   D2A12340   9.693   1.689   7.175  0.0017  0.2196 -0.1010
  877YOPE   C3A12341   9.648   1.655   7.598  0.1408  0.1657 -0.0188
  877YOPE   C4A12342   9.357   1.928   7.956 -0.1861 -0.1181 -0.1605
  877YOPE   C1B12343  10.255   0.904   7.203 -0.2692 -0.0625  0.0172
  877YOPE   C2B12344  10.172   0.962   7.682 -0.0796 -0.3546  0.0203
  877YOPE   D3B12345  10.109   1.220   8.048 -0.0444 -0.2082 -0.1217
  877YOPE   C4B12346   9.991   1.618   8.056  0.0092  0.0328  0.4238
  878YOPE   NH312347   6.889  17.423   5.809  0.1020  0.2272  0.1978
  878YOPE   PO412348   6.626  17.110   5.786 -0.1781  0.1172 -0.2448
  878YOPE   GL112349   6.533  17.030   6.159  0.0619  0.1594  0.2366
  878YOPE   GL212350   6.457  16.762   6.221  0.3094 -0.0924  0.1719
  878YOPE   C1A12351   6.325  17.215   6.470  0.2124 -0.1627 -0.1502
  878YOPE   D2A12352   6.090  17.306   6.810  0.0016 -0.2899 -0.1270
  878YOPE   C3A12353   6.039  16.900   7.099 -0.0465  0.0832  0.4002
  878YOPE   C4A12354   5.978  17.026   7.545 -0.1606 -0.0751  0.0498
  878YOPE   C1B12355   6.333  16.401   6.536 -0.2186  0.0203  0.2111
  878YOPE   C2B12356   6.160  16.428   6.915 -0.4089 -0.1507  0.2627
  878YOPE   D3B12357   6.156  16.398   7.367 -0.0702 -0.1960 -0.2748
  878YOPE   C4B12358   6.433  16.476   7.722 -0.1268 -0.1797 -0.2689
  879YOPE   NH312359  12.736  15.753   6.398 -0.0670  0.2194 -0.2145
  879YOPE   PO412360  12.772  16.184   6.191  0.0638  0.2840 -0.0061
  879YOPE   GL112361  12.873  16.167   6.613 -0.0797  0.1498 -0.0632
  879YOPE   GL212362  12.953  15.911   6.821  0.0763  0.5241  0.1281
  879YOPE   C1A12363  12.937  16.310   7.063 -0.0375  0.0495  0.0505
  879YOPE   D2A12364  13.111  16.476   7.369 -0.3095  0.0122 -0.0890
  879YOPE   C3A12365  13.098  16.961   7.444 -0.0846 -0.2924 -0.0618
  879YOPE   C4A12366  13.123  17.258   7.815 -0.2584  0.0321 -0.0966
  879YOPE   C1B12367  13.105  15.850   7.316 -0.1535  0.1618 -0.0059
  879YOPE   C2B12368  13.035  15.794   7.705  0.0688 -0.1420  0.1707
  879YOPE   D3B12369  12.878  15.574   8.046 -0.0406 -0.3507  0.1826
  879YOPE   C4B12370  12.604  15.662   8.309 -0.0369  0.2150  0.1010
  880YOPE   NH312371   5.734   8.037   5.801 -0.1407  0.0752 -0.0017
  880YOPE   PO412372   5.659   7.585   5.871 -0.0480  0.5327  0.0135
  880YOPE   GL112373   5.671   7.407   6.231  0.0033  0.0874  0.0917
  880YOPE   GL212374   5.435   7.342   6.390 -0.1545 -0.2295 -0.1163
  880YOPE   C1A12375   6.062   7.386   6.389 -0.2828 -0.1668  0.3347
  880YOPE   D2A12376   6.347   7.069   6.485  0.2220 -0.0840  0.1121
  880YOPE   C3A12377   6.356   6.904   6.784  0.2257 -0.0962 -0.2254
  880YOPE   C4A12378   5.905   6.863   7.140 -0.0594 -0.2032  0.0516
  880YOPE   C1B12379   5.380   7.357   6.868  0.0176  0.0021 -0.1712
  880YOPE   C2B12380   5.634   7.239   7.347  0.2202  0.0102  0.0258
  880YOPE   D3B12381   5.690   6.885   7.580  0.0639 -0.2911 -0.1741
  880YOPE   C4B12382   5.744   6.549   7.852  0.0972  0.1609  0.0130
  881YOPE   NH312383  10.679  14.778   5.897  0.0068  0.0909  0.1545
  881YOPE   PO412384  11.000  14.930   5.723  0.2301  0.2429 -0.2268
  881YOPE   GL112385  11.029  15.072   6.141  0.0241  0.2021 -0.1234
  881YOPE   GL212386  11.307  15.207   6.264  0.0122 -0.0940 -0.2049
  881YOPE   C1A12387  10.896  15.050   6.634  0.0853  0.1337 -0.1038
  881YOPE   D2A12388  11.024  15.021   7.023  0.2175  0.1869 -0.2446
  881YOPE   C3A12389  11.205  14.773   7.201 -0.0060  0.1136 -0.2555
  881YOPE   C4A12390  11.327  14.694   7.608  0.1439  0.0392 -0.3365
  881YOPE   C1B12391  11.181  15.496   6.547  0.0923  0.1887 -0.0235
  881YOPE   C2B12392  10.949  15.537   6.913  0.1591 -0.1228  0.1601
  881YOPE   D3B12393  10.976  15.553   7.326 -0.0160 -0.1476  0.2720
  881YOPE   C4B12394  11.259  15.207   7.501 -0.0875 -0.2124  0.0593
  882YOPE   NH312395  12.934   3.598   5.876  0.1720  0.0595  0.2177
  882YOPE   PO412396  12.534   3.206   6.010  0.2198 -0.1285  0.1091
  882YOPE   GL112397  12.587   3.242   6.436  0.0416 -0.1382 -0.0127
  882YOPE   GL212398  12.699   2.991   6.569  0.0337  0.0644 -0.1511
  882YOPE   C1A12399  12.400   3.463   6.779 -0.1317 -0.0464  0.2616
  882YOPE   D2A12400  12.329   3.447   7.176 -0.0815  0.0556 -0.2081
  882YOPE   C3A12401  12.319   3.581   7.620 -0.0828 -0.1243  0.1629
  882YOPE   C4A12402  12.226   3.716   7.996  0.1180  0.0932 -0.1866
  882YOPE   C1B12403  12.879   3.203   6.862 -0.2032  0.0004 -0.1445
  882YOPE   C2B12404  12.846   3.412   7.118  0.2774 -0.0805  0.0416
  882YOPE   D3B12405  12.763   3.664   7.453 -0.0199  0.1022  0.3953
  882YOPE   C4B12406  12.696   3.934   7.766 -0.0497 -0.2703  0.1025
  883YOPE   NH312407  17.638   7.878   4.935  0.0027  0.1960  0.1561
  883YOPE   PO412408  17.452   7.712   5.222  0.2765 -0.0331 -0.1273
  883YOPE   GL112409  17.581   7.933   5.600  0.0371  0.0002 -0.0081
  883YOPE   GL212410  17.279   8.028   5.808 -0.0204  0.0383  0.2850
  883YOPE   C1A12411  17.580   7.770   6.023  0.0649 -0.1746  0.0787
  883YOPE   D2A12412  17.631   7.647   6.407  0.1696 -0.2591  0.3162
  883YOPE   C3A12413  17.941   7.656   6.653  0.1002 -0.2724  0.2763
  883YOPE   C4A12414  18.157   7.617   6.934 -0.0196 -0.0872 -0.2982
  883YOPE   C1B12415  17.191   7.960   6.214  0.1106 -0.1619  0.2240
  883YOPE   C2B12416  17.012   7.736   6.571  0.0053  0.1234  0.0259
  883YOPE   D3B12417  16.758   7.832   6.974 -0.0903  0.0380  0.0131
  883YOPE   C4B12418  16.586   7.983   7.305 -0.1720  0.1122  0.1861
  884YOPE   NH312419   1.431  12.451   4.909 -0.1269 -0.0848  0.1391
  884YOPE   PO412420   1.757  12.474   5.127  0.0594 -0.2322 -0.3499
  884YOPE   GL112421   1.545  12.704   5.461 -0.0349 -0.1995 -0.3750
  884YOPE   GL212422   1.585  12.978   5.682  0.0209  0.1963  0.1124
  884YOPE   C1A12423   1.140  12.602   5.682 -0.2051 -0.2158  0.0977
  884YOPE   D2A12424   0.865  12.741   6.010 -0.0035  0.1452  0.3746
  884YOPE   C3A12425   0.470  12.952   5.866  0.1320 -0.0383  0.0399
  884YOPE   C4A12426   0.129  13.077   5.808 -0.0309 -0.0369 -0.3471
  884YOPE   C1B12427   1.402  13.105   6.125  0.0567 -0.0404  0.1177
  884YOPE   C2B12428   1.061  12.986   6.445 -0.0041 -0.1063  0.0719
  884YOPE   D3B12429   0.779  13.031   6.794 -0.3509  0.0609 -0.0669
  884YOPE   C4B12430   0.577  13.155   7.159  0.1589 -0.1078  0.0496
  885YOPE   NH312431   2.116  14.052   5.124  0.0330  0.0094 -0.5112
  885YOPE   PO412432   2.118  13.620   5.260 -0.1457 -0.3555  0.1990
  885YOPE   GL112433   2.025  13.530   5.661 -0.0063 -0.2130 -0.0867
  885YOPE   GL212434   2.104  13.822   5.921 -0.3832 -0.2675  0.0809
  885YOPE   C1A12435   1.839  13.424   6.042 -0.2033  0.2810  0.0802
  885YOPE   D2A12436   1.693  13.486   6.446  0.0105 -0.2230  0.1979
  885YOPE   C3A12437   1.280  13.573   6.558  0.3130 -0.0915  0.0105
  885YOPE   C4A12438   1.118  13.451   6.898  0.3064  0.3689  0.1121
  885YOPE   C1B12439   2.135  13.762   6.343  0.0617 -0.1651  0.2597
  885YOPE   C2B12440   2.218  13.602   6.787 -0.0533  0.0832  0.0906
  885YOPE   D3B12441   2.317  13.084   7.077 -0.2469 -0.3437  0.0656
  885YOPE   C4B12442   2.421  12.699   7.212  0.0687 -0.1965  0.1188
  886YOPE   NH312443   9.701  10.695   6.034 -0.0009 -0.2167  0.0654
  886YOPE   PO412444   9.339  10.665   5.744  0.1822  0.3891  0.0404
  886YOPE   GL112445   9.022  10.510   6.021  0.1044 -0.4096  0.4084
  886YOPE   GL212446   8.816  10.722   6.046  0.0831 -0.3403  0.0585
  886YOPE   C1A12447   8.917  10.073   6.311 -0.0698 -0.0335 -0.0171
  886YOPE   D2A12448   8.856  10.108   6.734 -0.2418  0.0894  0.0069
  886YOPE   C3A12449   8.449   9.949   6.926  0.0985  0.0026  0.1023
  886YOPE   C4A12450   8.042   9.782   6.930 -0.1237  0.1648 -0.3746
  886YOPE   C1B12451   8.877  10.626   6.480  0.1067  0.0932  0.0540
  886YOPE   C2B12452   8.797  10.502   6.969 -0.1027  0.1370  0.2081
  886YOPE   D3B12453   9.107  10.561   7.295 -0.1848 -0.2501  0.0605
  886YOPE   C4B12454   9.353  10.383   7.665  0.3126 -0.1480 -0.0796
  887YOPE   NH312455   1.779  14.748   5.857  0.0725 -0.1053 -0.0990
  887YOPE   PO412456   2.121  14.947   5.669  0.2111 -0.0084 -0.2013
  887YOPE   GL112457   2.161  14.955   6.137 -0.2675  0.1011  0.0810
  887YOPE   GL212458   2.207  14.748   6.348  0.0401  0.1874 -0.1645
  887YOPE   C1A12459   2.179  15.277   6.508  0.0285  0.0409  0.3513
  887YOPE   D2A12460   2.120  15.603   6.805 -0.0351  0.0563  0.0760
  887YOPE   C3A12461   2.261  15.726   7.181 -0.1150  0.2443  0.1216
  887YOPE   C4A12462   2.361  16.007   7.434  0.2837  0.1627  0.2702
  887YOPE   C1B12463   2.215  14.841   6.739  0.0866  0.0327 -0.0327
  887YOPE   C2B12464   2.053  14.687   7.068 -0.1706 -0.0532  0.1119
  887YOPE   D3B12465   1.796  14.797   7.282  0.0026  0.0628  0.0539
  887YOPE   C4B12466   1.608  14.826   7.736 -0.0225 -0.1411 -0.2212
  888YOPE   NH312467   8.079   2.537   6.046 -0.1629  0.0893 -0.0700
  888YOPE   PO412468   8.402   2.821   5.889  0.0875 -0.2399 -0.0639
  888YOPE   GL112469   8.307   2.931   6.300 -0.1709  0.5058  0.3221
  888YOPE   GL212470   8.132   2.651   6.531  0.0986  0.1510  0.0789
  888YOPE   C1A12471   8.451   3.038   6.736  0.1486  0.1973 -0.1776
  888YOPE   D2A12472   8.483   3.044   7.164 -0.2480  0.2048 -0.0882
  888YOPE   C3A12473   8.212   3.097   7.559  0.2998  0.1449  0.1194
  888YOPE   C4A12474   7.963   3.136   8.010 -0.0655 -0.0235  0.0068
  888YOPE   C1B12475   8.144   2.536   6.927  0.1264 -0.1375 -0.0492
  888YOPE   C2B12476   8.096   2.677   7.311  0.0017 -0.1487 -0.1365
  888YOPE   D3B12477   7.759   2.873   7.648  0.1956  0.0000 -0.1857
  888YOPE   C4B12478   7.510   2.825   7.994 -0.0638  0.1431 -0.2007
  889YOPE   NH312479  11.262   3.992   5.697  0.0599  0.0227  0.1403
  889YOPE   PO412480  11.515   4.084   5.923 -0.2941  0.1610  0.2560
  889YOPE   GL112481  11.567   4.213   6.303 -0.0554  0.1743  0.1296
  889YOPE   GL212482  11.871   4.218   6.383  0.0662  0.0753 -0.3065
  889YOPE   C1A12483  11.506   4.192   6.770 -0.3561 -0.0143  0.2581
  889YOPE   D2A12484  11.570   4.520   7.102 -0.4422  0.0354  0.2042
  889YOPE   C3A12485  11.715   4.451   7.497  0.1486  0.2168 -0.0108
  889YOPE   C4A12486  11.984   4.484   7.806 -0.0912  0.1316 -0.3135
  889YOPE   C1B12487  11.788   4.577   6.609 -0.0817  0.0723  0.0043
  889YOPE   C2B12488  11.960   4.880   6.769 -0.1852 -0.0317  0.0276
  889YOPE   D3B12489  11.971   5.295   6.840 -0.2902  0.1813  0.0915
  889YOPE   C4B12490  11.862   5.747   6.814  0.2915  0.1175  0.2122
  890YOPE   NH312491   8.166   3.688   5.855  0.0860  0.0304 -0.2576
  890YOPE   PO412492   8.067   3.256   5.744 -0.1378 -0.0301  0.0525
  890YOPE   GL112493   7.963   3.310   6.087 -0.1915 -0.1608 -0.0882
  890YOPE   GL212494   7.752   3.543   6.268 -0.1122 -0.3529 -0.0039
  890YOPE   C1A12495   7.996   3.183   6.597 -0.0746 -0.2430 -0.0585
  890YOPE   D2A12496   7.949   3.206   7.013 -0.1305 -0.1467  0.1311
  890YOPE   C3A12497   7.691   3.304   7.354 -0.1252  0.3760  0.1917
  890YOPE   C4A12498   7.544   3.480   7.793  0.1749  0.2989  0.0292
  890YOPE   C1B12499   7.734   3.594   6.713  0.0443  0.0702 -0.2645
  890YOPE   C2B12500   7.716   3.738   7.054  0.0155 -0.1281  0.1602
  890YOPE   D3B12501   7.851   3.762   7.507 -0.2462 -0.4109  0.0389
  890YOPE   C4B12502   8.079   3.629   7.818  0.2705  0.1021  0.0693
  891YOPE   NH312503   8.307  18.191   6.080 -0.1634 -0.0690 -0.0312
  891YOPE   PO412504   8.320  17.700   5.983  0.0567  0.1874 -0.2686
  891YOPE   GL112505   8.261  17.692   6.420 -0.3187  0.1080  0.1959
  891YOPE   GL212506   7.945  17.573   6.530  0.0923 -0.2177  0.0942
  891YOPE   C1A12507   8.471  17.709   6.696  0.0945 -0.3681 -0.1976
  891YOPE   D2A12508   8.679  17.434   7.075 -0.1144 -0.0902  0.0806
  891YOPE   C3A12509   8.753  17.475   7.580 -0.0632  0.2396 -0.1622
  891YOPE   C4A12510   8.878  17.249   7.920 -0.0253  0.1016 -0.0120
  891YOPE   C1B12511   7.970  17.428   6.971  0.2423 -0.0720 -0.0990
  891YOPE   C2B12512   7.826  17.224   7.321  0.1241  0.1199 -0.1237
  891YOPE   D3B12513   7.536  17.085   7.713  0.0131 -0.2336  0.3279
  891YOPE   C4B12514   7.237  17.130   7.829  0.3706  0.0427 -0.0143
  892YOPE   NH312515   0.683  13.924   5.083  0.2835  0.1662 -0.0861
  892YOPE   PO412516   0.284  13.827   5.103  0.0751  0.1185  0.0820
  892YOPE   GL112517   0.235  13.841   5.514 -0.0220 -0.0154  0.1666
  892YOPE   GL212518   0.337  14.126   5.638 -0.0269 -0.1507  0.0210
  892YOPE   C1A12519   0.146  13.603   5.936  0.1597 -0.1600 -0.2479
  892YOPE   D2A12520   0.126  13.583   6.348 -0.1587  0.0366 -0.3282
  892YOPE   C3A12521   0.350  13.668   6.704 -0.1279 -0.3026 -0.1384
  892YOPE   C4A12522   0.613  13.673   7.061 -0.0392 -0.1392  0.1909
  892YOPE   C1B12523   0.171  14.088   6.098  0.1323 -0.3485  0.1625
  892YOPE   C2B12524   0.157  14.061   6.546 -0.0548 -0.1856 -0.0106
  892YOPE   D3B12525   0.088  14.000   6.967 -0.0336 -0.0600  0.1993
  892YOPE   C4B12526   0.088  13.909   7.327  0.0249 -0.0984 -0.2017
  893YOPE   NH312527   3.046   1.220   5.619 -0.3748 -0.0074  0.0241
  893YOPE   PO412528   2.671   1.487   5.459 -0.0496 -0.0622  0.0008
  893YOPE   GL112529   2.417   1.605   5.850 -0.1503 -0.1728 -0.0009
  893YOPE   GL212530   2.302   1.955   6.119  0.2514  0.2402 -0.0831
  893YOPE   C1A12531   2.361   1.421   6.235  0.1692 -0.2770 -0.0551
  893YOPE   D2A12532   2.596   1.256   6.651  0.1178  0.0121  0.1091
  893YOPE   C3A12533   2.859   1.502   6.996  0.0215  0.3269  0.0355
  893YOPE   C4A12534   2.775   1.489   7.413 -0.0594 -0.2660  0.1128
  893YOPE   C1B12535   2.230   1.909   6.535  0.0554 -0.2571 -0.0273
  893YOPE   C2B12536   2.311   1.613   6.879 -0.0940 -0.1247 -0.4540
  893YOPE   D3B12537   2.194   1.497   7.327  0.1886 -0.0207 -0.3119
  893YOPE   C4B12538   2.154   1.556   7.815  0.0450  0.1054 -0.2673
  894YOPE   NH312539  15.575   0.840   5.812  0.5861  0.0979  0.0398
  894YOPE   PO412540  15.798   1.246   5.810  0.1503 -0.2328 -0.0702
  894YOPE   GL112541  15.748   1.468   6.143 -0.2548 -0.1915 -0.1813
  894YOPE   GL212542  16.121   1.501   6.192  0.1677  0.1323 -0.1183
  894YOPE   C1A12543  15.651   1.520   6.519 -0.2093 -0.0540  0.2923
  894YOPE   D2A12544  15.736   1.547   6.958 -0.0263 -0.0022 -0.0208
  894YOPE   C3A12545  16.034   1.691   7.238  0.0264 -0.1692 -0.1996
  894YOPE   C4A12546  15.989   1.797   7.626  0.0285  0.4556  0.0602
  894YOPE   C1B12547  16.162   1.417   6.692 -0.1490 -0.2549  0.2535
  894YOPE   C2B12548  16.412   1.540   7.007  0.0179  0.0523 -0.1208
  894YOPE   D3B12549  16.800   1.350   6.981 -0.2190  0.1951 -0.2568
  894YOPE   C4B12550  17.193   1.142   7.240  0.0098 -0.2646  0.1940
  895YOPE   NH312551  11.598  16.649   5.741  0.0670  0.3278 -0.1671
  895YOPE   PO412552  11.388  16.324   5.800 -0.0251  0.3049  0.3080
  895YOPE   GL112553  11.316  16.478   6.172 -0.0970 -0.1705 -0.3780
  895YOPE   GL212554  11.372  16.276   6.389 -0.0499  0.3943 -0.0747
  895YOPE   C1A12555  10.990  16.526   6.573 -0.1788  0.0666  0.1203
  895YOPE   D2A12556  10.914  16.607   6.942  0.5438  0.1098  0.0719
  895YOPE   C3A12557  10.690  16.548   7.287  0.1770 -0.1422  0.1093
  895YOPE   C4A12558  10.492  16.651   7.672 -0.2132  0.1866  0.0604
  895YOPE   C1B12559  11.492  16.497   6.654  0.1626  0.0680  0.1654
  895YOPE   C2B12560  11.418  16.469   7.082  0.2993 -0.2161  0.2218
  895YOPE   D3B12561  11.261  16.644   7.471 -0.0513  0.0967  0.1162
  895YOPE   C4B12562  10.951  16.410   7.678  0.4774  0.2495  0.0312
  896YOPE   NH312563  12.568  17.983   6.025 -0.4853 -0.2300 -0.0455
  896YOPE   PO412564  12.290  18.262   5.784 -0.1511  0.0588 -0.1793
  896YOPE   GL112565  12.222  18.284   6.277  0.0190  0.1408  0.1289
  896YOPE   GL212566  12.555  18.440   6.352  0.0077 -0.2370 -0.1300
  896YOPE   C1A12567  11.960  18.043   6.655 -0.4750 -0.1585  0.4143
  896YOPE   D2A12568  11.981  17.929   7.014 -0.0364  0.2809  0.1060
  896YOPE   C3A12569  12.075  18.085   7.335 -0.2376 -0.1064 -0.0610
  896YOPE   C4A12570  12.001  18.423   7.636 -0.2284 -0.3252  0.0020
  896YOPE   C1B12571  12.357  18.349   6.766  0.2089 -0.0821  0.0071
  896YOPE   C2B12572  12.400  18.450   7.113 -0.0550 -0.0964 -0.0282
  896YOPE   D3B12573  12.413  18.686   7.538 -0.0233 -0.1326  0.1946
  896YOPE   C4B12574  12.518  18.957   7.843  0.0535  0.0042 -0.3319
  897YOPE   NH312575   9.484   9.195   5.641 -0.2475 -0.2058  0.2581
  897YOPE   PO412576   9.604   8.798   5.392 -0.0379  0.1897 -0.1908
  897YOPE   GL112577   9.254   8.756   5.802 -0.0448  0.0415  0.1392
  897YOPE   GL212578   9.432   8.745   6.028  0.1474  0.0349 -0.7574
  897YOPE   C1A12579   9.049   8.497   6.192  0.2051  0.2925  0.2350
  897YOPE   D2A12580   8.890   8.254   6.532  0.1954 -0.4253 -0.0047
  897YOPE   C3A12581   8.969   7.769   6.537  0.0248 -0.0078 -0.3353
  897YOPE   C4A12582   9.176   7.407   6.708  0.2220  0.2337 -0.0952
  897YOPE   C1B12583   9.404   8.676   6.518 -0.1817  0.0382  0.0157
  897YOPE   C2B12584   9.297   8.628   7.044 -0.2516  0.0431 -0.0033
  897YOPE   D3B12585   9.199   8.453   7.363 -0.2342 -0.2197 -0.0581
  897YOPE   C4B12586   9.178   8.361   7.784 -0.2716  0.0456  0.0333
  898YOPE   NH312587  16.708  10.181   5.566  0.1146  0.0641 -0.0839
  898YOPE   PO412588  16.891   9.774   5.551 -0.0510 -0.0161 -0.2458
  898YOPE   GL112589  17.002   9.598   5.973 -0.4229 -0.0897 -0.0002
  898YOPE   GL212590  16.925   9.255   5.828 -0.1286 -0.0049  0.0971
  898YOPE   C1A12591  16.950   9.880   6.377 -0.0211  0.2194  0.2518
  898YOPE   D2A12592  16.805   9.688   6.724 -0.1927  0.2791 -0.0171
  898YOPE   C3A12593  17.028   9.680   6.999 -0.2787  0.0157  0.0425
  898YOPE   C4A12594  17.407   9.608   6.976  0.1741 -0.0898 -0.4064
  898YOPE   C1B12595  17.084   8.923   6.027 -0.2576  0.1668 -0.1835
  898YOPE   C2B12596  17.241   8.841   6.398  0.2749  0.1327  0.2425
  898YOPE   D3B12597  17.637   8.719   6.638  0.5982 -0.2976  0.2022
  898YOPE   C4B12598  17.946   8.660   6.856 -0.0394 -0.0702 -0.1561
  899YOPE   NH312599  13.541  17.857   5.781  0.0954 -0.2169  0.1745
  899YOPE   PO412600  13.615  17.420   5.531 -0.1678 -0.3729 -0.2091
  899YOPE   GL112601  13.696  17.374   5.959  0.0025 -0.1376 -0.0277
  899YOPE   GL212602  13.471  17.451   6.191 -0.0012  0.1283  0.0018
  899YOPE   C1A12603  13.951  17.084   6.120 -0.1173  0.1299 -0.0810
  899YOPE   D2A12604  14.107  16.857   6.470  0.1834  0.2690  0.1464
  899YOPE   C3A12605  13.938  16.915   6.924  0.4505  0.2670 -0.0883
  899YOPE   C4A12606  14.127  17.226   7.171  0.0618  0.4654  0.1748
  899YOPE   C1B12607  13.698  17.407   6.645  0.3155  0.3582 -0.2647
  899YOPE   C2B12608  13.574  17.213   7.008 -0.1507 -0.0057 -0.4151
  899YOPE   D3B12609  13.689  16.962   7.369  0.1681 -0.0674 -0.0972
  899YOPE   C4B12610  13.670  17.189   7.706  0.1009  0.1720 -0.3303
  900YOPE   NH312611   2.139   6.261   5.174 -0.0982 -0.0282  0.1542
  900YOPE   PO412612   1.763   6.578   5.176 -0.0639  0.2565  0.0248
  900YOPE   GL112613   1.782   6.455   5.578 -0.2296 -0.3252  0.3995
  900YOPE   GL212614   1.606   6.150   5.591  0.0948 -0.0771  0.0279
  900YOPE   C1A12615   1.756   6.706   5.997  0.1062  0.0446 -0.0631
  900YOPE   D2A12616   1.847   6.684   6.496 -0.1219 -0.0516 -0.0763
  900YOPE   C3A12617   2.196   6.875   6.759 -0.3140 -0.0980 -0.0250
  900YOPE   C4A12618   2.612   6.792   6.960 -0.1691  0.3892  0.1433
  900YOPE   C1B12619   1.474   6.301   5.986  0.2368 -0.0092 -0.1873
  900YOPE   C2B12620   1.612   6.245   6.495 -0.1176 -0.0402 -0.2244
  900YOPE   D3B12621   1.669   6.046   6.909 -0.2618 -0.0171 -0.0872
  900YOPE   C4B12622   1.692   6.009   7.364  0.0755 -0.0903 -0.3538
  901YOPE   NH312623   6.564  16.555   5.716  0.1069  0.1052 -0.0487
  901YOPE   PO412624   6.878  16.126   5.772 -0.1657  0.0549  0.1444
  901YOPE   GL112625   6.951  16.427   6.058 -0.1733 -0.3837  0.0776
  901YOPE   GL212626   6.809  16.402   6.235 -0.0977  0.0753 -0.3501
  901YOPE   C1A12627   7.299  16.622   6.360 -0.2725  0.1796  0.1062
  901YOPE   D2A12628   7.290  16.797   6.772  0.1897  0.0363  0.2982
  901YOPE   C3A12629   7.539  16.770   7.148  0.1700 -0.2514  0.1104
  901YOPE   C4A12630   7.196  16.777   7.395  0.1416 -0.0798 -0.2238
  901YOPE   C1B12631   6.851  16.668   6.671  0.0489  0.1374 -0.3008
  901YOPE   C2B12632   6.660  16.487   7.019  0.2532  0.2019 -0.2097
  901YOPE   D3B12633   6.859  16.431   7.393 -0.2216  0.1507  0.1648
  901YOPE   C4B12634   7.103  16.365   7.675  0.1005 -0.0071  0.0914
  902YOPE   NH312635   3.345   6.994   5.078  0.1752  0.1762 -0.0637
  902YOPE   PO412636   3.734   6.870   4.999  0.1213 -0.2048 -0.1985
  902YOPE   GL112637   3.713   6.829   5.390 -0.2513 -0.2884  0.0826
  902YOPE   GL212638   3.556   6.638   5.486  0.1415 -0.2866 -0.3713
  902YOPE   C1A12639   3.737   7.006   5.814  0.3655 -0.2173  0.1253
  902YOPE   D2A12640   3.889   7.264   6.092 -0.0856 -0.2074  0.1249
  902YOPE   C3A12641   3.681   7.127   6.448 -0.1401  0.1641 -0.0359
  902YOPE   C4A12642   3.486   6.991   6.793  0.0111  0.2193  0.2532
  902YOPE   C1B12643   3.588   6.372   5.789 -0.1933 -0.0583 -0.1570
  902YOPE   C2B12644   3.237   6.247   6.079  0.0752 -0.0050  0.1067
  902YOPE   D3B12645   3.021   6.273   6.541 -0.0663 -0.0475  0.5363
  902YOPE   C4B12646   2.847   6.312   6.967  0.0491 -0.2988 -0.2889
  903YOPE   NH312647  10.569  17.341   5.778 -0.1466 -0.1597 -0.1755
  903YOPE   PO412648  10.209  17.388   6.032  0.0967  0.1550  0.2213
  903YOPE   GL112649  10.619  17.552   6.260  0.0692  0.0511  0.0336
  903YOPE   GL212650  10.585  17.306   6.488 -0.2257  0.3496 -0.2525
  903YOPE   C1A12651  10.947  17.710   6.529  0.2141  0.1158 -0.0327
  903YOPE   D2A12652  10.954  17.879   6.873 -0.0781 -0.3204 -0.1267
  903YOPE   C3A12653  11.094  17.810   7.270  0.0169  0.3605  0.0753
  903YOPE   C4A12654  11.151  17.707   7.708  0.1048 -0.3033  0.0464
  903YOPE   C1B12655  10.668  17.397   6.912 -0.2720  0.0951  0.0579
  903YOPE   C2B12656  10.642  17.505   7.173  0.2628  0.1810 -0.0898
  903YOPE   D3B12657  10.561  17.741   7.551  0.0878 -0.0827 -0.0654
  903YOPE   C4B12658  10.265  17.841   7.869  0.0866  0.2110 -0.0039
  904YOPE   NH312659   9.651  15.007   5.844  0.1074  0.1364  0.0247
  904YOPE   PO412660   9.447  15.385   5.837 -0.0132  0.0406  0.2565
  904YOPE   GL112661   9.454  15.679   6.193 -0.3464 -0.1810  0.0425
  904YOPE   GL212662   9.337  16.038   6.184  0.2969  0.0694  0.0801
  904YOPE   C1A12663   9.137  15.665   6.499  0.1197 -0.2029  0.0155
  904YOPE   D2A12664   8.887  15.622   6.889 -0.0812  0.3068  0.1501
  904YOPE   C3A12665   8.869  15.218   6.952  0.1776 -0.2787 -0.1395
  904YOPE   C4A12666   9.045  15.034   7.230  0.1630  0.0314 -0.0877
  904YOPE   C1B12667   9.130  16.288   6.426 -0.2835 -0.3307  0.3021
  904YOPE   C2B12668   9.233  16.462   6.794  0.0920 -0.0520 -0.0064
  904YOPE   D3B12669   9.237  16.710   7.155  0.0392  0.0536 -0.1651
  904YOPE   C4B12670   9.208  16.806   7.429  0.3277  0.2023 -0.1886
  905YOPE   NH312671  18.472   8.314   5.273  0.0086 -0.2304  0.1665
  905YOPE   PO412672  18.761   8.054   5.093 -0.2788  0.1038  0.0422
  905YOPE   GL112673  18.871   8.003   5.539 -0.1150 -0.1566  0.1722
  905YOPE   GL212674  19.184   7.969   5.593 -0.1226  0.2925 -0.1753
  905YOPE   C1A12675  18.816   8.135   5.938 -0.0833 -0.1950  0.1064
  905YOPE   D2A12676  18.794   8.455   6.277  0.2735  0.1405  0.2418
  905YOPE   C3A12677  18.751   8.202   6.710  0.1522 -0.1065  0.2758
  905YOPE   C4A12678  18.545   7.934   7.134  0.0674 -0.1718  0.0753
  905YOPE   C1B12679  19.088   7.712   5.947 -0.1532  0.0548  0.2379
  905YOPE   C2B12680  19.014   7.889   6.345 -0.1381 -0.0229 -0.5761
  905YOPE   D3B12681  19.202   7.818   6.724 -0.0389 -0.1967  0.0651
  905YOPE   C4B12682  19.064   8.026   7.036 -0.0128  0.0901 -0.1145
  906YOPE   NH312683  10.962   8.038   5.726 -0.2787  0.1760 -0.0451
  906YOPE   PO412684  10.487   7.997   5.683  0.0724 -0.4003  0.0120
  906YOPE   GL112685  10.487   7.765   6.060  0.2402 -0.2766  0.1992
  906YOPE   GL212686  10.777   7.879   6.147 -0.1899  0.0215 -0.1755
  906YOPE   C1A12687  10.583   7.518   6.457  0.2558 -0.1175  0.3394
  906YOPE   D2A12688  10.575   7.541   6.983  0.1206 -0.3377  0.1282
  906YOPE   C3A12689  10.304   7.302   7.239 -0.0747  0.0931  0.2575
  906YOPE   C4A12690   9.946   7.173   7.278 -0.0917 -0.0645  0.4249
  906YOPE   C1B12691  10.687   7.969   6.630  0.2814 -0.4708 -0.1233
  906YOPE   C2B12692  10.581   8.112   7.065  0.0150  0.1753  0.2388
  906YOPE   D3B12693  10.417   7.935   7.486 -0.0106 -0.1559  0.4286
  906YOPE   C4B12694  10.554   7.701   7.887  0.1063 -0.1590 -0.2774
  907YOPE   NH312695   6.964  18.291   6.170 -0.0631 -0.0921 -0.0552
  907YOPE   PO412696   7.493  18.332   6.187  0.1530  0.0158 -0.0671
  907YOPE   GL112697   7.171  18.569   6.509 -0.1140 -0.1546  0.0475
  907YOPE   GL212698   7.208  18.888   6.494 -0.1186 -0.1897 -0.1814
  907YOPE   C1A12699   6.969  18.669   6.913  0.0490  0.1900  0.1775
  907YOPE   D2A12700   6.794  18.395   7.175 -0.2944 -0.1385 -0.1107
  907YOPE   C3A12701   6.848  18.433   7.612  0.2138 -0.2136  0.2033
  907YOPE   C4A12702   7.031  18.776   7.799 -0.0368 -0.1567  0.0988
  907YOPE   C1B12703   7.239  19.122   6.910  0.0093  0.0174  0.0339
  907YOPE   C2B12704   7.042  19.457   7.329 -0.3741  0.1612  0.0979
  907YOPE   D3B12705   6.997  19.759   7.677  0.0445 -0.1319  0.2134
  907YOPE   C4B12706   6.816  20.006   8.070 -0.2086  0.0525 -0.2345
  908YOPE   NH312707  11.773   7.646   5.806  0.0346 -0.3965 -0.1818
  908YOPE   PO412708  11.738   7.143   5.839  0.0589  0.1858 -0.1607
  908YOPE   GL112709  11.866   7.098   6.198  0.0695 -0.1293 -0.4181
  908YOPE   GL212710  11.742   6.791   6.215  0.0724 -0.3899 -0.0912
  908YOPE   C1A12711  11.840   7.112   6.608 -0.0983 -0.0029 -0.1789
  908YOPE   D2A12712  11.801   6.971   7.096  0.0775  0.1539 -0.0508
  908YOPE   C3A12713  11.696   7.229   7.392 -0.3937  0.1048  0.2139
  908YOPE   C4A12714  11.825   7.608   7.344 -0.2675 -0.0376 -0.3063
  908YOPE   C1B12715  11.306   6.596   6.319 -0.2207  0.3134 -0.0303
  908YOPE   C2B12716  11.164   6.415   6.673  0.1075  0.2519 -0.0198
  908YOPE   D3B12717  11.155   6.127   7.020  0.0590 -0.2137 -0.0533
  908YOPE   C4B12718  11.380   6.008   7.328 -0.0219 -0.0610  0.1657
  909YOPE   NH312719  10.054   1.977   5.984 -0.0163 -0.0598  0.0963
  909YOPE   PO412720   9.683   1.691   5.858  0.0409  0.3067 -0.1271
  909YOPE   GL112721   9.759   1.718   6.325  0.0035  0.0770  0.1544
  909YOPE   GL212722   9.590   1.560   6.582  0.1503  0.0171  0.1615
  909YOPE   C1A12723   9.982   1.823   6.700  0.0624  0.2000 -0.2166
  909YOPE   D2A12724  10.038   2.035   7.141  0.1084 -0.1739 -0.1279
  909YOPE   C3A12725   9.996   2.447   7.289 -0.1676 -0.2495 -0.2329
  909YOPE   C4A12726  10.087   2.639   7.740  0.2736  0.1872 -0.2895
  909YOPE   C1B12727   9.197   1.638   6.717 -0.1248 -0.2185  0.3764
  909YOPE   C2B12728   9.180   1.740   7.108 -0.0701  0.0371  0.1078
  909YOPE   D3B12729   9.146   1.679   7.493 -0.0732 -0.1407 -0.2661
  909YOPE   C4B12730   9.283   1.424   7.982  0.2647  0.0134  0.2917
  910YOPE   NH312731   0.871   4.661   4.637  0.0406  0.0343 -0.0695
  910YOPE   PO412732   1.168   4.525   5.027  0.3276 -0.0662 -0.2718
  910YOPE   GL112733   1.182   4.608   5.475 -0.0906  0.0951 -0.0346
  910YOPE   GL212734   1.421   4.381   5.622 -0.2462  0.2373 -0.2417
  910YOPE   C1A12735   1.090   4.872   5.985 -0.0539  0.0440 -0.1181
  910YOPE   D2A12736   1.399   5.177   6.135 -0.0567  0.0482 -0.0880
  910YOPE   C3A12737   1.533   5.274   6.604  0.3344 -0.1437 -0.1537
  910YOPE   C4A12738   1.522   5.024   7.038 -0.2548 -0.2080  0.0924
  910YOPE   C1B12739   1.055   4.397   5.996 -0.0822  0.0709  0.4021
  910YOPE   C2B12740   1.011   4.435   6.376 -0.0641 -0.1880  0.1615
  910YOPE   D3B12741   1.035   4.292   6.790 -0.1203 -0.0234 -0.1822
  910YOPE   C4B12742   1.313   4.012   7.012  0.0420  0.2353 -0.5356
  911YOPE   NH312743  12.230  17.372   5.916  0.1398  0.0581  0.2365
  911YOPE   PO412744  12.661  17.495   5.855 -0.3041  0.0114 -0.2522
  911YOPE   GL112745  12.706  17.520   6.274  0.0589 -0.1786  0.2735
  911YOPE   GL212746  13.014  17.556   6.384 -0.1276 -0.0941 -0.0307
  911YOPE   C1A12747  12.673  17.356   6.662 -0.2668  0.3112 -0.0235
  911YOPE   D2A12748  12.640  17.193   6.969  0.0953 -0.0685 -0.0783
  911YOPE   C3A12749  12.317  17.196   7.217 -0.2942  0.0603 -0.0174
  911YOPE   C4A12750  11.970  17.118   7.407 -0.3756 -0.2118 -0.1193
  911YOPE   C1B12751  13.219  17.684   6.712 -0.2200  0.1044  0.0254
  911YOPE   C2B12752  13.157  17.912   7.060  0.1405  0.2761  0.2116
  911YOPE   D3B12753  13.139  17.929   7.626  0.6296 -0.0661  0.2588
  911YOPE   C4B12754  13.173  17.813   8.026 -0.0537  0.0222  0.0517
  912YOPE   NH312755   7.784   5.519   5.634  0.0568 -0.5315 -0.1501
  912YOPE   PO412756   8.260   5.346   5.632 -0.0919 -0.0733 -0.0316
  912YOPE   GL112757   8.033   5.267   6.022  0.0122  0.0388  0.0910
  912YOPE   GL212758   7.771   5.390   6.136  0.0755 -0.0831 -0.3679
  912YOPE   C1A12759   8.153   5.269   6.536  0.0826  0.0640 -0.1163
  912YOPE   D2A12760   8.003   5.471   6.886  0.1667  0.0944  0.1107
  912YOPE   C3A12761   8.102   5.222   7.264  0.0653 -0.5916 -0.1465
  912YOPE   C4A12762   8.220   4.990   7.459  0.0675  0.1447  0.3692
  912YOPE   C1B12763   7.686   5.645   6.503  0.1234 -0.3759  0.2564
  912YOPE   C2B12764   7.558   5.706   6.862  0.0196 -0.0493 -0.1807
  912YOPE   D3B12765   7.754   5.601   7.274  0.2531  0.1359 -0.2581
  912YOPE   C4B12766   7.635   5.506   7.577 -0.1990  0.3389  0.0036
  913YOPE   NH312767   6.180  18.351   5.641  0.1375  0.1997 -0.3337
  913YOPE   PO412768   5.764  18.234   5.711  0.0769  0.0737  0.2049
  913YOPE   GL112769   5.903  18.300   6.110  0.0312  0.0275  0.1415
  913YOPE   GL212770   5.992  18.570   6.134 -0.0036  0.1798 -0.4811
  913YOPE   C1A12771   6.061  18.046   6.353  0.1482 -0.0499 -0.2099
  913YOPE   D2A12772   6.329  17.703   6.594  0.0539 -0.2286  0.0305
  913YOPE   C3A12773   6.189  17.723   7.105  0.1562 -0.4829 -0.2532
  913YOPE   C4A12774   6.034  17.631   7.488 -0.0357  0.2976 -0.0554
  913YOPE   C1B12775   6.258  18.698   6.503 -0.2196  0.1818 -0.0184
  913YOPE   C2B12776   6.493  18.863   6.892  0.0227  0.0812  0.0891
  913YOPE   D3B12777   6.307  19.208   7.139  0.0625 -0.1011  0.0961
  913YOPE   C4B12778   6.140  19.483   7.450 -0.1363 -0.1396 -0.2577
  914YOPE   NH312779   6.640  10.950   5.662  0.0910  0.0690  0.2480
  914YOPE   PO412780   6.611  11.251   6.040  0.1979  0.2211  0.2537
  914YOPE   GL112781   6.588  11.428   6.479 -0.0881 -0.3337  0.0185
  914YOPE   GL212782   6.921  11.510   6.407  0.0768  0.1522  0.4193
  914YOPE   C1A12783   6.549  11.519   6.899 -0.0172  0.0577 -0.1329
  914YOPE   D2A12784   6.318  11.806   7.222 -0.0522  0.3402 -0.2203
  914YOPE   C3A12785   5.883  11.824   7.377  0.1231 -0.1928  0.3580
  914YOPE   C4A12786   5.428  11.681   7.517 -0.1375  0.1064 -0.0074
  914YOPE   C1B12787   6.996  11.301   6.832  0.0692  0.3420 -0.4435
  914YOPE   C2B12788   7.274  11.372   7.082  0.1566 -0.1419 -0.0101
  914YOPE   D3B12789   7.314  11.249   7.430  0.2378 -0.1043  0.1274
  914YOPE   C4B12790   7.169  10.951   7.662  0.1702  0.0264 -0.3009
  915YOPE   NH312791  11.782   1.659   5.750 -0.0899 -0.1650 -0.1470
  915YOPE   PO412792  11.804   1.338   6.068 -0.2127 -0.4209 -0.0844
  915YOPE   GL112793  11.599   1.135   6.375  0.2191  0.1852 -0.0629
  915YOPE   GL212794  11.359   1.291   6.464  0.0890  0.0160 -0.1308
  915YOPE   C1A12795  11.373   0.741   6.306  0.0604  0.3956  0.1345
  915YOPE   D2A12796  10.963   0.700   6.484  0.0675  0.0898  0.2059
  915YOPE   C3A12797  10.944   0.377   6.763 -0.2175 -0.2313 -0.1441
  915YOPE   C4A12798  11.187   0.199   7.142  0.5493  0.0053  0.0867
  915YOPE   C1B12799  11.269   1.434   6.840 -0.0961 -0.2562  0.0533
  915YOPE   C2B12800  11.384   1.399   7.139 -0.1161 -0.1134  0.0775
  915YOPE   D3B12801  11.571   1.078   7.216  0.0200  0.0702  0.0864
  915YOPE   C4B12802  11.566   0.720   7.498 -0.2488  0.1303 -0.1105
  916YOPE   NH312803  12.553   0.005   5.937 -0.3608 -0.0304  0.2047
  916YOPE   PO412804  12.961   0.174   5.981 -0.1042  0.0130 -0.0676
  916YOPE   GL112805  12.915   0.230   6.401  0.0997 -0.0518  0.1791
  916YOPE   GL212806  12.629   0.264   6.346  0.4661  0.0649 -0.1202
  916YOPE   C1A12807  13.151   0.189   6.763  0.2298 -0.2244  0.1497
  916YOPE   D2A12808  13.293   0.375   7.097  0.0634  0.0217 -0.0465
  916YOPE   C3A12809  13.446   0.262   7.465 -0.2260  0.0485 -0.2324
  916YOPE   C4A12810  13.733   0.104   7.748  0.2394  0.0648  0.1491
  916YOPE   C1B12811  12.584   0.130   6.795  0.3504 -0.0549  0.1819
  916YOPE   C2B12812  12.834   0.024   7.170 -0.0448 -0.2606  0.0594
  916YOPE   D3B12813  12.955   0.195   7.555  0.3227  0.1525 -0.0677
  916YOPE   C4B12814  13.172   0.596   7.719  0.4480 -0.0621 -0.0766
  917YOPE   NH312815   9.277  13.647   5.583  0.0905  0.4261  0.2140
  917YOPE   PO412816   9.599  14.000   5.636 -0.1377 -0.0589 -0.0508
  917YOPE   GL112817   9.627  13.763   6.039 -0.1679 -0.1030 -0.1310
  917YOPE   GL212818   9.502  13.474   6.000 -0.1171 -0.3160 -0.2338
  917YOPE   C1A12819   9.679  13.731   6.455  0.0281  0.0052  0.0633
  917YOPE   D2A12820   9.965  13.553   6.602 -0.0445 -0.2593 -0.3557
  917YOPE   C3A12821  10.120  13.554   7.069 -0.1719  0.4862  0.0897
  917YOPE   C4A12822  10.196  13.532   7.461 -0.0108 -0.0492  0.1522
  917YOPE   C1B12823   9.489  13.201   6.409 -0.0876 -0.5448 -0.1931
  917YOPE   C2B12824   9.611  13.298   6.839  0.1169 -0.0321 -0.1379
  917YOPE   D3B12825   9.606  13.462   7.288  0.2846 -0.1559  0.2544
  917YOPE   C4B12826   9.595  13.558   7.758  0.2007 -0.1589  0.0453
  918YOPE   NH312827   7.392  13.482   5.406 -0.1777  0.0683  0.0065
  918YOPE   PO412828   7.236  13.316   5.774  0.1247 -0.0609 -0.0529
  918YOPE   GL112829   7.098  13.532   6.138 -0.1696  0.2999  0.2784
  918YOPE   GL212830   7.329  13.500   6.287  0.1292  0.0102  0.2374
  918YOPE   C1A12831   6.786  13.566   6.335 -0.1029 -0.0072 -0.0741
  918YOPE   D2A12832   6.397  13.467   6.497  0.1027  0.2899  0.2757
  918YOPE   C3A12833   6.144  13.645   6.790  0.0116  0.0803 -0.1588
  918YOPE   C4A12834   5.725  14.007   6.896  0.0695  0.1876  0.1297
  918YOPE   C1B12835   7.093  13.414   6.712  0.0140  0.4573 -0.0878
  918YOPE   C2B12836   6.855  13.367   7.065 -0.0898  0.0353  0.0004
  918YOPE   D3B12837   6.776  13.437   7.446 -0.0289  0.0391 -0.1212
  918YOPE   C4B12838   6.980  13.691   7.760  0.2502 -0.3012  0.1902
  919YOPE   NH312839  13.528   6.139   5.629 -0.5264  0.3918  0.0492
  919YOPE   PO412840  13.930   6.028   5.467 -0.4143  0.3265  0.1817
  919YOPE   GL112841  13.914   5.967   5.911 -0.1821  0.1436  0.0212
  919YOPE   GL212842  14.247   6.172   6.058 -0.3485  0.0131  0.0228
  919YOPE   C1A12843  14.031   5.818   6.353 -0.0927  0.3817 -0.3024
  919YOPE   D2A12844  13.913   6.004   6.725 -0.0334  0.3511 -0.1254
  919YOPE   C3A12845  13.768   5.783   7.130 -0.0856  0.1767  0.3739
  919YOPE   C4A12846  13.668   5.399   7.255  0.1527  0.2811 -0.0097
  919YOPE   C1B12847  14.074   6.392   6.315 -0.1110 -0.1359  0.0387
  919YOPE   C2B12848  14.162   6.498   6.848  0.1182  0.2505  0.3237
  919YOPE   D3B12849  14.035   6.758   7.171 -0.2784  0.1036  0.1098
  919YOPE   C4B12850  14.058   6.746   7.563 -0.0029 -0.1896 -0.5415
  920YOPE   NH312851  18.583  11.202   5.680  0.0437 -0.0945  0.4232
  920YOPE   PO412852  18.485  10.771   5.605 -0.2835 -0.0856  0.2279
  920YOPE   GL112853  18.101  10.917   5.866  0.1347 -0.2759 -0.1681
  920YOPE   GL212854  18.383  10.920   6.085 -0.0470  0.2002 -0.0382
  920YOPE   C1A12855  17.892  10.829   6.208  0.2766 -0.0741  0.1427
  920YOPE   D2A12856  17.895  10.834   6.732 -0.0007  0.0232  0.1688
  920YOPE   C3A12857  17.571  10.730   6.958  0.3101 -0.0926 -0.1501
  920YOPE   C4A12858  17.550  10.364   7.183  0.0775 -0.0187  0.2688
  920YOPE   C1B12859  18.380  10.511   6.172 -0.0776 -0.0714 -0.1508
  920YOPE   C2B12860  18.097  10.402   6.527  0.0993 -0.2521  0.1735
  920YOPE   D3B12861  17.901  10.268   6.822 -0.0056  0.1528 -0.0104
  920YOPE   C4B12862  17.837   9.869   7.059 -0.3274 -0.0591 -0.0897
  921YOPE   NH312863  18.128   3.728   4.882 -0.0533  0.0404  0.1060
  921YOPE   PO412864  17.892   4.233   4.945  0.0739  0.0489 -0.0473
  921YOPE   GL112865  17.776   4.134   5.449 -0.0724  0.2733  0.0093
  921YOPE   GL212866  17.944   3.813   5.529  0.0933  0.1115  0.2427
  921YOPE   C1A12867  18.036   4.409   5.836 -0.0820 -0.2143  0.1262
  921YOPE   D2A12868  18.168   4.545   6.293  0.0488 -0.1627 -0.1448
  921YOPE   C3A12869  18.247   4.192   6.510 -0.0023  0.0260 -0.1146
  921YOPE   C4A12870  18.308   4.251   7.006 -0.1259 -0.2011  0.0892
  921YOPE   C1B12871  17.800   3.617   5.917 -0.1804  0.3498 -0.1587
  921YOPE   C2B12872  17.698   3.503   6.283 -0.0258 -0.3278 -0.0226
  921YOPE   D3B12873  17.872   3.578   6.567 -0.0053  0.0554  0.0236
  921YOPE   C4B12874  17.969   3.903   6.848  0.0897 -0.1949 -0.0980
  922YOPE   NH312875   3.943   2.693   5.698  0.1296  0.4021  0.3588
  922YOPE   PO412876   3.886   2.201   5.692  0.2481 -0.1342 -0.0639
  922YOPE   GL112877   3.799   2.232   6.203  0.1634  0.0471  0.2100
  922YOPE   GL212878   4.042   2.565   6.173  0.1251 -0.1304 -0.0156
  922YOPE   C1A12879   3.820   1.892   6.619  0.2285  0.2346 -0.0935
  922YOPE   D2A12880   3.627   1.759   7.053  0.2219  0.3007  0.0090
  922YOPE   C3A12881   3.295   1.522   6.854 -0.0106 -0.2888 -0.3501
  922YOPE   C4A12882   3.069   1.199   6.552  0.0013 -0.0656 -0.1678
  922YOPE   C1B12883   3.940   2.801   6.626  0.0812 -0.1501  0.0130
  922YOPE   C2B12884   3.876   2.930   6.898 -0.0129  0.1034 -0.1627
  922YOPE   D3B12885   3.828   3.163   7.228 -0.0282  0.3192  0.1899
  922YOPE   C4B12886   3.884   3.260   7.600 -0.2047 -0.0725  0.0052
  923YOPE   NH312887  10.106   9.749   5.573  0.0127  0.0420 -0.0626
  923YOPE   PO412888   9.750   9.566   5.833  0.3669  0.0070  0.0755
  923YOPE   GL112889   9.867   9.589   6.209  0.0959 -0.0065 -0.1402
  923YOPE   GL212890   9.895   9.915   6.299  0.3679  0.0011 -0.0128
  923YOPE   C1A12891   9.894   9.603   6.710  0.0649 -0.1246  0.2115
  923YOPE   D2A12892   9.862   9.646   7.130 -0.0997 -0.0108  0.2110
  923YOPE   C3A12893   9.925   9.658   7.601  0.2816  0.0473 -0.1772
  923YOPE   C4A12894  10.205   9.710   7.974 -0.2979  0.2769  0.0936
  923YOPE   C1B12895  10.310   9.880   6.592 -0.1148 -0.0854  0.2934
  923YOPE   C2B12896  10.316   9.863   7.053 -0.1848 -0.0098 -0.2677
  923YOPE   D3B12897  10.208  10.125   7.394 -0.2666 -0.1665  0.1807
  923YOPE   C4B12898  10.370  10.291   7.653  0.1561  0.0574 -0.3673
  924YOPE   NH312899   0.552   1.311   5.616  0.1807  0.0055  0.1756
  924YOPE   PO412900   0.082   1.378   5.508 -0.2918 -0.1645  0.4444
  924YOPE   GL112901   0.050   1.359   5.943 -0.1138  0.1986 -0.0080
  924YOPE   GL212902   0.146   1.440   6.111  0.1273 -0.1995  0.1825
  924YOPE   C1A12903  -0.110   1.240   6.444 -0.1464  0.0120  0.0510
  924YOPE   D2A12904  -0.264   1.046   6.807 -0.4099 -0.0305 -0.0831
  924YOPE   C3A12905  -0.290   0.748   7.118  0.3029  0.2183  0.0612
  924YOPE   C4A12906  -0.048   0.546   7.503 -0.1391  0.0583  0.2671
  924YOPE   C1B12907   0.256   1.596   6.500 -0.1951 -0.0558 -0.2860
  924YOPE   C2B12908   0.033   1.447   6.881 -0.1098 -0.2392  0.2230
  924YOPE   D3B12909   0.036   1.111   7.214  0.1296  0.2041  0.2654
  924YOPE   C4B12910  -0.114   1.018   7.712  0.5637  0.0951 -0.1356
  925YOPE   NH312911  12.607   7.645   5.643 -0.0314 -0.1944 -0.0840
  925YOPE   PO412912  12.648   8.169   5.578  0.0697  0.0562  0.1590
  925YOPE   GL112913  12.449   8.308   6.040  0.2097  0.0002  0.0096
  925YOPE   GL212914  12.663   8.504   6.200 -0.0616  0.2902  0.0678
  925YOPE   C1A12915  12.239   8.644   6.249  0.0743  0.2657 -0.1677
  925YOPE   D2A12916  11.885   8.858   6.218 -0.0985  0.1756 -0.2507
  925YOPE   C3A12917  11.829   9.300   6.460 -0.3642  0.1960  0.0994
  925YOPE   C4A12918  12.158   9.641   6.628  0.0019  0.0158  0.2907
  925YOPE   C1B12919  12.633   8.795   6.543  0.0796  0.3962  0.2138
  925YOPE   C2B12920  12.742   8.823   6.976  0.1681 -0.0779 -0.2208
  925YOPE   D3B12921  12.709   8.722   7.463  0.1639  0.3316  0.2303
  925YOPE   C4B12922  12.468   8.335   7.690  0.0343  0.3187 -0.1102
  926YOPE   NH312923  14.391   0.400   5.782 -0.1444  0.1035  0.0351
  926YOPE   PO412924  14.692   0.073   5.969  0.1030 -0.3060 -0.1745
  926YOPE   GL112925  14.573   0.357   6.268 -0.2287 -0.0440 -0.4462
  926YOPE   GL212926  14.735   0.650   6.176 -0.0358  0.0528 -0.1763
  926YOPE   C1A12927  14.656   0.499   6.667  0.1027  0.1310 -0.2292
  926YOPE   D2A12928  14.705   0.499   7.037 -0.0437 -0.2699  0.1275
  926YOPE   C3A12929  14.830   0.763   7.415 -0.3748  0.2329 -0.0948
  926YOPE   C4A12930  14.831   0.978   7.791 -0.0145  0.1766 -0.1029
  926YOPE   C1B12931  15.132   0.728   6.434  0.1528  0.1178  0.0617
  926YOPE   C2B12932  15.144   0.662   6.857  0.2448 -0.2534  0.0012
  926YOPE   D3B12933  15.238   1.001   7.217 -0.0262 -0.0360  0.0118
  926YOPE   C4B12934  15.272   1.107   7.583 -0.0136 -0.0037 -0.0599
  927YOPE   NH312935   4.154  15.729   5.573  0.3007 -0.1330 -0.0581
  927YOPE   PO412936   3.966  16.096   5.584 -0.1687  0.6583  0.3095
  927YOPE   GL112937   3.717  15.911   6.035 -0.1681 -0.2094 -0.0156
  927YOPE   GL212938   3.483  16.143   6.315 -0.1017 -0.0886  0.2661
  927YOPE   C1A12939   3.888  15.737   6.439 -0.0270  0.2555  0.0596
  927YOPE   D2A12940   4.023  15.703   6.856 -0.0345  0.1347  0.1218
  927YOPE   C3A12941   3.756  15.635   7.195  0.1063 -0.0268 -0.1131
  927YOPE   C4A12942   3.550  15.299   7.332  0.0966 -0.1540 -0.1248
  927YOPE   C1B12943   3.652  16.092   6.698  0.0472  0.0253 -0.0260
  927YOPE   C2B12944   3.710  16.155   7.183  0.2339 -0.0497  0.0363
  927YOPE   D3B12945   3.716  16.083   7.636 -0.2747  0.0616  0.1396
  927YOPE   C4B12946   3.924  16.139   8.045  0.3259 -0.0523  0.0938
  928YOPE   NH312947  17.242   7.075   5.191  0.2675 -0.2299 -0.0971
  928YOPE   PO412948  17.614   6.789   5.249  0.0350 -0.0832  0.1768
  928YOPE   GL112949  17.761   6.654   5.631  0.1145 -0.0417 -0.0395
  928YOPE   GL212950  17.838   6.495   5.857 -0.0263  0.0654  0.2179
  928YOPE   C1A12951  17.867   6.939   5.975 -0.1350 -0.4404  0.0836
  928YOPE   D2A12952  17.633   7.187   6.106 -0.1393 -0.3485  0.0469
  928YOPE   C3A12953  17.588   7.191   6.595 -0.3714  0.0151  0.2946
  928YOPE   C4A12954  17.262   7.387   6.886  0.0846 -0.0113  0.0305
  928YOPE   C1B12955  18.010   6.382   6.301 -0.2718 -0.0481 -0.2946
  928YOPE   C2B12956  18.313   6.454   6.659 -0.2078  0.0686  0.2170
  928YOPE   D3B12957  18.587   6.602   6.935  0.2501  0.1770  0.3507
  928YOPE   C4B12958  18.747   6.413   7.331 -0.1536  0.0273 -0.0862
  929YOPE   NH312959  13.090   4.806   6.004  0.2672 -0.1439  0.2981
  929YOPE   PO412960  13.393   4.761   6.056  0.2173  0.1079  0.2815
  929YOPE   GL112961  13.582   4.885   6.432 -0.1379  0.3173  0.0553
  929YOPE   GL212962  13.832   5.023   6.334  0.1041 -0.1607  0.0821
  929YOPE   C1A12963  13.669   4.720   6.847 -0.2014 -0.0857 -0.2555
  929YOPE   D2A12964  13.638   4.874   7.330 -0.1567  0.0457  0.1098
  929YOPE   C3A12965  13.411   4.939   7.714 -0.2069  0.0660 -0.1945
  929YOPE   C4A12966  13.077   4.733   7.865  0.3343 -0.0198  0.0298
  929YOPE   C1B12967  13.867   5.225   6.670  0.0666  0.2481 -0.2650
  929YOPE   C2B12968  14.114   5.324   6.989  0.0917  0.3838  0.2957
  929YOPE   D3B12969  14.271   5.500   7.371 -0.2912  0.1150  0.1047
  929YOPE   C4B12970  14.421   5.814   7.591  0.0798 -0.0711 -0.1017
  930YOPE   NH312971  11.395   3.717   6.195 -0.1080 -0.1310 -0.0198
  930YOPE   PO412972  11.057   4.118   6.164  0.0089  0.1235  0.0024
  930YOPE   GL112973  11.019   4.019   6.614 -0.1543  0.2687 -0.2658
  930YOPE   GL212974  11.284   3.814   6.685  0.0718  0.0979  0.1898
  930YOPE   C1A12975  11.049   4.128   7.018 -0.0455  0.0506  0.0339
  930YOPE   D2A12976  10.847   4.011   7.377 -0.1497  0.2361  0.0894
  930YOPE   C3A12977  10.881   3.835   7.802  0.2466  0.0900 -0.3629
  930YOPE   C4A12978  10.921   3.569   8.174  0.1393  0.0366 -0.0569
  930YOPE   C1B12979  11.414   3.740   7.068  0.3056  0.2422  0.1273
  930YOPE   C2B12980  11.494   3.926   7.428 -0.0273  0.2390 -0.3517
  930YOPE   D3B12981  11.368   4.277   7.793  0.0504  0.2306  0.0441
  930YOPE   C4B12982  11.037   4.220   8.121 -0.1866  0.4424  0.0070
  931YOPE   NH312983  10.170   0.433   6.016  0.2108  0.1952 -0.4075
  931YOPE   PO412984  10.646   0.397   5.749  0.1816  0.0023 -0.0916
  931YOPE   GL112985  10.454   0.099   6.181  0.0706 -0.0714  0.0377
  931YOPE   GL212986  10.632   0.358   6.380 -0.0741 -0.3620  0.5713
  931YOPE   C1A12987  10.382  -0.184   6.533  0.0584  0.0435  0.1653
  931YOPE   D2A12988  10.454   0.044   6.911  0.0251 -0.0252  0.1427
  931YOPE   C3A12989  10.749  -0.003   7.237 -0.3602 -0.0579 -0.0600
  931YOPE   C4A12990  10.965  -0.001   7.590 -0.0671 -0.0478 -0.1091
  931YOPE   C1B12991  10.830  -0.034   6.545 -0.1685 -0.0037 -0.0181
  931YOPE   C2B12992  11.037  -0.172   6.825  0.0204 -0.0552 -0.0141
  931YOPE   D3B12993  11.092  -0.359   7.182 -0.0761 -0.0492 -0.1135
  931YOPE   C4B12994  11.007  -0.463   7.507 -0.3964  0.1738  0.1760
  932YOPE   NH312995  16.132   5.438   5.295  0.0672  0.0157  0.1339
  932YOPE   PO412996  16.307   5.869   5.159  0.0187  0.0352  0.4500
  932YOPE   GL112997  16.402   5.782   5.560 -0.1103  0.1009 -0.0011
  932YOPE   GL212998  16.187   5.723   5.744  0.1387  0.0371  0.0948
  932YOPE   C1A12999  16.648   5.746   5.970  0.1937 -0.0928  0.1225
  932YOPE   D2A13000  17.006   5.886   6.083 -0.0840  0.0172  0.0123
  932YOPE   C3A13001  17.052   5.951   6.473 -0.2789  0.0025  0.0246
  932YOPE   C4A13002  17.007   5.916   6.905 -0.0983  0.0609  0.3391
  932YOPE   C1B13003  16.060   5.887   6.053 -0.2034 -0.0283  0.0197
  932YOPE   C2B13004  15.756   5.834   6.414  0.0879 -0.0150  0.1386
  932YOPE   D3B13005  15.747   5.848   6.807  0.0202 -0.1484 -0.3921
  932YOPE   C4B13006  15.848   6.158   7.153  0.0336 -0.1365 -0.0126
  933YOPE   NH313007   2.127   1.439   5.530 -0.0795  0.3566 -0.2375
  933YOPE   PO413008   1.758   1.494   5.429  0.2418 -0.0672 -0.0319
  933YOPE   GL113009   1.498   1.314   5.779  0.4046  0.2458 -0.1445
  933YOPE   GL213010   1.435   1.576   5.900  0.0263 -0.1808  0.2720
  933YOPE   C1A13011   1.370   1.080   6.129  0.1089  0.1119 -0.0124
  933YOPE   D2A13012   1.146   1.103   6.537 -0.2328 -0.0014  0.0020
  933YOPE   C3A13013   1.058   0.864   6.861  0.2092 -0.3137 -0.0233
  933YOPE   C4A13014   1.023   0.841   7.289 -0.1893  0.2786 -0.0000
  933YOPE   C1B13015   1.184   1.579   6.301  0.0461  0.0156 -0.1933
  933YOPE   C2B13016   1.083   1.904   6.647 -0.0037 -0.2003  0.0331
  933YOPE   D3B13017   1.086   1.917   7.067  0.0539  0.0352  0.2163
  933YOPE   C4B13018   1.390   1.656   7.318 -0.3232  0.0607 -0.2444
  934YOPE   NH313019   2.295  10.153   5.571 -0.2439  0.1941 -0.0368
  934YOPE   PO413020   2.739  10.087   5.470  0.3963 -0.1231 -0.1237
  934YOPE   GL113021   2.762  10.248   5.897  0.2365  0.0678 -0.1859
  934YOPE   GL213022   2.398  10.427   6.035 -0.1345 -0.1426  0.0803
  934YOPE   C1A13023   2.699  10.091   6.308 -0.2158 -0.0474 -0.1192
  934YOPE   D2A13024   2.553   9.889   6.685 -0.0543 -0.4110 -0.0446
  934YOPE   C3A13025   2.827  10.062   7.137 -0.3040  0.2746  0.2301
  934YOPE   C4A13026   3.299  10.204   7.144  0.4278  0.1077  0.1474
  934YOPE   C1B13027   2.307  10.378   6.480 -0.0237 -0.1444  0.0737
  934YOPE   C2B13028   2.447  10.336   6.899 -0.0694  0.1677  0.0084
  934YOPE   D3B13029   2.559  10.576   7.332  0.0067 -0.0093 -0.0826
  934YOPE   C4B13030   2.425  10.787   7.649 -0.0807 -0.4170  0.1539
  935YOPE   NH313031   2.456  14.677   5.886  0.2359  0.5336  0.0536
  935YOPE   PO413032   2.515  14.333   5.689 -0.0805  0.2490  0.0582
  935YOPE   GL113033   2.533  14.207   6.087 -0.0033  0.0759 -0.2781
  935YOPE   GL213034   2.708  14.474   6.282  0.1771  0.2810 -0.0740
  935YOPE   C1A13035   2.570  13.978   6.483  0.4186 -0.1498  0.3463
  935YOPE   D2A13036   2.685  13.819   6.806 -0.0895  0.0129 -0.1927
  935YOPE   C3A13037   2.835  14.094   7.025  0.0916  0.1451 -0.0598
  935YOPE   C4A13038   2.785  14.401   7.339  0.0575  0.2745  0.0128
  935YOPE   C1B13039   2.567  14.440   6.720 -0.0217 -0.0301  0.0155
  935YOPE   C2B13040   2.550  14.737   7.090  0.0758 -0.1212 -0.1273
  935YOPE   D3B13041   2.321  14.823   7.502 -0.0329  0.4558 -0.1499
  935YOPE   C4B13042   2.470  15.124   7.799  0.2188  0.4660 -0.1906
  936YOPE   NH313043  13.107   4.431   5.621 -0.2484  0.0979 -0.1667
  936YOPE   PO413044  13.468   4.290   5.887  0.1426 -0.0143  0.0803
  936YOPE   GL113045  13.660   4.395   6.288  0.0922 -0.0830  0.1046
  936YOPE   GL213046  13.297   4.288   6.391 -0.2212  0.1735 -0.2453
  936YOPE   C1A13047  13.686   4.158   6.755  0.1018 -0.1648 -0.2137
  936YOPE   D2A13048  13.763   3.942   7.061  0.0118 -0.1104  0.1703
  936YOPE   C3A13049  13.641   4.057   7.490 -0.2286  0.2070 -0.1082
  936YOPE   C4A13050  13.771   3.742   7.925 -0.0524 -0.0465  0.2285
  936YOPE   C1B13051  13.124   4.474   6.795 -0.0010 -0.3077  0.1662
  936YOPE   C2B13052  13.395   4.447   7.229 -0.4614  0.2181  0.2912
  936YOPE   D3B13053  13.384   4.421   7.740 -0.1478  0.4323  0.0010
  936YOPE   C4B13054  13.615   4.237   7.993 -0.1255 -0.0971  0.1784
  937YOPE   NH313055   9.953  15.464   5.967  0.0712  0.1889 -0.0913
  937YOPE   PO413056  10.123  15.136   5.792 -0.0947  0.3733  0.3244
  937YOPE   GL113057  10.248  15.095   6.157 -0.1555  0.2200  0.2355
  937YOPE   GL213058   9.966  15.063   6.261  0.0418 -0.1831 -0.0178
  937YOPE   C1A13059  10.375  15.000   6.581 -0.0730 -0.1498 -0.5836
  937YOPE   D2A13060  10.558  15.218   7.027 -0.1472 -0.2793  0.1491
  937YOPE   C3A13061  10.399  15.038   7.398 -0.4131 -0.0430  0.1904
  937YOPE   C4A13062  10.204  15.077   7.779  0.2683 -0.0096  0.3099
  937YOPE   C1B13063   9.800  14.920   6.731  0.0388 -0.1129 -0.0041
  937YOPE   C2B13064   9.497  14.873   7.057 -0.2151  0.0898 -0.1278
  937YOPE   D3B13065   9.211  14.623   7.346  0.0060 -0.0754  0.0335
  937YOPE   C4B13066   9.006  14.249   7.486  0.0230 -0.4898 -0.0820
  938YOPE   NH313067  17.349   0.907   5.698 -0.0277  0.2211 -0.1593
  938YOPE   PO413068  17.622   1.343   5.747  0.2255 -0.0937  0.1259
  938YOPE   GL113069  17.696   1.209   6.072  0.2535  0.1326  0.1763
  938YOPE   GL213070  17.468   0.979   6.169  0.1012  0.1581 -0.0575
  938YOPE   C1A13071  17.840   1.491   6.348  0.0654 -0.1193  0.2905
  938YOPE   D2A13072  17.798   1.596   6.821 -0.2004 -0.0913  0.0279
  938YOPE   C3A13073  18.081   1.331   7.044 -0.0146  0.1260 -0.3269
  938YOPE   C4A13074  18.231   1.166   7.368 -0.3575 -0.0240 -0.1325
  938YOPE   C1B13075  17.535   0.853   6.564  0.0812  0.1172  0.0431
  938YOPE   C2B13076  17.485   1.184   6.869  0.1341  0.0445 -0.2357
  938YOPE   D3B13077  17.564   1.467   7.290  0.2973  0.1981 -0.1255
  938YOPE   C4B13078  17.331   1.571   7.576 -0.0288 -0.0131 -0.0001
  939YOPE   NH313079   9.326  17.809   5.993 -0.2894 -0.1858  0.0398
  939YOPE   PO413080   9.561  18.041   6.156  0.1008  0.0988 -0.3368
  939YOPE   GL113081   9.651  18.141   6.540 -0.0172  0.2424  0.1765
  939YOPE   GL213082   9.946  18.320   6.458 -0.1434  0.2266 -0.3459
  939YOPE   C1A13083   9.562  18.161   6.950 -0.1966  0.5514 -0.1545
  939YOPE   D2A13084   9.596  18.219   7.363  0.0821 -0.3874  0.0721
  939YOPE   C3A13085   9.215  18.350   7.612  0.0549  0.1340  0.3215
  939YOPE   C4A13086   8.885  18.580   7.885  0.0850  0.0124 -0.3788
  939YOPE   C1B13087  10.060  18.394   6.924 -0.1402 -0.1529 -0.2745
  939YOPE   C2B13088  10.172  18.568   7.298  0.2992  0.0674  0.2214
  939YOPE   D3B13089  10.186  18.668   7.661 -0.0767  0.1060  0.1244
  939YOPE   C4B13090  10.067  18.696   8.072 -0.0324 -0.0458  0.1672
  940YOPE   NH313091  12.085   2.975   6.101 -0.0180 -0.0482  0.2520
  940YOPE   PO413092  12.336   2.661   6.292  0.1178 -0.0440  0.0192
  940YOPE   GL113093  12.070   2.765   6.653  0.1163  0.2731  0.1359
  940YOPE   GL213094  12.262   2.973   6.823  0.2077 -0.0196 -0.3995
  940YOPE   C1A13095  11.934   2.874   7.129 -0.3365 -0.1187  0.0038
  940YOPE   D2A13096  11.860   2.821   7.611 -0.0376 -0.0003 -0.0181
  940YOPE   C3A13097  12.078   2.599   7.930 -0.0289  0.0381 -0.2804
  940YOPE   C4A13098  11.981   2.228   8.078 -0.2556  0.2286  0.1339
  940YOPE   C1B13099  12.475   2.957   7.089  0.0497 -0.1841  0.0242
  940YOPE   C2B13100  12.650   3.155   7.514  0.1270  0.1189  0.1114
  940YOPE   D3B13101  12.683   3.413   7.906 -0.3584  0.0844  0.0515
  940YOPE   C4B13102  12.967   3.346   8.225 -0.0588  0.3537 -0.0986
  941YOPE   NH313103   5.822   0.627   5.594  0.0005 -0.1873 -0.1718
  941YOPE   PO413104   5.507   0.840   5.556 -0.2593 -0.0303 -0.1535
  941YOPE   GL113105   5.836   0.996   5.982  0.0668  0.2584  0.4381
  941YOPE   GL213106   5.564   0.874   6.113  0.1598 -0.2724 -0.0551
  941YOPE   C1A13107   5.940   1.340   6.221  0.0787 -0.4185  0.3372
  941YOPE   D2A13108   5.811   1.652   6.464  0.1729  0.0915  0.0117
  941YOPE   C3A13109   5.439   1.717   6.608 -0.0604 -0.0868  0.0948
  941YOPE   C4A13110   5.073   1.913   6.673 -0.1255  0.0323  0.0737
  941YOPE   C1B13111   5.302   0.844   6.533 -0.0009 -0.0299 -0.0540
  941YOPE   C2B13112   5.215   0.733   6.926 -0.0731 -0.1604 -0.2363
  941YOPE   D3B13113   5.151   0.731   7.295  0.1877  0.0205 -0.0657
  941YOPE   C4B13114   4.996   1.078   7.519  0.1417  0.1692 -0.0012
  942POPC   NC313115   1.301   9.782   5.341 -0.0921  0.0092  0.0354
  942POPC   PO413116   1.409   9.379   5.206  0.1910  0.1316 -0.1225
  942POPC   GL113117   1.483   9.431   5.683 -0.2208  0.1869  0.1333
  942POPC   GL213118   1.241   9.500   5.715  0.0317  0.4157  0.1288
  942POPC   C1A13119   1.719   9.436   6.074  0.1298  0.0699  0.2312
  942POPC   D2A13120   1.766   9.311   6.557  0.1532  0.4838  0.0119
  942POPC   C3A13121   1.511   8.837   6.464  0.0024 -0.2246  0.2871
  942POPC   C4A13122   1.769   8.446   6.488 -0.0750 -0.0010  0.2221
  942POPC   C1B13123   1.003   9.717   6.048 -0.0438  0.2143 -0.0111
  942POPC   C2B13124   1.023   9.714   6.479 -0.2786  0.1816 -0.1596
  942POPC   C3B13125   1.105   9.642   6.950 -0.0890 -0.3178  0.2360
  942POPC   C4B13126   1.397   9.660   7.308 -0.1316 -0.0198  0.0306
  943POPC   NC313127   7.317   9.529   5.645 -0.0313  0.0321  0.1198
  943POPC   PO413128   6.886   9.690   5.791 -0.0682  0.2186 -0.3140
  943POPC   GL113129   6.866   9.557   6.231 -0.1051  0.0716  0.2820
  943POPC   GL213130   6.588   9.594   6.340  0.1348  0.0023  0.0142
  943POPC   C1A13131   6.944   9.587   6.712  0.1641 -0.0097 -0.0447
  943POPC   D2A13132   7.133   9.602   7.060  0.0388 -0.0873  0.1222
  943POPC   C3A13133   7.065  10.009   7.105 -0.1739 -0.1152 -0.0308
  943POPC   C4A13134   7.354  10.301   7.143  0.1551  0.0763 -0.2386
  943POPC   C1B13135   6.467   9.514   6.673 -0.3028  0.1906  0.1160
  943POPC   C2B13136   6.615   9.538   7.119  0.1497  0.2705  0.0734
  943POPC   C3B13137   6.817   9.715   7.437 -0.0294  0.0632 -0.1470
  943POPC   C4B13138   7.122   9.921   7.660 -0.0081 -0.1219 -0.1716
  944POPC   NC313139  18.100  11.944   5.379  0.0472  0.1260  0.0961
  944POPC   PO413140  18.006  11.508   5.171  0.0470 -0.0058  0.0861
  944POPC   GL113141  18.119  11.381   5.643 -0.0256  0.2637  0.1516
  944POPC   GL213142  18.050  11.718   5.809 -0.1278  0.2442 -0.0029
  944POPC   C1A13143  17.988  11.338   6.104  0.3914 -0.2346  0.0018
  944POPC   D2A13144  18.191  11.222   6.498  0.0780 -0.0124  0.0236
  944POPC   C3A13145  18.226  11.440   6.830 -0.3444  0.0630 -0.1574
  944POPC   C4A13146  18.040  11.706   7.145 -0.3580  0.0760 -0.0268
  944POPC   C1B13147  18.149  11.834   6.241  0.1337  0.2508 -0.0544
  944POPC   C2B13148  18.200  11.903   6.707 -0.1862 -0.0852 -0.1030
  944POPC   C3B13149  18.418  12.072   7.145  0.0216  0.1274 -0.0634
  944POPC   C4B13150  18.819  11.879   7.376 -0.0726 -0.1580 -0.1887
  945POPC   NC313151   2.662   7.512   4.788  0.0118  0.2563 -0.0863
  945POPC   PO413152   2.256   7.256   4.876 -0.0438  0.0147 -0.1249
  945POPC   GL113153   2.264   7.064   5.338  0.0949  0.0547  0.2583
  945POPC   GL213154   1.969   7.018   5.458 -0.1419 -0.0565 -0.1585
  945POPC   C1A13155   2.601   7.053   5.528  0.0240 -0.2780  0.3036
  945POPC   D2A13156   2.849   6.751   5.731  0.0496 -0.0044 -0.3193
  945POPC   C3A13157   2.825   6.752   6.153 -0.1930  0.0110 -0.0914
  945POPC   C4A13158   2.503   6.559   6.470 -0.0305  0.3516 -0.3543
  945POPC   C1B13159   2.006   7.346   5.735  0.1677  0.2415 -0.3055
  945POPC   C2B13160   1.882   7.539   6.151  0.2824  0.2934  0.0926
  945POPC   C3B13161   1.711   7.727   6.478  0.0723  0.1666  0.2105
  945POPC   C4B13162   1.341   7.995   6.333  0.0844  0.0745  0.2658
  946POPC   NC313163  10.953  13.506   6.044  0.1657  0.2113 -0.0465
  946POPC   PO413164  11.217  13.107   5.984  0.3031 -0.1391  0.0206
  946POPC   GL113165  11.008  12.956   6.361 -0.1472 -0.2477 -0.3421
  946POPC   GL213166  10.786  12.621   6.422  0.1593  0.2994  0.0688
  946POPC   C1A13167  10.896  13.200   6.811  0.0439  0.0035  0.1002
  946POPC   D2A13168  11.051  13.614   6.964 -0.1420  0.0144  0.2040
  946POPC   C3A13169  11.059  13.749   7.290 -0.2088  0.1493 -0.0290
  946POPC   C4A13170  11.220  13.672   7.638  0.0902 -0.0106 -0.4363
  946POPC   C1B13171  10.798  12.535   6.883  0.1120  0.0645  0.0419
  946POPC   C2B13172  10.856  12.857   7.227  0.0097  0.3191  0.3642
  946POPC   C3B13173  10.899  13.159   7.504  0.0784  0.0412 -0.1233
  946POPC   C4B13174  10.667  13.566   7.624  0.0409  0.0198  0.0489
  947POPC   NC313175   8.805  14.817   5.485  0.1866  0.1050  0.0103
  947POPC   PO413176   8.410  14.613   5.723  0.0684 -0.0539  0.1475
  947POPC   GL113177   8.736  14.343   6.005  0.4649  0.0871 -0.0048
  947POPC   GL213178   9.155  14.440   6.047  0.1385 -0.0413  0.0429
  947POPC   C1A13179   8.863  14.060   6.379 -0.1523 -0.1046  0.3875
  947POPC   D2A13180   8.911  14.035   6.761  0.0877 -0.0028  0.2055
  947POPC   C3A13181   9.142  14.031   7.081 -0.1452  0.0420  0.0758
  947POPC   C4A13182   9.374  13.939   7.502  0.1130  0.2430 -0.1051
  947POPC   C1B13183   9.313  14.123   6.184 -0.0227 -0.0337 -0.0536
  947POPC   C2B13184   9.404  14.114   6.618  0.0145  0.2136  0.1764
  947POPC   C3B13185   9.554  13.797   6.938 -0.3642 -0.1779  0.0720
  947POPC   C4B13186   9.832  13.846   7.339 -0.1120  0.3225  0.1406
  948POPC   NC313187  11.251   2.962   6.063  0.0728  0.0557  0.1303
  948POPC   PO413188  11.121   3.394   5.978 -0.0965 -0.0091 -0.0114
  948POPC   GL113189  10.880   3.606   6.326 -0.1399  0.0757  0.2051
  948POPC   GL213190  10.608   3.805   6.268  0.1333 -0.0247  0.1194
  948POPC   C1A13191  10.815   3.518   6.702  0.0962 -0.0025 -0.0515
  948POPC   D2A13192  10.576   3.760   6.988 -0.0360 -0.0834  0.2142
  948POPC   C3A13193  10.553   4.058   6.732  0.2321 -0.2006 -0.3781
  948POPC   C4A13194  10.621   4.422   6.524 -0.0313  0.1189 -0.2294
  948POPC   C1B13195  10.195   3.746   6.529 -0.0160 -0.0315 -0.2292
  948POPC   C2B13196  10.068   3.712   7.037  0.1877  0.0447 -0.1482
  948POPC   C3B13197   9.821   3.605   7.429  0.2144  0.2023 -0.1787
  948POPC   C4B13198   9.681   3.861   7.792  0.1095  0.2213  0.1314
  949POPC   NC313199  11.387   4.947   5.685 -0.0756  0.1441  0.2958
  949POPC   PO413200  11.752   4.928   5.887 -0.2583 -0.1956  0.1754
  949POPC   GL113201  12.043   4.889   6.158  0.0140 -0.1219  0.2934
  949POPC   GL213202  11.982   5.126   6.367  0.1786  0.2843  0.0672
  949POPC   C1A13203  12.210   4.603   6.422 -0.1106 -0.0886  0.0685
  949POPC   D2A13204  12.197   4.366   6.812 -0.1089 -0.0364  0.0297
  949POPC   C3A13205  12.108   4.613   7.141  0.3298  0.0470  0.1455
  949POPC   C4A13206  11.923   4.940   7.289  0.0131 -0.0594 -0.0542
  949POPC   C1B13207  11.558   5.074   6.617 -0.0214 -0.0838  0.0933
  949POPC   C2B13208  11.469   5.036   7.014  0.3203  0.0297  0.1524
  949POPC   C3B13209  11.443   5.012   7.488 -0.1697  0.1180  0.2023
  949POPC   C4B13210  11.703   4.869   7.849  0.3577  0.2147  0.1296
  950POPC   NC313211  13.731   0.937   5.754 -0.0428  0.2038 -0.1330
  950POPC   PO413212  14.060   0.743   5.593  0.2651  0.1621 -0.1781
  950POPC   GL113213  14.173   0.777   6.053  0.0101  0.0078 -0.1186
  950POPC   GL213214  14.020   0.495   6.308  0.1205 -0.0097  0.0179
  950POPC   C1A13215  14.068   0.986   6.360 -0.0869 -0.0062 -0.1400
  950POPC   D2A13216  14.081   1.062   6.752  0.1731  0.1075  0.0033
  950POPC   C3A13217  14.127   1.124   7.196  0.0357  0.2370 -0.3109
  950POPC   C4A13218  14.438   1.040   7.563 -0.2088 -0.2168 -0.3005
  950POPC   C1B13219  14.159   0.580   6.726 -0.0189 -0.1954  0.3099
  950POPC   C2B13220  14.266   0.588   7.198 -0.1571 -0.0517 -0.2700
  950POPC   C3B13221  14.395   0.563   7.583  0.1099  0.1417 -0.1417
  950POPC   C4B13222  14.176   0.211   7.936  0.0671 -0.0880 -0.0978
  951POPC   NC313223  10.600  16.409   5.677 -0.0374  0.3643  0.1910
  951POPC   PO413224  10.561  16.861   5.743 -0.0017 -0.2889 -0.2485
  951POPC   GL113225  10.365  16.932   6.057  0.0540  0.3540  0.3083
  951POPC   GL213226  10.025  16.719   6.269 -0.1861  0.3270  0.1832
  951POPC   C1A13227  10.515  16.846   6.439 -0.2020 -0.0706  0.1000
  951POPC   D2A13228  10.507  16.954   6.849 -0.3556  0.1347 -0.2187
  951POPC   C3A13229  10.565  17.013   7.259 -0.0958 -0.0056  0.0577
  951POPC   C4A13230  10.512  17.285   7.659  0.2184 -0.2481 -0.1288
  951POPC   C1B13231  10.111  16.695   6.655  0.1164  0.0265 -0.1047
  951POPC   C2B13232  10.152  16.812   7.127 -0.3765 -0.0559 -0.0654
  951POPC   C3B13233  10.120  16.936   7.623 -0.1417  0.0192  0.2060
  951POPC   C4B13234  10.175  16.857   8.047  0.1832 -0.0634  0.3361
  952POPC   NC313235  16.634   5.855   4.763  0.1223 -0.1777  0.0787
  952POPC   PO413236  16.639   6.294   4.995  0.3033 -0.3080  0.4396
  952POPC   GL113237  16.544   6.340   5.361  0.2252 -0.1069  0.1265
  952POPC   GL213238  16.764   6.206   5.608  0.0787 -0.0564  0.1576
  952POPC   C1A13239  16.310   6.343   5.706 -0.0019  0.2031 -0.1426
  952POPC   D2A13240  16.522   6.276   6.085 -0.0644  0.1254 -0.0483
  952POPC   C3A13241  16.489   6.564   6.471 -0.3225  0.2120 -0.0945
  952POPC   C4A13242  16.436   6.657   6.854  0.1290 -0.1299 -0.1182
  952POPC   C1B13243  16.756   6.654   5.821 -0.2104 -0.1633  0.0874
  952POPC   C2B13244  16.777   6.899   6.223 -0.1196  0.1060  0.0204
  952POPC   C3B13245  16.563   7.070   6.613  0.1656  0.2543 -0.0286
  952POPC   C4B13246  16.264   7.229   6.853  0.0350 -0.0251  0.1930
  953POPC   NC313247  16.570  13.915   5.253 -0.2625 -0.0493  0.0324
  953POPC   PO413248  16.496  13.539   5.312  0.0951 -0.3898 -0.0105
  953POPC   GL113249  16.473  13.719   5.700  0.1164 -0.2308 -0.1417
  953POPC   GL213250  16.644  14.012   5.734  0.0325 -0.3192 -0.0639
  953POPC   C1A13251  16.165  13.800   6.060 -0.0908 -0.2557  0.2325
  953POPC   D2A13252  16.019  13.793   6.472 -0.1115  0.3241  0.1926
  953POPC   C3A13253  16.156  13.857   6.867 -0.2755 -0.1228 -0.1606
  953POPC   C4A13254  15.963  14.079   7.204 -0.0383 -0.0065  0.5238
  953POPC   C1B13255  16.461  14.193   6.083 -0.0640 -0.1428 -0.0030
  953POPC   C2B13256  16.445  14.139   6.529 -0.3173  0.2364 -0.4267
  953POPC   C3B13257  16.644  13.961   6.814  0.0216 -0.2779 -0.2649
  953POPC   C4B13258  16.740  13.540   6.914 -0.0203 -0.1665  0.0593
  954POPC   NC313259  12.411   4.864   5.882 -0.1355  0.1286 -0.1227
  954POPC   PO413260  12.642   4.448   5.797 -0.3326  0.0996 -0.0754
  954POPC   GL113261  12.629   4.517   6.208 -0.1190 -0.0763 -0.1008
  954POPC   GL213262  12.382   4.141   6.155 -0.1298 -0.0687 -0.0347
  954POPC   C1A13263  12.651   4.342   6.651  0.0557 -0.1243 -0.0276
  954POPC   D2A13264  12.683   4.480   7.055  0.2692 -0.0181 -0.5113
  954POPC   C3A13265  13.002   4.761   7.240 -0.0189  0.1090 -0.1793
  954POPC   C4A13266  13.262   5.153   7.237  0.1614  0.0862 -0.0718
  954POPC   C1B13267  12.368   3.909   6.513  0.1792  0.0781 -0.0620
  954POPC   C2B13268  12.484   3.903   6.918  0.0612 -0.1323  0.1370
  954POPC   C3B13269  12.568   4.084   7.244  0.4159 -0.0202 -0.1427
  954POPC   C4B13270  12.373   4.250   7.560  0.0753  0.0838 -0.2621
  955POPC   NC313271  12.255  16.170   6.108 -0.1741 -0.1425  0.1864
  955POPC   PO413272  12.186  15.820   6.326 -0.2248 -0.0087  0.5965
  955POPC   GL113273  12.116  15.817   6.764  0.0613 -0.3659  0.0407
  955POPC   GL213274  12.422  15.943   6.787  0.0958  0.0200  0.3679
  955POPC   C1A13275  12.165  15.611   7.101  0.0111 -0.1786 -0.1640
  955POPC   D2A13276  11.968  15.430   7.419  0.0630 -0.0514  0.0615
  955POPC   C3A13277  11.771  15.547   7.642  0.0952  0.3713 -0.1003
  955POPC   C4A13278  11.417  15.633   7.737  0.1552  0.0165 -0.1110
  955POPC   C1B13279  12.555  15.988   7.200 -0.1799  0.1285 -0.1136
  955POPC   C2B13280  12.596  16.282   7.447  0.2197 -0.0596  0.1051
  955POPC   C3B13281  12.724  16.554   7.792 -0.1019  0.1852  0.0199
  955POPC   C4B13282  12.974  16.853   7.979 -0.0337 -0.0683  0.3157
  956POPC   NC313283   5.417  11.620   5.609  0.2750 -0.1063  0.1450
  956POPC   PO413284   5.794  11.494   5.748 -0.1465  0.0706  0.1088
  956POPC   GL113285   5.513  11.550   6.117 -0.1305  0.2425  0.2017
  956POPC   GL213286   5.615  11.732   6.437 -0.3518  0.2688 -0.1374
  956POPC   C1A13287   5.445  11.261   6.541 -0.0961  0.2096 -0.0201
  956POPC   D2A13288   5.754  10.941   6.658  0.0082  0.0183 -0.1453
  956POPC   C3A13289   6.267  10.972   6.642  0.0040 -0.1195 -0.1111
  956POPC   C4A13290   6.458  11.040   6.997 -0.4143  0.4776  0.7483
  956POPC   C1B13291   5.326  11.604   6.891 -0.0826 -0.0037  0.0383
  956POPC   C2B13292   5.226  11.363   7.073 -0.1670 -0.1674 -0.0211
  956POPC   C3B13293   5.219  11.158   7.384  0.3466 -0.3663 -0.1245
  956POPC   C4B13294   4.947  10.829   7.613 -0.1734  0.0107 -0.3244
  957POPC   NC313295   3.195   8.084   5.129  0.2062  0.2164  0.1109
  957POPC   PO413296   3.075   8.395   5.278  0.0483  0.0478 -0.0677
  957POPC   GL113297   2.929   8.624   5.697  0.1788  0.0310 -0.0415
  957POPC   GL213298   2.966   8.337   5.836  0.0274  0.5880 -0.0799
  957POPC   C1A13299   2.616   8.663   6.043 -0.1053 -0.3931  0.2256
  957POPC   D2A13300   2.524   8.655   6.481  0.0783 -0.1716  0.1364
  957POPC   C3A13301   2.334   8.615   6.828  0.2285 -0.0906 -0.0910
  957POPC   C4A13302   2.208   8.666   7.252 -0.0523 -0.0528 -0.0716
  957POPC   C1B13303   3.149   8.144   6.203  0.0030  0.0057  0.1109
  957POPC   C2B13304   3.151   7.954   6.515 -0.0441 -0.2049 -0.1911
  957POPC   C3B13305   2.968   7.829   6.855  0.0176  0.1740 -0.0876
  957POPC   C4B13306   2.722   7.707   7.199  0.1466  0.0488 -0.0147
  958POPC   NC313307   6.173  12.586   5.791  0.0308  0.0813  0.3477
  958POPC   PO413308   6.526  12.771   5.731  0.1620 -0.2592 -0.1010
  958POPC   GL113309   6.777  12.888   6.208 -0.0963 -0.1596  0.0735
  958POPC   GL213310   6.936  12.522   6.351  0.1443 -0.0974 -0.0966
  958POPC   C1A13311   7.107  13.036   6.431  0.0827  0.2724  0.0743
  958POPC   D2A13312   7.521  13.189   6.633 -0.1513 -0.0708 -0.0387
  958POPC   C3A13313   7.499  13.367   6.996 -0.0123 -0.3763  0.0508
  958POPC   C4A13314   7.299  13.483   7.426 -0.4599  0.3310 -0.1812
  958POPC   C1B13315   7.115  12.330   6.744  0.1109 -0.0420 -0.3025
  958POPC   C2B13316   7.207  12.453   7.198 -0.1628  0.1120 -0.1863
  958POPC   C3B13317   7.147  12.489   7.579 -0.1206 -0.0626 -0.1555
  958POPC   C4B13318   7.298  12.762   7.941  0.0450  0.1709  0.5340
  959POPC   NC313319   0.213   5.650   4.280 -0.0334  0.2868 -0.1010
  959POPC   PO413320   0.620   5.444   4.366  0.5061  0.0839 -0.2033
  959POPC   GL113321   0.576   5.155   4.705 -0.1418  0.3019  0.2161
  959POPC   GL213322   0.817   5.063   5.009 -0.0023 -0.1231 -0.2479
  959POPC   C1A13323   0.156   5.087   5.017  0.2797 -0.1794 -0.2754
  959POPC   D2A13324  -0.058   5.387   5.388 -0.1575  0.1396 -0.1065
  959POPC   C3A13325  -0.479   5.302   5.479 -0.2000  0.1983 -0.0349
  959POPC   C4A13326  -0.735   4.865   5.539 -0.0228 -0.1751  0.0920
  959POPC   C1B13327   0.523   5.252   5.396 -0.0325 -0.1544  0.0078
  959POPC   C2B13328   0.472   5.589   5.697  0.0083 -0.1739  0.2344
  959POPC   C3B13329   0.306   5.744   6.089  0.0306 -0.1817  0.0277
  959POPC   C4B13330   0.263   5.764   6.588  0.2751  0.1063 -0.2437
  960POPC   NC313331  14.422  17.908   5.593 -0.0210  0.0067  0.3600
  960POPC   PO413332  14.301  17.577   5.749 -0.0994  0.0538 -0.3247
  960POPC   GL113333  14.024  17.757   5.925  0.0079 -0.0078 -0.0502
  960POPC   GL213334  14.196  18.086   6.079  0.2115 -0.2638  0.0648
  960POPC   C1A13335  14.026  17.617   6.330  0.2666  0.0131  0.0861
  960POPC   D2A13336  14.197  17.342   6.656  0.2032 -0.1397  0.0402
  960POPC   C3A13337  14.491  17.492   6.933  0.1226  0.1854  0.4366
  960POPC   C4A13338  14.864  17.700   6.880 -0.2626 -0.1750  0.0851
  960POPC   C1B13339  14.088  18.205   6.468  0.1590  0.0274  0.1396
  960POPC   C2B13340  14.001  18.480   6.797 -0.0114 -0.5019  0.3025
  960POPC   C3B13341  14.041  18.422   7.198  0.0617 -0.1750 -0.1338
  960POPC   C4B13342  14.117  18.474   7.548  0.1293 -0.0328 -0.1337
  961POPC   NC313343  11.993  11.414   5.813  0.0080 -0.0673 -0.0149
  961POPC   PO413344  11.914  11.034   5.987 -0.0345 -0.2659 -0.1880
  961POPC   GL113345  11.752  11.179   6.305 -0.1431  0.1984  0.0604
  961POPC   GL213346  11.697  11.411   6.246  0.2936 -0.0277 -0.0949
  961POPC   C1A13347  11.616  11.201   6.781  0.1484 -0.0817 -0.2589
  961POPC   D2A13348  11.658  11.120   7.204 -0.0266 -0.2901 -0.0515
  961POPC   C3A13349  11.923  10.767   7.441 -0.0093 -0.0512  0.2435
  961POPC   C4A13350  11.961  10.784   7.878  0.2219 -0.0715  0.0425
  961POPC   C1B13351  11.493  11.657   6.610 -0.2883  0.3435 -0.0018
  961POPC   C2B13352  11.716  11.654   7.003  0.1315 -0.2189  0.2233
  961POPC   C3B13353  11.781  11.613   7.437  0.2095  0.1587 -0.0897
  961POPC   C4B13354  11.836  11.883   7.773 -0.1664 -0.0164  0.3497
  962POPC   NC313355   5.489   9.401   5.726  0.0063  0.1573 -0.1183
  962POPC   PO413356   5.956   9.430   5.879 -0.0453  0.2142 -0.1199
  962POPC   GL113357   6.174   9.296   6.291 -0.2401 -0.2410  0.0211
  962POPC   GL213358   6.123   8.986   6.244 -0.2547  0.2847  0.0042
  962POPC   C1A13359   6.178   9.107   6.745 -0.2128  0.1784  0.2421
  962POPC   D2A13360   6.276   9.191   7.167 -0.2010 -0.0352  0.1345
  962POPC   C3A13361   6.143   9.088   7.560  0.0445 -0.3368 -0.2294
  962POPC   C4A13362   5.994   8.711   7.672 -0.1204  0.0542 -0.1275
  962POPC   C1B13363   5.796   8.784   6.597  0.1143 -0.2011 -0.1919
  962POPC   C2B13364   5.506   8.596   6.925 -0.2065  0.0893 -0.0271
  962POPC   C3B13365   5.412   8.717   7.281  0.1660 -0.1293  0.1193
  962POPC   C4B13366   5.276   8.806   7.642 -0.1250  0.1566  0.2609
  963POPC   NC313367  15.428   9.688   5.618  0.1074 -0.0223 -0.1027
  963POPC   PO413368  15.896   9.644   5.723  0.3300 -0.2689 -0.1978
  963POPC   GL113369  16.206   9.596   5.968 -0.0514  0.0499 -0.1688
  963POPC   GL213370  16.493   9.849   5.939  0.3375  0.0196 -0.3943
  963POPC   C1A13371  16.589   9.386   6.134 -0.2929 -0.2358  0.1490
  963POPC   D2A13372  16.921   9.244   6.487 -0.1780 -0.3619  0.0091
  963POPC   C3A13373  16.833   9.188   6.766 -0.2362  0.2616 -0.1860
  963POPC   C4A13374  16.955   9.151   7.250  0.3274 -0.2127 -0.0649
  963POPC   C1B13375  16.461   9.755   6.402  0.2274 -0.2223  0.0354
  963POPC   C2B13376  16.208   9.785   6.855 -0.1354 -0.0891 -0.1666
  963POPC   C3B13377  16.022   9.631   7.283  0.0124 -0.1567  0.1240
  963POPC   C4B13378  16.163   9.471   7.663 -0.1657  0.0757  0.2436
  964POPC   NC313379  16.160   6.398   4.630 -0.1841 -0.1400  0.3470
  964POPC   PO413380  15.841   6.548   4.884  0.4035  0.7265  0.2131
  964POPC   GL113381  15.677   6.849   5.266  0.2892  0.1047 -0.2873
  964POPC   GL213382  15.912   6.721   5.399 -0.0253  0.2544 -0.1816
  964POPC   C1A13383  15.576   7.023   5.673  0.1369  0.2124 -0.3855
  964POPC   D2A13384  15.645   7.311   6.067 -0.4715  0.1383 -0.2843
  964POPC   C3A13385  15.655   7.588   6.294  0.0366  0.0035 -0.2996
  964POPC   C4A13386  15.889   7.596   6.759 -0.2471 -0.1442 -0.3631
  964POPC   C1B13387  15.758   6.524   5.819  0.2601  0.1009 -0.1289
  964POPC   C2B13388  15.965   6.361   6.122  0.2101  0.0854  0.2783
  964POPC   C3B13389  16.166   6.234   6.426  0.2579 -0.1651  0.0396
  964POPC   C4B13390  16.160   6.091   6.814 -0.2317  0.3338 -0.1740
  965POPC   NC313391   7.184   4.759   5.276  0.2187 -0.0254 -0.1587
  965POPC   PO413392   7.323   4.778   5.695  0.1397  0.0464 -0.2388
  965POPC   GL113393   7.085   4.782   5.982  0.0606 -0.1529 -0.1790
  965POPC   GL213394   7.056   4.938   6.108 -0.0530 -0.1701 -0.0675
  965POPC   C1A13395   7.008   4.436   6.244  0.1418  0.1300 -0.0070
  965POPC   D2A13396   6.931   4.332   6.646  0.0087 -0.2520 -0.2348
  965POPC   C3A13397   6.691   4.053   6.851  0.0627 -0.3893 -0.1653
  965POPC   C4A13398   6.385   3.736   6.785  0.0643 -0.1051  0.1358
  965POPC   C1B13399   7.152   4.842   6.489 -0.1016 -0.0068  0.3183
  965POPC   C2B13400   7.198   4.646   6.903 -0.0588  0.2825 -0.1088
  965POPC   C3B13401   7.363   4.560   7.333 -0.0271 -0.2570 -0.0380
  965POPC   C4B13402   7.691   4.227   7.455  0.0150 -0.0131  0.0477
  966POPC   NC313403   4.970   6.153   5.216  0.0272  0.1400  0.3295
  966POPC   PO413404   5.454   6.104   5.043 -0.0236 -0.3360 -0.1995
  966POPC   GL113405   5.383   5.923   5.501 -0.1515 -0.3676 -0.0913
  966POPC   GL213406   4.997   5.937   5.701  0.1785  0.0891  0.1457
  966POPC   C1A13407   5.404   5.927   6.004  0.3392 -0.0006  0.1793
  966POPC   D2A13408   5.776   5.850   6.299 -0.1885 -0.2366 -0.0255
  966POPC   C3A13409   5.684   5.832   6.815  0.0698 -0.0357  0.0622
  966POPC   C4A13410   5.606   5.841   7.223 -0.0806 -0.0623 -0.1413
  966POPC   C1B13411   4.902   6.157   6.089 -0.0624  0.1216 -0.3393
  966POPC   C2B13412   4.758   6.195   6.421  0.0937 -0.2377  0.1912
  966POPC   C3B13413   4.771   6.105   6.955  0.2029 -0.1235  0.1639
  966POPC   C4B13414   4.566   6.160   7.328 -0.2868  0.0405 -0.3562
  967POPC   NC313415   5.743  13.066   5.668  0.0443  0.1740  0.1386
  967POPC   PO413416   5.590  12.571   5.797  0.0210 -0.1490 -0.2200
  967POPC   GL113417   5.238  12.371   6.084 -0.3360  0.0437 -0.2387
  967POPC   GL213418   5.094  11.977   6.233  0.3080  0.2290 -0.2568
  967POPC   C1A13419   5.200  12.453   6.429 -0.0087  0.1490 -0.0260
  967POPC   D2A13420   5.218  12.600   6.816  0.0003  0.1651  0.1012
  967POPC   C3A13421   5.305  12.525   7.197  0.1403 -0.3589  0.2074
  967POPC   C4A13422   5.504  12.727   7.527  0.0474 -0.1880 -0.0932
  967POPC   C1B13423   5.227  11.961   6.609  0.0577  0.0871 -0.0523
  967POPC   C2B13424   5.100  12.050   6.960 -0.2050 -0.2463  0.1407
  967POPC   C3B13425   4.838  11.703   7.176 -0.0435  0.3036 -0.1306
  967POPC   C4B13426   4.544  11.755   7.431  0.0692  0.1444  0.2246
  968POPC   NC313427   6.822  14.036   5.512  0.2656  0.3669 -0.0085
  968POPC   PO413428   6.529  14.394   5.739  0.2014  0.2934 -0.1241
  968POPC   GL113429   6.417  14.336   6.100 -0.2795  0.0703  0.1487
  968POPC   GL213430   6.207  14.576   6.229  0.3593  0.0341 -0.2009
  968POPC   C1A13431   6.729  14.144   6.482  0.2622 -0.4065 -0.0769
  968POPC   D2A13432   6.736  13.766   6.771  0.2811 -0.1213 -0.0900
  968POPC   C3A13433   6.493  13.736   7.089  0.0126 -0.1171  0.3198
  968POPC   C4A13434   6.142  13.485   7.254  0.0795  0.1881 -0.1351
  968POPC   C1B13435   6.082  14.579   6.652  0.1194 -0.5915 -0.0006
  968POPC   C2B13436   5.842  14.491   6.987  0.0439 -0.0973 -0.0640
  968POPC   C3B13437   5.715  14.328   7.447 -0.0879  0.3774 -0.0805
  968POPC   C4B13438   5.708  13.904   7.694  0.2361  0.2210 -0.5058
  969POPC   NC313439   0.608   9.251   4.913 -0.1857 -0.2920 -0.1889
  969POPC   PO413440   0.266   9.177   5.192 -0.0283  0.3092  0.2580
  969POPC   GL113441   0.184   8.903   5.626  0.2737  0.1509  0.2697
  969POPC   GL213442  -0.029   8.702   5.659 -0.0415 -0.0996 -0.2646
  969POPC   C1A13443   0.304   8.889   6.085  0.4704  0.2848  0.1179
  969POPC   D2A13444   0.476   8.814   6.569 -0.0637 -0.2159  0.4324
  969POPC   C3A13445   0.395   8.529   6.958 -0.0887  0.1939  0.3144
  969POPC   C4A13446   0.493   8.448   7.310 -0.2368 -0.2014 -0.3760
  969POPC   C1B13447  -0.311   8.491   5.978 -0.1871 -0.0252 -0.0781
  969POPC   C2B13448  -0.289   8.094   6.201  0.0923 -0.1306  0.3591
  969POPC   C3B13449  -0.145   7.794   6.470 -0.1640  0.0395 -0.4607
  969POPC   C4B13450   0.040   7.627   6.762  0.1100  0.0026  0.0842
  970POPC   NC313451   2.894  17.666   5.474  0.2029 -0.1372  0.0065
  970POPC   PO413452   2.485  17.583   5.713  0.0731  0.0414  0.0021
  970POPC   GL113453   2.266  17.679   6.010 -0.1461 -0.1688  0.1214
  970POPC   GL213454   2.348  18.040   6.041  0.0801 -0.0167 -0.1950
  970POPC   C1A13455   2.157  17.610   6.457 -0.0441  0.0275  0.1186
  970POPC   D2A13456   2.319  17.484   6.982 -0.1193 -0.0669  0.0849
  970POPC   C3A13457   2.545  17.822   7.310  0.0421  0.2302 -0.0606
  970POPC   C4A13458   2.863  18.046   7.123  0.3069  0.2487  0.1023
  970POPC   C1B13459   2.315  18.069   6.530 -0.0391 -0.1236  0.1875
  970POPC   C2B13460   2.343  18.048   6.855 -0.1993  0.0985 -0.0684
  970POPC   C3B13461   2.094  17.973   7.145  0.2814 -0.2116 -0.2877
  970POPC   C4B13462   2.051  17.816   7.511  0.0325 -0.1009  0.3677
  971POPC   NC313463  10.004   7.962   6.027 -0.4353 -0.1896  0.1002
  971POPC   PO413464   9.700   7.719   5.917  0.3123 -0.0939  0.0668
  971POPC   GL113465   9.589   7.846   6.328 -0.3090 -0.0124 -0.2353
  971POPC   GL213466   9.301   8.051   6.376  0.0400  0.0972 -0.2567
  971POPC   C1A13467   9.557   7.775   6.670 -0.1719 -0.0701  0.1183
  971POPC   D2A13468   9.293   7.787   7.042  0.1492  0.0390 -0.1747
  971POPC   C3A13469   9.286   7.970   7.452 -0.0854  0.0883 -0.1603
  971POPC   C4A13470   9.425   7.963   7.914 -0.0081  0.0115  0.0670
  971POPC   C1B13471   9.369   8.224   6.744 -0.2868 -0.2356 -0.1078
  971POPC   C2B13472   8.978   8.212   7.032 -0.0237  0.1630 -0.2523
  971POPC   C3B13473   8.717   8.134   7.397 -0.3018  0.1702 -0.2523
  971POPC   C4B13474   8.587   8.462   7.662 -0.0775 -0.0602  0.0207
  972POPC   NC313475   2.743  16.673   5.637 -0.0549  0.2662 -0.0131
  972POPC   PO413476   3.164  16.911   5.720  0.0449  0.0590 -0.0595
  972POPC   GL113477   3.233  16.997   6.222  0.0850 -0.1525  0.1311
  972POPC   GL213478   3.509  16.752   6.298  0.1353  0.0872 -0.0249
  972POPC   C1A13479   3.192  17.396   6.382  0.4295  0.4598  0.0539
  972POPC   D2A13480   3.276  17.469   6.817 -0.0672  0.2912  0.1984
  972POPC   C3A13481   3.356  17.179   7.123 -0.0241 -0.1586 -0.1505
  972POPC   C4A13482   3.266  17.265   7.521 -0.1727  0.0056  0.0412
  972POPC   C1B13483   3.496  17.020   6.616  0.1412  0.1196 -0.0947
  972POPC   C2B13484   3.888  17.036   7.033  0.0795  0.0194 -0.1602
  972POPC   C3B13485   4.198  16.918   7.347 -0.2496  0.1706  0.0247
  972POPC   C4B13486   4.458  16.715   7.630  0.0048 -0.0331  0.1062
  973POPC   NC313487   3.347  12.535   5.075 -0.1486  0.3800 -0.2782
  973POPC   PO413488   3.171  12.895   5.195 -0.1568 -0.1286 -0.1257
  973POPC   GL113489   2.829  12.944   5.518 -0.4550  0.1718 -0.1167
  973POPC   GL213490   2.626  12.716   5.516  0.1509  0.3890 -0.3888
  973POPC   C1A13491   2.534  13.161   5.744  0.0991  0.1119  0.0541
  973POPC   D2A13492   2.309  13.331   6.009  0.3275 -0.2644 -0.1102
  973POPC   C3A13493   2.177  13.122   6.458  0.2653 -0.0402 -0.3329
  973POPC   C4A13494   2.054  12.843   6.759  0.1976  0.0879 -0.0667
  973POPC   C1B13495   2.719  12.602   5.880 -0.2232  0.1095 -0.0133
  973POPC   C2B13496   2.783  12.419   6.328 -0.0549  0.3058  0.0154
  973POPC   C3B13497   2.801  12.257   6.794 -0.1572 -0.1949  0.2709
  973POPC   C4B13498   2.706  11.895   7.093  0.0248  0.0351 -0.0853
  974POPC   NC313499  17.302  12.351   5.342  0.1425  0.0858 -0.1500
  974POPC   PO413500  17.693  12.198   5.495 -0.0991 -0.0387  0.3108
  974POPC   GL113501  17.778  12.136   5.833  0.4638  0.1909 -0.0578
  974POPC   GL213502  17.815  12.433   5.914 -0.0131 -0.0978 -0.2922
  974POPC   C1A13503  17.655  11.920   6.129 -0.2335  0.3315  0.2564
  974POPC   D2A13504  17.739  11.859   6.492 -0.2254 -0.1696 -0.0974
  974POPC   C3A13505  17.590  11.901   6.893  0.1681 -0.0337 -0.0936
  974POPC   C4A13506  17.560  11.921   7.314 -0.2296  0.0706 -0.2423
  974POPC   C1B13507  17.947  12.329   6.439 -0.0727 -0.0329  0.1130
  974POPC   C2B13508  17.858  12.313   6.797 -0.2868  0.2011  0.0989
  974POPC   C3B13509  17.964  12.224   7.152 -0.1448  0.0367  0.0421
  974POPC   C4B13510  18.020  12.047   7.456 -0.2549 -0.0767  0.0847
  975POPC   NC313511  14.151  11.570   5.192  0.0519 -0.1884 -0.0941
  975POPC   PO413512  14.344  11.849   5.434 -0.2507 -0.1586 -0.1025
  975POPC   GL113513  14.313  11.712   5.870 -0.1644 -0.1264 -0.4187
  975POPC   GL213514  14.103  11.949   6.057 -0.0565 -0.1639 -0.1614
  975POPC   C1A13515  14.229  11.410   6.249 -0.0112 -0.4596 -0.0801
  975POPC   D2A13516  13.993  11.104   6.520  0.0089 -0.0840 -0.2060
  975POPC   C3A13517  14.042  11.093   6.989  0.0430  0.0030  0.1955
  975POPC   C4A13518  14.253  10.882   7.363  0.0556 -0.0183  0.0744
  975POPC   C1B13519  14.297  11.878   6.445 -0.2579 -0.2683 -0.1249
  975POPC   C2B13520  14.211  11.952   6.814  0.0237  0.1894 -0.4140
  975POPC   C3B13521  14.448  11.933   7.141  0.0189 -0.1389 -0.2934
  975POPC   C4B13522  14.480  11.836   7.585 -0.1937  0.0217 -0.4838
  976POPC   NC313523   8.521  16.742   5.784  0.1526  0.0991  0.1419
  976POPC   PO413524   8.108  16.922   5.862 -0.2610  0.1107  0.3303
  976POPC   GL113525   8.213  16.680   6.136  0.2325  0.1901  0.1814
  976POPC   GL213526   8.520  16.693   6.294 -0.1056  0.3639 -0.0222
  976POPC   C1A13527   8.119  16.279   6.348 -0.1707 -0.4641  0.1379
  976POPC   D2A13528   8.174  15.823   6.437  0.0586  0.0987 -0.4662
  976POPC   C3A13529   8.254  15.545   6.781 -0.1397 -0.0203  0.0142
  976POPC   C4A13530   8.099  15.659   7.287  0.0495  0.0155  0.1396
  976POPC   C1B13531   8.679  16.444   6.687 -0.3202  0.0944  0.0922
  976POPC   C2B13532   8.722  16.518   7.204  0.2124 -0.2350  0.1478
  976POPC   C3B13533   8.924  16.387   7.541 -0.0339 -0.1520 -0.0187
  976POPC   C4B13534   9.109  16.650   7.908 -0.0925  0.1601  0.1094
  977POPC   NC313535  17.074  16.897   5.719 -0.0365 -0.0637  0.1947
  977POPC   PO413536  17.080  17.341   5.594 -0.0163 -0.2474  0.0052
  977POPC   GL113537  17.090  17.463   6.011 -0.0953  0.0945  0.2153
  977POPC   GL213538  17.122  17.216   6.083 -0.1119 -0.0728 -0.2536
  977POPC   C1A13539  17.350  17.633   6.307  0.0404  0.0878 -0.0330
  977POPC   D2A13540  17.572  18.001   6.407 -0.0659  0.1366 -0.1402
  977POPC   C3A13541  17.508  18.077   6.854 -0.0725 -0.0557 -0.0815
  977POPC   C4A13542  17.617  18.321   7.121 -0.1378 -0.4834  0.0834
  977POPC   C1B13543  17.251  17.159   6.465  0.2073 -0.0284  0.1471
  977POPC   C2B13544  17.042  17.026   6.836 -0.2304  0.1355 -0.1707
  977POPC   C3B13545  16.891  17.012   7.220 -0.1363  0.0791 -0.0579
  977POPC   C4B13546  16.923  17.144   7.614 -0.3538  0.1732  0.5161
  978POPC   NC313547   0.872   2.007   5.623  0.0669 -0.3670 -0.4133
  978POPC   PO413548   0.927   1.623   5.700  0.1791  0.1360 -0.1580
  978POPC   GL113549   0.720   1.613   6.073 -0.0139 -0.0600 -0.2181
  978POPC   GL213550   0.572   1.877   6.064  0.0866  0.0220  0.0464
  978POPC   C1A13551   0.743   1.533   6.563  0.2971 -0.0764  0.0542
  978POPC   D2A13552   0.593   1.710   6.974 -0.0092  0.0653 -0.1281
  978POPC   C3A13553   0.340   1.547   7.290  0.0013  0.1207 -0.0279
  978POPC   C4A13554   0.508   1.240   7.665 -0.2041  0.1419 -0.0556
  978POPC   C1B13555   0.680   2.091   6.412 -0.1839 -0.0172 -0.0668
  978POPC   C2B13556   0.673   2.214   6.816  0.0539 -0.1643  0.2977
  978POPC   C3B13557   0.682   2.150   7.210  0.0131 -0.0091 -0.1811
  978POPC   C4B13558   0.713   2.342   7.550 -0.2051 -0.0444 -0.2715
  979POPC   NC313559  14.011   8.789   5.147 -0.0393  0.1596  0.0869
  979POPC   PO413560  13.849   8.678   5.400 -0.1837  0.3447 -0.1293
  979POPC   GL113561  13.878   8.547   5.890 -0.2465  0.1576  0.1807
  979POPC   GL213562  13.689   8.497   6.143  0.0655 -0.0746 -0.0125
  979POPC   C1A13563  14.190   8.544   6.161 -0.1746 -0.1650  0.0086
  979POPC   D2A13564  14.258   8.478   6.706  0.0412  0.1349  0.2628
  979POPC   C3A13565  14.531   8.422   7.045 -0.3360  0.0780  0.0442
  979POPC   C4A13566  14.801   8.276   7.343  0.3042  0.1740 -0.2108
  979POPC   C1B13567  13.918   8.243   6.470  0.0545 -0.0115  0.1128
  979POPC   C2B13568  14.089   8.030   6.914 -0.0351  0.1430 -0.0798
  979POPC   C3B13569  14.263   7.962   7.328  0.0394  0.0598  0.0071
  979POPC   C4B13570  14.485   7.719   7.695 -0.2197 -0.1487  0.0349
  980POPC   NC313571  14.317   2.222   5.785 -0.1630  0.1624  0.1454
  980POPC   PO413572  13.871   2.207   5.942  0.2030  0.1183  0.1747
  980POPC   GL113573  13.748   2.337   6.327 -0.1107  0.3781 -0.2685
  980POPC   GL213574  13.539   2.583   6.296 -0.0130 -0.1262 -0.2515
  980POPC   C1A13575  13.688   2.142   6.715 -0.4061 -0.2108 -0.0493
  980POPC   D2A13576  13.667   1.833   6.912  0.1575 -0.2414 -0.1054
  980POPC   C3A13577  13.332   1.785   7.206  0.3701 -0.0260  0.1036
  980POPC   C4A13578  13.363   1.689   7.602 -0.0800 -0.2627  0.2130
  980POPC   C1B13579  13.585   2.627   6.728 -0.0409 -0.0633  0.2212
  980POPC   C2B13580  13.533   2.665   7.180  0.0123 -0.0256  0.0428
  980POPC   C3B13581  13.415   2.832   7.630  0.1000  0.0279 -0.2160
  980POPC   C4B13582  13.040   3.058   7.840  0.0977 -0.2737  0.2653
  981POPC   NC313583   4.451   9.663   5.400  0.3267 -0.0401  0.0487
  981POPC   PO413584   4.545  10.031   5.249  0.0975 -0.2771  0.1468
  981POPC   GL113585   4.420  10.309   5.638 -0.1897  0.0806 -0.0130
  981POPC   GL213586   4.696  10.362   5.770  0.4213  0.4781  0.1375
  981POPC   C1A13587   4.077  10.585   5.861 -0.2265 -0.0603 -0.2262
  981POPC   D2A13588   3.616  10.731   6.018 -0.1385  0.2040  0.1432
  981POPC   C3A13589   3.600  10.694   6.549 -0.2442  0.2051 -0.2612
  981POPC   C4A13590   3.504  10.667   6.907 -0.1293 -0.0309 -0.0082
  981POPC   C1B13591   4.564  10.741   6.114 -0.3278  0.1448  0.0512
  981POPC   C2B13592   4.528  10.932   6.536 -0.1539 -0.1302  0.1955
  981POPC   C3B13593   4.348  10.963   6.928  0.2614  0.2299 -0.1823
  981POPC   C4B13594   4.225  10.979   7.267  0.1463 -0.4344  0.0301
  982YOPC   NC313595   9.361   8.326   5.388 -0.3044  0.0020  0.0563
  982YOPC   PO413596   8.923   8.344   5.247 -0.3669  0.2664  0.2135
  982YOPC   GL113597   8.827   8.736   5.503  0.4453  0.0137  0.1391
  982YOPC   GL213598   8.656   9.017   5.574  0.1404 -0.0405  0.1336
  982YOPC   C1A13599   8.698   8.788   5.968 -0.2019  0.2215 -0.0818
  982YOPC   D2A13600   8.629   8.664   6.388  0.2940 -0.3243 -0.0740
  982YOPC   C3A13601   8.842   8.677   6.803  0.4150  0.0795  0.3900
  982YOPC   C4A13602   8.736   8.663   7.250 -0.1993  0.0683 -0.0836
  982YOPC   C1B13603   8.516   9.415   5.856 -0.0720  0.0922  0.1128
  982YOPC   C2B13604   8.627   9.602   6.177  0.2036 -0.3115 -0.3730
  982YOPC   D3B13605   8.348   9.787   6.499  0.0620  0.1812 -0.0321
  982YOPC   C4B13606   7.969  10.163   6.499  0.1030 -0.0113  0.0302
  983YOPC   NC313607   6.929   6.469   5.790  0.2393 -0.3128 -0.3667
  983YOPC   PO413608   6.925   6.038   5.755  0.1871 -0.3063  0.2248
  983YOPC   GL113609   7.264   6.076   6.087 -0.0655 -0.1267 -0.0832
  983YOPC   GL213610   7.490   5.810   6.123  0.1648  0.3654  0.3432
  983YOPC   C1A13611   7.272   5.992   6.479  0.0789 -0.2476  0.0959
  983YOPC   D2A13612   7.094   5.888   6.840 -0.0764 -0.1256  0.1462
  983YOPC   C3A13613   7.212   5.521   7.203  0.0883 -0.0320 -0.0380
  983YOPC   C4A13614   7.171   5.278   7.605 -0.1396 -0.1936  0.0197
  983YOPC   C1B13615   7.288   5.357   6.286  0.1176 -0.2024  0.2466
  983YOPC   C2B13616   7.196   5.351   6.702 -0.2716  0.1378 -0.2413
  983YOPC   D3B13617   7.185   5.082   7.060  0.0838 -0.2656  0.0515
  983YOPC   C4B13618   6.914   4.815   7.337  0.3324  0.2958  0.1436
  984YOPC   NC313619  17.619   0.044   5.640  0.2197  0.0927 -0.0532
  984YOPC   PO413620  17.527   0.441   5.482  0.1869  0.1032 -0.0556
  984YOPC   GL113621  17.582   0.487   5.899  0.3134 -0.4536 -0.2385
  984YOPC   GL213622  17.278   0.537   6.120 -0.1455 -0.1447 -0.1156
  984YOPC   C1A13623  17.806   0.530   6.218  0.1047 -0.2011  0.1606
  984YOPC   D2A13624  18.230   0.636   6.497 -0.2010 -0.0751 -0.0715
  984YOPC   C3A13625  18.418   0.311   6.861 -0.0548  0.0762 -0.0560
  984YOPC   C4A13626  18.340   0.223   7.303  0.2681  0.2123 -0.0154
  984YOPC   C1B13627  17.199   0.486   6.547  0.0700 -0.2070 -0.0895
  984YOPC   C2B13628  17.456   0.106   6.918 -0.1272  0.0245  0.0862
  984YOPC   D3B13629  17.375   0.040   7.388 -0.1189  0.0027  0.3256
  984YOPC   C4B13630  17.599   0.078   7.804 -0.0906 -0.1517  0.1785
  985YOPC   NC313631   5.903   7.210   5.524  0.2369  0.0144  0.1252
  985YOPC   PO413632   5.550   6.902   5.612 -0.1893  0.2880  0.3302
  985YOPC   GL113633   5.269   6.766   5.990  0.2585  0.4529 -0.1835
  985YOPC   GL213634   5.494   6.843   6.260 -0.1944  0.0711  0.1271
  985YOPC   C1A13635   5.009   6.609   6.216 -0.0447  0.1433  0.0782
  985YOPC   D2A13636   4.791   6.569   6.667  0.1159  0.2907 -0.3834
  985YOPC   C3A13637   5.002   6.553   7.049 -0.0080  0.3416 -0.2541
  985YOPC   C4A13638   5.226   6.570   7.518  0.1754 -0.0334 -0.1464
  985YOPC   C1B13639   5.320   6.811   6.602  0.1591 -0.0087 -0.0430
  985YOPC   C2B13640   5.455   6.784   6.987  0.0900  0.0758  0.1217
  985YOPC   D3B13641   5.169   7.095   7.220  0.1393 -0.1215  0.1533
  985YOPC   C4B13642   4.841   7.354   7.387 -0.0238  0.0801 -0.1176
  986YOPC   NC313643  17.050  13.212   5.296  0.0272 -0.2542  0.0786
  986YOPC   PO413644  16.958  12.781   5.232  0.1743  0.1980  0.3854
  986YOPC   GL113645  16.850  12.835   5.668 -0.0623  0.0939  0.0093
  986YOPC   GL213646  16.752  13.159   5.711  0.0797 -0.0769  0.1521
  986YOPC   C1A13647  16.952  12.777   6.105  0.0825  0.0995 -0.2335
  986YOPC   D2A13648  17.081  12.886   6.534  0.1744 -0.3422  0.1179
  986YOPC   C3A13649  17.009  12.812   6.917  0.0686 -0.1854  0.2203
  986YOPC   C4A13650  17.127  12.760   7.350  0.0233 -0.2172  0.0571
  986YOPC   C1B13651  16.931  13.309   6.042  0.0158 -0.2283  0.2903
  986YOPC   C2B13652  17.031  13.404   6.485 -0.1553  0.2266  0.0369
  986YOPC   D3B13653  17.106  13.747   6.625 -0.0910 -0.0004 -0.1681
  986YOPC   C4B13654  17.159  14.049   7.009 -0.2702 -0.1413  0.0181
  987YOPC   NC313655  10.893   1.716   5.728 -0.2176 -0.0788  0.2705
  987YOPC   PO413656  11.101   1.600   5.990  0.0445  0.2547  0.0746
  987YOPC   GL113657  10.968   1.658   6.419  0.1360  0.0467 -0.0625
  987YOPC   GL213658  10.950   1.979   6.521 -0.1297  0.2709  0.1435
  987YOPC   C1A13659  10.537   1.630   6.669  0.1829  0.1480  0.2503
  987YOPC   D2A13660  10.285   1.537   6.980 -0.0725  0.0577 -0.0104
  987YOPC   C3A13661  10.500   1.434   7.440  0.1376  0.0707 -0.1433
  987YOPC   C4A13662  10.599   1.373   7.962  0.0536  0.2564  0.0058
  987YOPC   C1B13663  10.995   1.874   6.900  0.1078 -0.1915 -0.1310
  987YOPC   C2B13664  10.899   1.591   7.241 -0.2542 -0.1923  0.1277
  987YOPC   D3B13665  11.029   1.485   7.686 -0.1341  0.0884 -0.0473
  987YOPC   C4B13666  11.110   1.494   8.091  0.4666 -0.2116  0.1102
  988YOPC   NC313667  16.421  12.029   5.582 -0.2568  0.0066  0.2186
  988YOPC   PO413668  16.722  11.760   5.413  0.0721  0.0125 -0.2744
  988YOPC   GL113669  16.793  11.594   5.774 -0.2370 -0.1620 -0.1997
  988YOPC   GL213670  17.003  11.330   5.990  0.1333  0.0629 -0.0693
  988YOPC   C1A13671  17.104  11.763   6.131 -0.1143  0.0619 -0.0292
  988YOPC   D2A13672  17.271  11.755   6.550  0.1298 -0.0937  0.2195
  988YOPC   C3A13673  17.084  11.915   6.967  0.1962  0.2560  0.0826
  988YOPC   C4A13674  17.084  11.650   7.353 -0.2433  0.1778  0.1557
  988YOPC   C1B13675  16.959  11.338   6.348  0.0139  0.0924 -0.0572
  988YOPC   C2B13676  17.057  11.374   6.815  0.0410  0.2247 -0.4287
  988YOPC   D3B13677  16.787  11.140   7.055 -0.4068 -0.2293 -0.0925
  988YOPC   C4B13678  16.799  10.993   7.446 -0.1963  0.1585  0.0521
  989YOPC   NC313679   3.071   5.201   5.157 -0.1393  0.1633  0.4319
  989YOPC   PO413680   2.865   5.552   5.158 -0.0594  0.1538  0.1281
  989YOPC   GL113681   3.074   5.461   5.578 -0.0775  0.4046  0.0464
  989YOPC   GL213682   3.320   5.129   5.599  0.2136  0.3087  0.2920
  989YOPC   C1A13683   3.116   5.638   6.010  0.0275 -0.2118 -0.0503
  989YOPC   D2A13684   2.937   5.867   6.283  0.1114  0.1675  0.1538
  989YOPC   C3A13685   2.980   5.821   6.721  0.0146  0.0199 -0.3766
  989YOPC   C4A13686   3.213   5.919   7.026  0.0381  0.1986  0.1616
  989YOPC   C1B13687   3.316   5.044   6.046 -0.2403 -0.3130 -0.1771
  989YOPC   C2B13688   3.431   5.109   6.482  0.0989  0.0965 -0.2386
  989YOPC   D3B13689   3.129   5.185   6.788  0.0679 -0.0064  0.0988
  989YOPC   C4B13690   2.776   5.109   7.041 -0.0795 -0.0782  0.1301
  990YOPC   NC313691   6.807   5.757   5.357  0.0087  0.0046 -0.0335
  990YOPC   PO413692   6.958   5.329   5.450 -0.4272 -0.0740  0.3594
  990YOPC   GL113693   6.812   5.252   5.810 -0.2637 -0.1344  0.0173
  990YOPC   GL213694   6.875   5.470   5.961 -0.0551  0.2847 -0.4120
  990YOPC   C1A13695   6.762   5.182   6.378  0.0249 -0.1874  0.1789
  990YOPC   D2A13696   6.671   5.082   6.738 -0.1047 -0.0662 -0.0273
  990YOPC   C3A13697   6.791   5.502   6.881  0.0872  0.2617 -0.2320
  990YOPC   C4A13698   6.687   5.806   7.368 -0.1674 -0.0650  0.0009
  990YOPC   C1B13699   6.884   5.637   6.342 -0.5738 -0.1099 -0.1170
  990YOPC   C2B13700   6.629   5.886   6.558 -0.2826  0.0702  0.1959
  990YOPC   D3B13701   6.493   6.054   6.939 -0.1091 -0.0926  0.2797
  990YOPC   C4B13702   6.369   6.467   7.018 -0.0353 -0.1529 -0.0283
  991YOPC   NC313703   6.957  10.185   5.706 -0.2589  0.4085  0.1529
  991YOPC   PO413704   7.339  10.369   5.854 -0.0582  0.2776  0.0785
  991YOPC   GL113705   7.247  10.447   6.325  0.2922 -0.2769  0.0564
  991YOPC   GL213706   7.566  10.502   6.396 -0.0592 -0.1847  0.1937
  991YOPC   C1A13707   7.130  10.417   6.709  0.1226  0.2692 -0.2514
  991YOPC   D2A13708   6.857  10.502   7.138 -0.0616  0.1217  0.0313
  991YOPC   C3A13709   6.997  10.408   7.545  0.1287  0.0306 -0.0458
  991YOPC   C4A13710   6.929  10.229   8.008 -0.1613 -0.1568 -0.3065
  991YOPC   C1B13711   7.731  10.506   6.779 -0.1347  0.1855 -0.2435
  991YOPC   C2B13712   7.872  10.313   7.146 -0.0329  0.0756 -0.2834
  991YOPC   D3B13713   8.260   9.998   7.426 -0.0363 -0.2024 -0.0095
  991YOPC   C4B13714   8.490   9.942   7.725  0.3219  0.0336  0.1339
  992YOPC   NC313715   5.312  16.662   5.442 -0.1185  0.0819 -0.0897
  992YOPC   PO413716   5.199  16.173   5.459  0.3914  0.3260  0.1606
  992YOPC   GL113717   5.310  16.292   5.859  0.2767  0.3318 -0.1685
  992YOPC   GL213718   5.553  16.201   5.990  0.1362 -0.0452 -0.1223
  992YOPC   C1A13719   5.136  16.150   6.246 -0.1512 -0.0747  0.1094
  992YOPC   D2A13720   5.111  16.152   6.714  0.0015  0.3016  0.1376
  992YOPC   C3A13721   5.112  15.731   6.939  0.0064 -0.2271  0.1070
  992YOPC   C4A13722   5.193  15.514   7.262  0.0256  0.2917 -0.0980
  992YOPC   C1B13723   5.520  15.702   6.153 -0.0290 -0.0390 -0.2882
  992YOPC   C2B13724   5.340  15.757   6.523 -0.1206  0.0358 -0.0882
  992YOPC   D3B13725   5.525  15.994   6.742 -0.2622 -0.0825 -0.0313
  992YOPC   C4B13726   5.722  16.188   7.137  0.1730 -0.2300  0.1600
  993YOPC   NC313727   3.228   4.256   5.229 -0.0718 -0.0777  0.0019
  993YOPC   PO413728   3.380   4.341   5.514 -0.0166 -0.1008  0.4178
  993YOPC   GL113729   3.267   4.184   5.979  0.2362  0.3035 -0.0448
  993YOPC   GL213730   2.877   4.194   5.995  0.1975  0.3027  0.2030
  993YOPC   C1A13731   3.131   4.246   6.413  0.1710 -0.5389  0.0571
  993YOPC   D2A13732   3.176   4.223   6.854  0.2646  0.0180  0.0703
  993YOPC   C3A13733   3.197   4.514   7.074  0.0579 -0.0103 -0.4172
  993YOPC   C4A13734   3.240   4.958   7.247  0.0773 -0.1196 -0.2829
  993YOPC   C1B13735   2.744   3.802   5.969 -0.1571 -0.1500  0.3818
  993YOPC   C2B13736   2.517   3.436   5.860 -0.0934 -0.2131  0.0222
  993YOPC   D3B13737   2.500   3.306   6.277  0.0965 -0.0279  0.1781
  993YOPC   C4B13738   2.219   3.072   6.398 -0.0676 -0.0811  0.0128
  994YOPC   NC313739  15.467   5.727   4.680  0.0208 -0.0690  0.2612
  994YOPC   PO413740  15.753   5.468   4.987  0.2404  0.0579 -0.3817
  994YOPC   GL113741  15.575   5.347   5.449  0.0232  0.0850  0.1139
  994YOPC   GL213742  15.902   5.229   5.634  0.1916 -0.0057 -0.0574
  994YOPC   C1A13743  15.658   5.575   5.967 -0.3007 -0.1997  0.0971
  994YOPC   D2A13744  15.994   5.367   6.155  0.1007  0.1196  0.0705
  994YOPC   C3A13745  15.990   5.474   6.610 -0.1287  0.0386  0.1817
  994YOPC   C4A13746  15.957   5.426   7.036 -0.2005 -0.0082 -0.0157
  994YOPC   C1B13747  15.648   4.973   5.877  0.0721  0.2905  0.1744
  994YOPC   C2B13748  15.333   5.167   6.016  0.0515  0.0722  0.4923
  994YOPC   D3B13749  15.206   4.850   6.347  0.0019 -0.0865  0.0776
  994YOPC   C4B13750  14.856   4.748   6.714  0.2054  0.1137 -0.2555
  995YOPC   NC313751  17.808   2.184   5.460  0.1714  0.0984  0.1582
  995YOPC   PO413752  17.687   2.518   5.238 -0.0230 -0.0268 -0.0838
  995YOPC   GL113753  17.670   2.834   5.648  0.1008 -0.2858 -0.0557
  995YOPC   GL213754  17.902   3.142   5.615 -0.1915 -0.3691  0.1761
  995YOPC   C1A13755  17.503   3.020   6.039 -0.2362 -0.4263  0.0036
  995YOPC   D2A13756  17.300   2.800   6.325  0.0487  0.2555 -0.2882
  995YOPC   C3A13757  17.338   2.818   6.848 -0.0064 -0.1484  0.1099
  995YOPC   C4A13758  17.610   2.859   7.284  0.0400 -0.2143 -0.1576
  995YOPC   C1B13759  18.055   3.159   6.072 -0.0876  0.2254 -0.0145
  995YOPC   C2B13760  18.056   3.117   6.481 -0.0909 -0.0238 -0.1279
  995YOPC   D3B13761  17.696   3.111   6.749  0.0246 -0.2858 -0.0495
  995YOPC   C4B13762  17.416   3.339   7.011  0.0679  0.2506 -0.0087
  996YOPC   NC313763   9.404  11.980   5.443  0.0029 -0.0938  0.1580
  996YOPC   PO413764   9.765  12.337   5.404 -0.0628  0.2227 -0.2559
  996YOPC   GL113765   9.534  12.399   5.771 -0.0113 -0.3261  0.2733
  996YOPC   GL213766   9.541  12.708   5.688  0.0447  0.2421 -0.2860
  996YOPC   C1A13767   9.492  12.248   6.176  0.1503 -0.0782  0.3468
  996YOPC   D2A13768   9.241  11.977   6.501  0.2686  0.0105  0.0089
  996YOPC   C3A13769   9.371  12.132   6.852  0.0541 -0.2082  0.0269
  996YOPC   C4A13770   9.151  12.315   7.262 -0.1277 -0.2235 -0.0683
  996YOPC   C1B13771   9.547  12.774   6.160  0.0406 -0.2058 -0.0263
  996YOPC   C2B13772   9.448  12.637   6.504  0.2339  0.4349 -0.0926
  996YOPC   D3B13773   9.349  12.612   6.982 -0.1462  0.1910 -0.0963
  996YOPC   C4B13774   9.539  12.766   7.386 -0.2126 -0.1704 -0.1183
  997YOPC   NC313775  14.843  13.427   5.097 -0.0512 -0.3435 -0.0185
  997YOPC   PO413776  14.991  13.221   5.514  0.3092  0.0508 -0.0898
  997YOPC   GL113777  15.253  13.373   5.884  0.3593 -0.1933  0.1499
  997YOPC   GL213778  15.521  13.172   5.890  0.2307  0.0018 -0.2970
  997YOPC   C1A13779  15.370  13.521   6.395 -0.0168  0.1475 -0.0054
  997YOPC   D2A13780  15.729  13.491   6.761  0.0327  0.0973  0.0289
  997YOPC   C3A13781  15.783  13.626   7.179 -0.1152  0.3030 -0.3636
  997YOPC   C4A13782  15.736  13.359   7.509  0.2212  0.2201 -0.2951
  997YOPC   C1B13783  15.331  13.043   6.317  0.0082  0.0224  0.1209
  997YOPC   C2B13784  15.112  13.267   6.709  0.2795 -0.1790 -0.1596
  997YOPC   D3B13785  15.296  13.527   6.966  0.0368  0.2771 -0.1115
  997YOPC   C4B13786  15.244  13.657   7.459 -0.2214  0.1117  0.0946
  998YOPC   NC313787  15.317   1.927   5.534 -0.3041 -0.0658 -0.3369
  998YOPC   PO413788  14.989   1.780   5.760  0.1539  0.2668 -0.0674
  998YOPC   GL113789  15.094   2.145   6.002  0.1415  0.2829 -0.1065
  998YOPC   GL213790  14.806   2.273   6.047 -0.2396  0.0237  0.1691
  998YOPC   C1A13791  15.208   2.376   6.422  0.0904 -0.2167 -0.2630
  998YOPC   D2A13792  15.439   2.688   6.618 -0.1547  0.0735  0.1630
  998YOPC   C3A13793  15.691   2.536   6.937 -0.2987 -0.0359 -0.3145
  998YOPC   C4A13794  15.937   2.662   7.165  0.0172  0.1880  0.0391
  998YOPC   C1B13795  14.812   2.035   6.392 -0.1871  0.1826  0.1377
  998YOPC   C2B13796  14.859   2.106   6.790  0.0248 -0.1809 -0.1711
  998YOPC   D3B13797  15.170   2.501   6.932  0.3942  0.0760  0.0474
  998YOPC   C4B13798  15.273   2.674   7.313 -0.1462 -0.3810  0.0564
  999YOPC   NC313799   9.567  11.081   5.549 -0.0464  0.0724  0.1848
  999YOPC   PO413800   9.958  11.192   5.667  0.0947 -0.1387  0.0586
  999YOPC   GL113801   9.908  11.364   6.171 -0.1800 -0.3226  0.1564
  999YOPC   GL213802   9.711  11.108   6.323 -0.2339 -0.1806  0.3282
  999YOPC   C1A13803  10.135  11.379   6.515 -0.3144  0.2357  0.1013
  999YOPC   D2A13804  10.131  11.333   6.941 -0.2777 -0.0837  0.2423
  999YOPC   C3A13805  10.166  11.502   7.338  0.4668  0.3455 -0.2742
  999YOPC   C4A13806   9.882  11.433   7.715  0.0665 -0.0459 -0.0747
  999YOPC   C1B13807   9.710  11.183   6.797 -0.0381 -0.1776  0.3415
  999YOPC   C2B13808   9.690  11.478   7.185  0.0430 -0.3491  0.0463
  999YOPC   D3B13809   9.595  11.873   7.246  0.1760 -0.1074 -0.0069
  999YOPC   C4B13810   9.632  12.254   7.492 -0.0995  0.0152 -0.4465
 1000YOPC   NC313811  15.655   7.907   4.949 -0.1653  0.1698  0.1330
 1000YOPC   PO413812  15.957   7.615   4.882 -0.5159  0.1436  0.1830
 1000YOPC   GL113813  16.095   7.874   5.126  0.1419  0.1156 -0.0599
 1000YOPC   GL213814  16.200   7.794   5.392  0.0377 -0.1593  0.1950
 1000YOPC   C1A13815  15.911   8.134   5.489 -0.2128 -0.0422 -0.1304
 1000YOPC   D2A13816  15.738   7.978   5.985  0.0521  0.0042 -0.1860
 1000YOPC   C3A13817  15.639   8.052   6.373  0.1345  0.4402  0.2096
 1000YOPC   C4A13818  15.504   7.915   6.764 -0.0640 -0.2373  0.1821
 1000YOPC   C1B13819  16.209   7.915   5.798  0.1381  0.1330  0.0476
 1000YOPC   C2B13820  16.132   7.874   6.271  0.1181 -0.0093 -0.0078
 1000YOPC   D3B13821  16.108   7.436   6.352 -0.2201 -0.3164  0.0706
 1000YOPC   C4B13822  15.769   7.149   6.610  0.0319  0.1273  0.0644
 1001YOPC   NC313823  16.272   0.388   5.136 -0.1200  0.0493 -0.2255
 1001YOPC   PO413824  16.460   0.612   5.451 -0.1291 -0.1439 -0.0776
 1001YOPC   GL113825  16.602   0.602   5.921  0.2123  0.0910 -0.0810
 1001YOPC   GL213826  16.694   0.291   5.968  0.0706  0.2316 -0.1470
 1001YOPC   C1A13827  16.707   0.611   6.438  0.2755  0.0994 -0.1747
 1001YOPC   D2A13828  16.437   0.537   6.834 -0.2304  0.0202 -0.1116
 1001YOPC   C3A13829  16.755   0.680   7.281  0.3086  0.0814  0.0101
 1001YOPC   C4A13830  17.081   0.724   7.539 -0.0428 -0.2420  0.0561
 1001YOPC   C1B13831  16.911   0.117   6.392  0.1776 -0.1083  0.0289
 1001YOPC   C2B13832  16.832   0.141   6.753  0.1369  0.0176  0.0158
 1001YOPC   D3B13833  17.029   0.328   7.043  0.1757  0.1213 -0.1253
 1001YOPC   C4B13834  17.348   0.567   7.017 -0.1551 -0.3370  0.3110
 1002YOPC   NC313835  18.437  17.474   5.461  0.0853  0.1096 -0.1310
 1002YOPC   PO413836  18.354  17.935   5.586 -0.1783 -0.4860 -0.0199
 1002YOPC   GL113837  18.447  17.709   5.982  0.0429  0.1342 -0.0411
 1002YOPC   GL213838  18.271  17.461   6.083  0.1117  0.1310  0.2566
 1002YOPC   C1A13839  18.661  17.501   6.410 -0.0545 -0.2503  0.2455
 1002YOPC   D2A13840  18.741  17.305   6.759 -0.1019 -0.3187 -0.1943
 1002YOPC   C3A13841  18.549  17.403   7.056  0.0684  0.0042 -0.0318
 1002YOPC   C4A13842  18.230  17.406   7.465  0.1131 -0.4763  0.0573
 1002YOPC   C1B13843  17.899  17.511   6.317  0.3171  0.1642 -0.2093
 1002YOPC   C2B13844  17.735  17.637   6.712  0.2823  0.0294 -0.0519
 1002YOPC   D3B13845  17.338  17.513   6.794 -0.0939  0.1373  0.2247
 1002YOPC   C4B13846  17.209  17.372   7.214  0.2858 -0.1669 -0.2570
 1003YOPC   NC313847  18.134  14.567   5.546 -0.0521 -0.0271  0.0176
 1003YOPC   PO413848  18.302  14.971   5.485 -0.1173 -0.3145  0.0792
 1003YOPC   GL113849  18.307  14.934   5.978 -0.1436 -0.0835 -0.0371
 1003YOPC   GL213850  18.551  14.989   5.981  0.1774 -0.1885  0.1558
 1003YOPC   C1A13851  18.226  15.058   6.422  0.1870 -0.1007 -0.3783
 1003YOPC   D2A13852  18.403  15.032   6.735 -0.0732  0.1377  0.1315
 1003YOPC   C3A13853  18.082  15.143   7.033  0.0161 -0.2297  0.3202
 1003YOPC   C4A13854  17.974  14.942   7.402  0.0725 -0.0172 -0.0981
 1003YOPC   C1B13855  18.727  14.949   6.353 -0.0566 -0.1412 -0.1616
 1003YOPC   C2B13856  18.877  14.849   6.684 -0.1154 -0.5816  0.0668
 1003YOPC   D3B13857  18.685  14.839   7.082 -0.0372 -0.2738 -0.2008
 1003YOPC   C4B13858  18.511  14.835   7.436  0.0548  0.0602  0.2086
 1004YOPC   NC313859   1.929   5.692   4.696 -0.1395 -0.1604 -0.0529
 1004YOPC   PO413860   1.840   5.838   5.085 -0.2305  0.0232  0.1724
 1004YOPC   GL113861   2.085   5.830   5.469  0.4101  0.1983  0.0851
 1004YOPC   GL213862   1.923   5.583   5.556  0.0298  0.0499 -0.1511
 1004YOPC   C1A13863   2.052   6.083   5.854  0.0888  0.0839 -0.1810
 1004YOPC   D2A13864   2.057   6.328   6.218 -0.0117 -0.0993  0.0890
 1004YOPC   C3A13865   2.053   6.191   6.641  0.5170  0.0669 -0.0899
 1004YOPC   C4A13866   2.219   6.410   6.947 -0.2096 -0.2740 -0.2247
 1004YOPC   C1B13867   1.903   5.359   5.924 -0.0760 -0.1450  0.1764
 1004YOPC   C2B13868   2.063   5.301   6.364  0.1191 -0.1128  0.1563
 1004YOPC   D3B13869   2.421   4.983   6.386  0.1418  0.1752 -0.3619
 1004YOPC   C4B13870   2.702   4.872   6.608 -0.0021  0.0364  0.4265
 1005YOPC   NC313871  12.515   2.186   6.124 -0.0232  0.0360  0.0165
 1005YOPC   PO413872  12.999   2.261   6.152 -0.2656  0.0181  0.1046
 1005YOPC   GL113873  13.271   2.226   6.514  0.1011  0.4318 -0.1170
 1005YOPC   GL213874  13.189   1.937   6.605  0.0438 -0.0807 -0.0206
 1005YOPC   C1A13875  13.250   2.252   6.980  0.0248 -0.1323  0.2458
 1005YOPC   D2A13876  13.284   2.304   7.378 -0.0792 -0.0425  0.2750
 1005YOPC   C3A13877  13.535   2.154   7.574  0.2615  0.0667  0.0383
 1005YOPC   C4A13878  13.810   2.119   7.739 -0.2792  0.0337 -0.4723
 1005YOPC   C1B13879  12.805   1.961   6.856  0.1581  0.0807 -0.5914
 1005YOPC   C2B13880  12.629   2.065   7.155  0.1277  0.1643  0.0770
 1005YOPC   D3B13881  12.922   1.929   7.497  0.2965  0.1683 -0.1996
 1005YOPC   C4B13882  13.041   2.016   7.873 -0.0921  0.2513 -0.1760
 1006YOPC   NC313883   5.734  10.146   5.267  0.1042  0.1317  0.2094
 1006YOPC   PO413884   5.514   9.851   5.501  0.0351 -0.2367 -0.0231
 1006YOPC   GL113885   5.643   9.863   5.919 -0.0405  0.1692 -0.0420
 1006YOPC   GL213886   5.614   9.692   6.143  0.0774 -0.0566  0.1858
 1006YOPC   C1A13887   5.802  10.169   6.149 -0.0315  0.1065 -0.0606
 1006YOPC   D2A13888   5.923  10.603   6.347  0.3899  0.1848 -0.1380
 1006YOPC   C3A13889   5.996  10.436   6.677  0.3032  0.2124 -0.1704
 1006YOPC   C4A13890   5.948  10.116   6.915  0.0818 -0.1631  0.3236
 1006YOPC   C1B13891   5.592   9.843   6.508  0.0003  0.0576 -0.0993
 1006YOPC   C2B13892   5.460   9.829   6.982  0.0274 -0.2339 -0.0098
 1006YOPC   D3B13893   5.717   9.856   7.302  0.0662  0.1425  0.1793
 1006YOPC   C4B13894   5.800   9.593   7.686 -0.0477  0.2824 -0.2079
 1007YOPC   NC313895   8.409   4.866   5.281  0.0828  0.0291  0.0488
 1007YOPC   PO413896   8.831   4.698   5.567  0.0569  0.0247 -0.1805
 1007YOPC   GL113897   8.667   4.673   5.964  0.2042 -0.2176 -0.2101
 1007YOPC   GL213898   8.447   4.563   6.116  0.2537 -0.0185 -0.1161
 1007YOPC   C1A13899   8.654   4.854   6.434  0.1672 -0.2215  0.1412
 1007YOPC   D2A13900   8.787   5.041   6.722 -0.4119  0.2238  0.0672
 1007YOPC   C3A13901   8.538   5.369   6.890  0.0591  0.1200 -0.0068
 1007YOPC   C4A13902   8.285   5.684   7.222  0.0284 -0.0290 -0.2463
 1007YOPC   C1B13903   8.522   4.375   6.407 -0.1692 -0.2223  0.0911
 1007YOPC   C2B13904   8.443   4.313   6.852 -0.0350  0.0755 -0.0660
 1007YOPC   D3B13905   8.755   4.370   7.039  0.2022 -0.1761  0.4948
 1007YOPC   C4B13906   8.855   4.504   7.452  0.0910 -0.2456  0.0062
 1008YOPC   NC313907   6.850  15.653   5.973 -0.2372 -0.1343  0.3736
 1008YOPC   PO413908   6.708  15.290   6.218 -0.1783  0.0294 -0.4243
 1008YOPC   GL113909   6.885  14.914   6.573 -0.0829 -0.2349 -0.0505
 1008YOPC   GL213910   6.736  14.648   6.368 -0.2470 -0.0856 -0.1241
 1008YOPC   C1A13911   6.860  14.872   7.008 -0.0562 -0.0220 -0.1495
 1008YOPC   D2A13912   6.863  14.606   7.383  0.0293  0.3960  0.0743
 1008YOPC   C3A13913   6.675  14.661   7.851 -0.0905  0.2766 -0.0156
 1008YOPC   C4A13914   6.247  14.628   8.114  0.2500  0.2356  0.0843
 1008YOPC   C1B13915   6.608  14.512   6.740 -0.1828 -0.1989 -0.1053
 1008YOPC   C2B13916   6.725  14.223   7.032  0.0048 -0.1337  0.1664
 1008YOPC   D3B13917   6.636  14.157   7.445  0.3428 -0.0477 -0.0991
 1008YOPC   C4B13918   6.789  14.149   7.855 -0.1558  0.2268 -0.3313
 1009YOPC   NC313919   0.215   7.102   5.128  0.0431 -0.3547 -0.1690
 1009YOPC   PO413920  -0.255   7.295   5.112 -0.0752  0.1031 -0.0470
 1009YOPC   GL113921  -0.147   7.239   5.565  0.0253 -0.0023 -0.0472
 1009YOPC   GL213922  -0.280   6.992   5.810  0.1229  0.1543 -0.0611
 1009YOPC   C1A13923   0.201   7.058   5.850 -0.4700 -0.1308  0.2242
 1009YOPC   D2A13924   0.234   6.924   6.279 -0.2758  0.0436  0.3904
 1009YOPC   C3A13925   0.288   6.682   6.635 -0.2156 -0.0667 -0.0442
 1009YOPC   C4A13926   0.435   6.548   7.003 -0.2534  0.2161 -0.0191
 1009YOPC   C1B13927  -0.206   6.859   6.117 -0.0191  0.2383 -0.0474
 1009YOPC   C2B13928  -0.148   6.883   6.536  0.0108  0.1519 -0.1840
 1009YOPC   D3B13929  -0.267   7.175   6.794 -0.0747  0.1817  0.2518
 1009YOPC   C4B13930  -0.142   7.444   7.219  0.0413  0.1974 -0.3522
 1010YOPC   NC313931   6.063  15.733   5.352  0.0473 -0.2559  0.2633
 1010YOPC   PO413932   5.785  15.483   5.579  0.1326  0.2406 -0.0888
 1010YOPC   GL113933   5.829  15.381   6.008  0.2217 -0.2496  0.1168
 1010YOPC   GL213934   6.049  15.093   6.058 -0.1190 -0.0208  0.0981
 1010YOPC   C1A13935   6.005  15.585   6.361  0.1924 -0.2679 -0.0939
 1010YOPC   D2A13936   6.364  15.491   6.624  0.1658  0.0654 -0.2465
 1010YOPC   C3A13937   6.185  15.461   7.023 -0.0753  0.2244 -0.0952
 1010YOPC   C4A13938   5.959  15.341   7.391 -0.0325  0.1490 -0.1089
 1010YOPC   C1B13939   6.051  15.071   6.480 -0.2271  0.3173 -0.0653
 1010YOPC   C2B13940   6.380  15.053   6.784  0.0935  0.0260  0.3018
 1010YOPC   D3B13941   6.433  15.014   7.228  0.0373 -0.1278  0.2663
 1010YOPC   C4B13942   6.354  15.054   7.671  0.0471 -0.5700 -0.1164
 1011YOPC   NC313943   0.589  10.158   5.332  0.0913 -0.0224 -0.0846
 1011YOPC   PO413944   0.961  10.170   5.561 -0.1294 -0.3707  0.0779
 1011YOPC   GL113945   0.665  10.268   5.909  0.2636 -0.2372  0.0869
 1011YOPC   GL213946   0.342  10.388   5.816  0.2489 -0.2300 -0.3224
 1011YOPC   C1A13947   0.493  10.266   6.291 -0.1210 -0.0725 -0.4234
 1011YOPC   D2A13948   0.193  10.257   6.585 -0.1799  0.0258 -0.0490
 1011YOPC   C3A13949  -0.090  10.478   6.625 -0.0092 -0.2735 -0.2656
 1011YOPC   C4A13950  -0.363  10.787   6.582 -0.0172  0.0219  0.0720
 1011YOPC   C1B13951   0.183  10.681   6.135 -0.1936 -0.0092 -0.1205
 1011YOPC   C2B13952   0.098  11.122   6.371 -0.0007 -0.2983 -0.1198
 1011YOPC   D3B13953  -0.019  11.238   6.671  0.0162  0.1291 -0.0862
 1011YOPC   C4B13954   0.179  11.566   6.946 -0.2728  0.0585 -0.0069
 1012YOPC   NC313955  18.006  15.525   5.454  0.2287  0.0738 -0.1209
 1012YOPC   PO413956  17.595  15.512   5.339  0.0599 -0.1628  0.2601
 1012YOPC   GL113957  17.709  15.214   5.723 -0.0280  0.0281 -0.2081
 1012YOPC   GL213958  17.680  14.849   5.737  0.1651 -0.1938  0.1556
 1012YOPC   C1A13959  17.808  15.208   6.146  0.0165  0.1043 -0.1877
 1012YOPC   D2A13960  17.813  15.297   6.530 -0.0882  0.1263 -0.2287
 1012YOPC   C3A13961  17.761  15.598   6.816  0.1943  0.4683 -0.2965
 1012YOPC   C4A13962  17.568  15.874   7.008 -0.0412  0.1533  0.1888
 1012YOPC   C1B13963  17.894  14.677   6.115  0.2515 -0.0759 -0.4203
 1012YOPC   C2B13964  17.878  14.722   6.541  0.1094 -0.1088  0.0712
 1012YOPC   D3B13965  17.927  14.522   7.010 -0.0680  0.2473  0.0175
 1012YOPC   C4B13966  17.841  14.491   7.499  0.2897  0.3711  0.3564
 1013YOPC   NC313967  14.642   8.091   5.131 -0.1223 -0.1624  0.0962
 1013YOPC   PO413968  14.526   7.892   5.412 -0.0647 -0.0207 -0.4527
 1013YOPC   GL113969  14.418   7.814   5.818 -0.0059 -0.0850 -0.0109
 1013YOPC   GL213970  14.212   8.048   5.965  0.0829 -0.2524 -0.2909
 1013YOPC   C1A13971  14.542   7.639   6.190  0.0300 -0.2852  0.0915
 1013YOPC   D2A13972  14.566   7.568   6.616 -0.0448  0.1632 -0.0891
 1013YOPC   C3A13973  14.814   7.321   6.785  0.0869 -0.2192  0.0083
 1013YOPC   C4A13974  15.060   7.102   7.109  0.1331 -0.1489 -0.0894
 1013YOPC   C1B13975  14.376   8.055   6.385 -0.1196 -0.1470 -0.2926
 1013YOPC   C2B13976  14.587   7.998   6.813  0.0620 -0.0543 -0.2784
 1013YOPC   D3B13977  14.619   7.661   7.129 -0.1631  0.0974 -0.1522
 1013YOPC   C4B13978  14.824   7.349   7.485  0.1951  0.0404 -0.1223
 1014YOPC   NC313979   1.469  10.240   5.152 -0.1823  0.1041  0.0725
 1014YOPC   PO413980   1.514  10.330   5.608 -0.2664  0.0269 -0.2839
 1014YOPC   GL113981   1.275  10.380   5.930  0.1589 -0.4727  0.2322
 1014YOPC   GL213982   1.063  10.521   5.943  0.1316 -0.0770  0.0281
 1014YOPC   C1A13983   0.986  10.175   6.290 -0.2369 -0.0803  0.1170
 1014YOPC   D2A13984   0.822  10.197   6.704 -0.1517 -0.0192 -0.1693
 1014YOPC   C3A13985   0.859  10.576   7.004 -0.1248 -0.0322 -0.1285
 1014YOPC   C4A13986   1.160  10.843   7.329  0.0796  0.2998  0.1696
 1014YOPC   C1B13987   1.008  10.696   6.321 -0.3318  0.1249 -0.1834
 1014YOPC   C2B13988   1.337  10.462   6.539  0.0718 -0.1188 -0.0382
 1014YOPC   D3B13989   1.357  10.482   6.918  0.1938 -0.1973 -0.2762
 1014YOPC   C4B13990   1.117  10.156   7.208 -0.0587 -0.1659  0.1849
 1015YOPC   NC313991   1.122  11.600   5.346 -0.2270 -0.1161  0.2045
 1015YOPC   PO413992   1.250  11.049   5.416 -0.3393  0.0457  0.0528
 1015YOPC   GL113993   1.229  11.302   5.783  0.0839 -0.3565  0.0690
 1015YOPC   GL213994   0.991  11.066   5.961 -0.0135  0.1456 -0.0163
 1015YOPC   C1A13995   1.036  11.617   6.010 -0.0923  0.0615  0.0119
 1015YOPC   D2A13996   1.103  11.808   6.420  0.0894  0.1344 -0.0475
 1015YOPC   C3A13997   1.130  12.169   6.608 -0.2850  0.2170  0.1894
 1015YOPC   C4A13998   0.978  12.553   6.552  0.1186 -0.0451 -0.0716
 1015YOPC   C1B13999   1.050  11.233   6.346 -0.2389  0.0233 -0.2193
 1015YOPC   C2B14000   1.326  11.444   6.682  0.0544  0.2739 -0.2078
 1015YOPC   D3B14001   1.263  11.698   7.011 -0.0793  0.0066 -0.0550
 1015YOPC   C4B14002   1.322  11.902   7.426  0.0910  0.4486  0.0414
 1016YOPC   NC314003   4.969  15.325   5.686  0.0553  0.0946 -0.0958
 1016YOPC   PO414004   4.559  15.569   5.701 -0.1934  0.0517 -0.2142
 1016YOPC   GL114005   4.576  15.483   6.062 -0.2419 -0.3740 -0.0508
 1016YOPC   GL214006   4.806  15.269   6.161  0.0038  0.1909  0.0368
 1016YOPC   C1A14007   4.330  15.477   6.444  0.0634  0.2629 -0.4098
 1016YOPC   D2A14008   4.195  15.171   6.787  0.3743 -0.3128 -0.1336
 1016YOPC   C3A14009   3.813  15.212   6.914 -0.0054  0.0241 -0.0673
 1016YOPC   C4A14010   3.531  15.505   6.779 -0.0559 -0.1203 -0.0636
 1016YOPC   C1B14011   4.478  14.938   6.397  0.0402 -0.0921  0.1835
 1016YOPC   C2B14012   4.208  14.561   6.257  0.1288 -0.2357 -0.2624
 1016YOPC   D3B14013   4.183  14.193   6.508  0.0973  0.1044  0.3252
 1016YOPC   C4B14014   4.237  13.819   6.852 -0.3741 -0.1778  0.0303
 1017YOPC   NC314015   3.073   0.463   5.522  0.0743 -0.4186 -0.0234
 1017YOPC   PO414016   2.831   0.826   5.448  0.2409  0.0246  0.1007
 1017YOPC   GL114017   2.659   0.519   5.804  0.0990 -0.0848 -0.1464
 1017YOPC   GL214018   2.372   0.630   6.045 -0.3028 -0.2973  0.0852
 1017YOPC   C1A14019   2.547   0.139   6.016  0.0351  0.0573  0.1931
 1017YOPC   D2A14020   2.656  -0.255   6.122 -0.1991  0.1972  0.0796
 1017YOPC   C3A14021   3.070  -0.263   6.212 -0.0983 -0.1198 -0.3569
 1017YOPC   C4A14022   3.284  -0.558   6.360 -0.1866  0.1704  0.4330
 1017YOPC   C1B14023   2.364   0.902   6.343 -0.1744  0.1376 -0.0281
 1017YOPC   C2B14024   2.112   1.103   6.736 -0.2091  0.1075 -0.1594
 1017YOPC   D3B14025   2.481   1.089   7.162  0.1234  0.0080 -0.0286
 1017YOPC   C4B14026   2.448   1.147   7.607  0.2425 -0.1204 -0.3353
 1018YOPC   NC314027   8.768   9.161   5.077  0.0587 -0.2065  0.0281
 1018YOPC   PO414028   9.051   9.213   5.407  0.1500 -0.1653 -0.0341
 1018YOPC   GL114029   9.038   9.201   5.929 -0.1854  0.0541 -0.2905
 1018YOPC   GL214030   9.064   9.604   5.834  0.4679 -0.2676  0.0029
 1018YOPC   C1A14031   8.984   8.967   6.388  0.1012 -0.2248  0.2163
 1018YOPC   D2A14032   8.875   9.147   6.945  0.1374 -0.1604  0.5608
 1018YOPC   C3A14033   9.115   8.957   7.372  0.0981 -0.0240 -0.0519
 1018YOPC   C4A14034   9.380   8.838   7.811 -0.2449  0.0317 -0.3040
 1018YOPC   C1B14035   9.109   9.564   6.309 -0.1394 -0.0126 -0.0812
 1018YOPC   C2B14036   8.913   9.604   6.630  0.0441  0.2407  0.0372
 1018YOPC   D3B14037   9.082   9.620   7.014 -0.1530  0.1502 -0.0197
 1018YOPC   C4B14038   9.414   9.658   7.322 -0.5607  0.1004  0.0185
 1019YOPC   NC314039  14.932  15.834   6.020  0.1013 -0.1541 -0.5057
 1019YOPC   PO414040  15.241  15.616   5.996 -0.0109  0.0711  0.0151
 1019YOPC   GL114041  15.090  15.712   6.502 -0.2353  0.1563  0.2376
 1019YOPC   GL214042  14.881  15.521   6.435  0.1898  0.1200 -0.2002
 1019YOPC   C1A14043  14.985  15.682   6.942 -0.1524 -0.0848 -0.0122
 1019YOPC   D2A14044  14.962  15.451   7.292 -0.3635 -0.1434  0.0280
 1019YOPC   C3A14045  15.202  15.317   7.571  0.0590 -0.1715  0.0342
 1019YOPC   C4A14046  15.424  15.056   7.822 -0.0458 -0.0556  0.0334
 1019YOPC   C1B14047  14.692  15.299   6.906 -0.1185 -0.0622  0.0598
 1019YOPC   C2B14048  14.438  15.379   7.129  0.1088 -0.1953  0.0461
 1019YOPC   D3B14049  14.160  15.501   6.941  0.1780  0.3082 -0.0215
 1019YOPC   C4B14050  14.292  15.339   6.519 -0.0960 -0.0987  0.1261
 1020YOPC   NC314051  16.309  15.177   5.599 -0.1147 -0.2355  0.2171
 1020YOPC   PO414052  16.806  15.040   5.565  0.0073 -0.4036 -0.1687
 1020YOPC   GL114053  16.502  14.746   5.867 -0.0864  0.2444  0.2598
 1020YOPC   GL214054  16.763  14.708   5.969  0.2872 -0.0173  0.0421
 1020YOPC   C1A14055  16.154  14.553   6.150  0.1384 -0.0648  0.0862
 1020YOPC   D2A14056  15.977  14.347   6.516  0.0316 -0.1904 -0.0429
 1020YOPC   C3A14057  15.738  14.104   6.221  0.3889  0.2361  0.0294
 1020YOPC   C4A14058  15.640  13.692   6.025 -0.0526 -0.2090 -0.1284
 1020YOPC   C1B14059  16.662  14.627   6.397 -0.1847  0.1286  0.2466
 1020YOPC   C2B14060  16.299  14.565   6.822  0.0862  0.0475 -0.0738
 1020YOPC   D3B14061  16.418  14.381   7.167 -0.1737  0.0425  0.1866
 1020YOPC   C4B14062  16.648  14.197   7.528 -0.3416  0.3223 -0.0008
 1021YOPC   NC314063  15.927   7.120   4.945 -0.1155 -0.0718  0.1610
 1021YOPC   PO414064  16.208   7.156   5.147  0.0869  0.0891 -0.2201
 1021YOPC   GL114065  16.489   7.368   5.356  0.2759  0.2970 -0.0501
 1021YOPC   GL214066  16.789   7.186   5.369 -0.2022 -0.0417  0.0469
 1021YOPC   C1A14067  16.609   7.615   5.628 -0.2763  0.0180  0.2625
 1021YOPC   D2A14068  16.750   7.886   5.870 -0.1224  0.0328 -0.4055
 1021YOPC   C3A14069  16.626   7.803   6.257 -0.0094  0.2520  0.0049
 1021YOPC   C4A14070  16.504   7.605   6.590  0.3691  0.0956  0.0213
 1021YOPC   C1B14071  16.836   7.121   5.753  0.2373  0.0968  0.1506
 1021YOPC   C2B14072  16.532   7.328   6.094 -0.0920 -0.2239  0.1541
 1021YOPC   D3B14073  16.188   7.420   5.787 -0.0977 -0.2661 -0.1597
 1021YOPC   C4B14074  15.761   7.531   5.542 -0.0812  0.2128  0.3885
 1022YOPC   NC314075  13.692  16.047   6.276  0.0407 -0.2596 -0.1008
 1022YOPC   PO414076  13.964  16.154   5.987 -0.0410 -0.0310 -0.1107
 1022YOPC   GL114077  14.133  16.204   6.458 -0.3059  0.2155  0.1953
 1022YOPC   GL214078  14.090  15.926   6.642 -0.1740  0.0623 -0.1690
 1022YOPC   C1A14079  13.949  16.449   6.813  0.2055  0.3673 -0.0921
 1022YOPC   D2A14080  13.876  16.479   7.236  0.1867  0.2114 -0.2890
 1022YOPC   C3A14081  14.154  16.761   7.397 -0.0872  0.4701  0.4367
 1022YOPC   C4A14082  14.155  17.090   7.638  0.0527 -0.1607 -0.0343
 1022YOPC   C1B14083  14.033  16.001   7.084 -0.2380 -0.0713 -0.2430
 1022YOPC   C2B14084  14.149  16.118   7.525 -0.2485 -0.2994 -0.1067
 1022YOPC   D3B14085  13.893  16.425   7.750 -0.0583 -0.2313 -0.0153
 1022YOPC   C4B14086  13.910  16.834   7.973 -0.0406 -0.0678  0.4567
 1023YOPC   NC314087   8.099   8.613   5.136 -0.1827 -0.1423 -0.1439
 1023YOPC   PO414088   8.264   8.890   5.346  0.1476  0.1849 -0.0466
 1023YOPC   GL114089   8.137   8.945   5.728  0.0544 -0.2017 -0.1494
 1023YOPC   GL214090   7.845   8.861   5.936  0.2583  0.0965  0.3811
 1023YOPC   C1A14091   8.234   8.840   6.162  0.1610 -0.0170 -0.1427
 1023YOPC   D2A14092   8.204   8.653   6.568  0.0898 -0.1394 -0.0406
 1023YOPC   C3A14093   8.360   8.908   6.920  0.0239 -0.3474  0.0780
 1023YOPC   C4A14094   8.169   8.762   7.411  0.2518 -0.1368  0.0058
 1023YOPC   C1B14095   7.672   8.619   6.346 -0.0223  0.2147  0.2475
 1023YOPC   C2B14096   7.793   8.352   6.687 -0.1219 -0.1379  0.0390
 1023YOPC   D3B14097   7.909   8.520   7.039 -0.2976 -0.1653  0.1896
 1023YOPC   C4B14098   8.444   8.402   6.965  0.2992 -0.3627 -0.0378
 1024YOPC   NC314099   1.237  17.713   5.338 -0.3034 -0.1379  0.0333
 1024YOPC   PO414100   1.703  17.652   5.539  0.0794  0.1569 -0.1162
 1024YOPC   GL114101   1.391  17.615   5.828  0.1560 -0.1034 -0.1231
 1024YOPC   GL214102   1.476  17.364   6.049  0.2799  0.1133 -0.0632
 1024YOPC   C1A14103   1.048  17.596   6.135  0.1649 -0.2337 -0.0408
 1024YOPC   D2A14104   0.975  17.790   6.464 -0.0613 -0.1154  0.1462
 1024YOPC   C3A14105   1.127  18.147   6.614 -0.0887  0.2825 -0.2067
 1024YOPC   C4A14106   1.352  18.485   6.832  0.0162 -0.3383 -0.0886
 1024YOPC   C1B14107   1.675  17.448   6.444  0.0760  0.1256 -0.0985
 1024YOPC   C2B14108   1.844  17.594   6.852  0.3457  0.3016  0.1037
 1024YOPC   D3B14109   1.652  17.598   7.286  0.1433  0.0318  0.0345
 1024YOPC   C4B14110   1.578  17.727   7.754  0.0704 -0.3795 -0.1146
 1025YOPC   NC314111  10.721  18.556   5.550 -0.1665 -0.2521 -0.0795
 1025YOPC   PO414112  11.081  18.232   5.633 -0.0990  0.1311 -0.0268
 1025YOPC   GL114113  11.281  18.238   6.027  0.0035 -0.0836  0.3146
 1025YOPC   GL214114  11.176  18.051   6.249  0.2134 -0.0216 -0.4905
 1025YOPC   C1A14115  11.304  18.572   6.256 -0.1109  0.1121  0.1979
 1025YOPC   D2A14116  11.258  18.931   6.302 -0.1729 -0.0884 -0.3588
 1025YOPC   C3A14117  11.528  19.040   6.659  0.3876  0.1680 -0.2563
 1025YOPC   C4A14118  11.703  19.144   7.008  0.2874 -0.3118 -0.1688
 1025YOPC   C1B14119  11.370  18.099   6.658 -0.2355  0.4172  0.0669
 1025YOPC   C2B14120  11.527  18.056   7.086 -0.2236  0.1278 -0.3101
 1025YOPC   D3B14121  11.540  18.140   7.496  0.2050 -0.1441  0.1268
 1025YOPC   C4B14122  11.888  17.981   7.840 -0.2606  0.1235  0.0254
 1026YOPC   NC314123   0.008  10.935   5.172  0.3620 -0.3330  0.1690
 1026YOPC   PO414124   0.325  10.971   5.559 -0.2593  0.3363  0.4365
 1026YOPC   GL114125   0.445  11.104   5.912 -0.1272 -0.1654 -0.2350
 1026YOPC   GL214126   0.327  11.382   6.016 -0.0130 -0.1220 -0.2887
 1026YOPC   C1A14127   0.576  11.025   6.330 -0.2537 -0.0750 -0.0278
 1026YOPC   D2A14128   0.536  10.720   6.612 -0.2840 -0.2820  0.0709
 1026YOPC   C3A14129   0.134  10.772   6.946 -0.0431 -0.1446 -0.1973
 1026YOPC   C4A14130   0.042  10.525   7.353  0.2535 -0.1307  0.1394
 1026YOPC   C1B14131   0.592  11.512   6.385 -0.1468  0.1077  0.0274
 1026YOPC   C2B14132   0.688  11.717   6.781 -0.0101  0.0593 -0.1842
 1026YOPC   D3B14133   0.720  11.631   7.084 -0.0094 -0.1560  0.1268
 1026YOPC   C4B14134   0.821  11.792   7.499 -0.0146  0.0760 -0.0096
 1027YOPC   NC314135  14.114  14.784   5.962 -0.3351 -0.0894  0.2379
 1027YOPC   PO414136  13.955  14.217   5.877  0.3778  0.0260  0.3327
 1027YOPC   GL114137  13.819  14.074   6.351  0.3468 -0.1367  0.2108
 1027YOPC   GL214138  13.968  13.755   6.569 -0.2724 -0.0590 -0.0523
 1027YOPC   C1A14139  13.959  14.210   6.711 -0.1995 -0.1307  0.2517
 1027YOPC   D2A14140  14.159  14.190   7.114 -0.1343 -0.0552 -0.1052
 1027YOPC   C3A14141  14.030  14.392   7.425 -0.1908  0.0147  0.0614
 1027YOPC   C4A14142  13.884  14.567   7.737 -0.3132  0.2080  0.0475
 1027YOPC   C1B14143  14.182  13.749   6.910 -0.0498  0.1101 -0.4321
 1027YOPC   C2B14144  14.446  13.707   7.310 -0.2487 -0.2289  0.3841
 1027YOPC   D3B14145  14.864  13.866   7.090 -0.1479  0.0809 -0.1134
 1027YOPC   C4B14146  14.977  13.731   6.587  0.0238  0.2101  0.1313
 1028YOPC   NC314147  12.750   5.414   5.263  0.0314  0.0838 -0.2939
 1028YOPC   PO414148  12.599   5.326   5.716  0.1511  0.1589 -0.1967
 1028YOPC   GL114149  12.928   5.455   6.012 -0.1373 -0.0403 -0.1600
 1028YOPC   GL214150  13.022   5.665   6.016  0.0215  0.1404  0.0042
 1028YOPC   C1A14151  12.853   5.501   6.437  0.0188  0.3468 -0.0635
 1028YOPC   D2A14152  12.854   5.357   6.923 -0.1868 -0.0360 -0.0448
 1028YOPC   C3A14153  12.699   5.319   7.295  0.0002 -0.1448 -0.2653
 1028YOPC   C4A14154  12.879   5.104   7.609 -0.1398  0.1804  0.0295
 1028YOPC   C1B14155  13.128   5.909   6.326  0.0293 -0.0050 -0.0679
 1028YOPC   C2B14156  13.390   5.982   6.796 -0.0591  0.1269 -0.3028
 1028YOPC   D3B14157  13.167   6.332   7.121  0.2929  0.0761 -0.1371
 1028YOPC   C4B14158  12.967   6.640   7.322 -0.0336 -0.1427  0.1042
 1029YOPC   NC314159   3.508   1.217   5.338 -0.0284  0.1359  0.2571
 1029YOPC   PO414160   3.471   1.568   5.507  0.1292 -0.2724  0.1126
 1029YOPC   GL114161   3.347   1.445   5.930  0.1584  0.1415  0.0344
 1029YOPC   GL214162   3.290   1.215   6.121 -0.0155  0.0894  0.0677
 1029YOPC   C1A14163   3.424   1.650   6.346 -0.3064 -0.0279 -0.0323
 1029YOPC   D2A14164   3.373   2.035   6.369  0.1656  0.1059 -0.1582
 1029YOPC   C3A14165   3.366   2.095   6.792 -0.1656 -0.0527 -0.0958
 1029YOPC   C4A14166   3.507   2.474   6.715 -0.1359 -0.5319  0.1125
 1029YOPC   C1B14167   3.594   1.227   6.524  0.4309 -0.2175  0.0197
 1029YOPC   C2B14168   3.785   1.260   6.961 -0.0897  0.0374  0.5172
 1029YOPC   D3B14169   3.456   1.171   7.136 -0.0297  0.1768 -0.0321
 1029YOPC   C4B14170   3.028   0.998   7.010  0.1697 -0.2679 -0.0051
 1030YOPC   NC314171  16.169  16.851   5.636  0.1063  0.0016  0.4082
 1030YOPC   PO414172  16.262  16.427   5.449 -0.0200 -0.1102 -0.0736
 1030YOPC   GL114173  16.210  16.357   5.903 -0.3105  0.1328  0.1203
 1030YOPC   GL214174  16.303  16.567   6.063 -0.0339  0.0794  0.0071
 1030YOPC   C1A14175  15.833  16.414   6.199 -0.0700  0.1648  0.1235
 1030YOPC   D2A14176  15.602  16.665   6.424  0.1826 -0.1431  0.0307
 1030YOPC   C3A14177  15.496  16.629   6.903  0.0398  0.2255 -0.0812
 1030YOPC   C4A14178  15.379  16.464   7.213  0.1379 -0.2144 -0.0306
 1030YOPC   C1B14179  16.371  16.308   6.428 -0.2919 -0.0643 -0.1877
 1030YOPC   C2B14180  16.391  16.117   6.875  0.1036  0.0131 -0.0706
 1030YOPC   D3B14181  16.626  16.122   7.135 -0.3016 -0.1255 -0.1719
 1030YOPC   C4B14182  16.530  16.334   7.472  0.2099 -0.0426 -0.0755
 1031YOPC   NC314183   1.758  10.760   5.421  0.1787  0.2551 -0.3200
 1031YOPC   PO414184   1.798  11.117   5.221 -0.0869  0.1287  0.1260
 1031YOPC   GL114185   1.668  11.432   5.436 -0.4692 -0.0840  0.3361
 1031YOPC   GL214186   1.739  11.315   5.755  0.4357  0.2336 -0.1379
 1031YOPC   C1A14187   1.546  11.767   5.811 -0.3106 -0.1137  0.1053
 1031YOPC   D2A14188   1.512  12.044   6.159 -0.0419  0.0106 -0.0231
 1031YOPC   C3A14189   1.852  12.209   6.418  0.0006 -0.2244 -0.0447
 1031YOPC   C4A14190   2.062  12.365   6.723  0.0147 -0.0816  0.0292
 1031YOPC   C1B14191   2.021  11.231   6.067  0.1289  0.2445 -0.1489
 1031YOPC   C2B14192   2.121  11.208   6.473  0.1843  0.2422  0.0291
 1031YOPC   D3B14193   1.835  11.521   6.769 -0.0632 -0.3990 -0.3938
 1031YOPC   C4B14194   1.626  11.888   6.704  0.1148  0.2484  0.0504
 1032YOPC   NC314195  15.117  11.272   5.054  0.3508  0.0379  0.0210
 1032YOPC   PO414196  15.242  11.626   5.172  0.2379  0.2332 -0.0463
 1032YOPC   GL114197  15.367  11.568   5.568 -0.1690 -0.3776 -0.0904
 1032YOPC   GL214198  15.070  11.392   5.593  0.0286 -0.3919  0.4071
 1032YOPC   C1A14199  15.505  11.732   5.964  0.1068 -0.0623  0.0512
 1032YOPC   D2A14200  15.295  11.891   6.271 -0.0655 -0.1530 -0.1884
 1032YOPC   C3A14201  15.463  11.972   6.687 -0.0502 -0.1232 -0.0454
 1032YOPC   C4A14202  15.387  11.961   7.102  0.0764  0.1501 -0.4439
 1032YOPC   C1B14203  14.832  11.355   6.007  0.1908  0.0898  0.0411
 1032YOPC   C2B14204  14.663  11.604   6.238 -0.1163  0.1436  0.1978
 1032YOPC   D3B14205  14.838  11.769   6.598 -0.0251  0.1025  0.0321
 1032YOPC   C4B14206  15.013  11.676   6.931  0.0030  0.1906  0.2234
 1033YOPC   NC314207   9.889   8.986   5.849  0.2368 -0.1165 -0.0527
 1033YOPC   PO414208  10.192   9.160   5.650  0.0378  0.2835 -0.0884
 1033YOPC   GL114209  10.344   9.168   6.089  0.0987  0.2399 -0.1254
 1033YOPC   GL214210  10.400   9.379   6.247 -0.0216 -0.1425 -0.1584
 1033YOPC   C1A14211  10.575   8.924   6.391  0.1716  0.2328  0.3110
 1033YOPC   D2A14212  10.830   8.905   6.667 -0.2341  0.4483 -0.0944
 1033YOPC   C3A14213  11.044   9.077   7.050 -0.0725  0.1439 -0.1544
 1033YOPC   C4A14214  11.369   9.114   7.340 -0.3349 -0.2188  0.2269
 1033YOPC   C1B14215  10.394   9.382   6.683  0.2978 -0.2938 -0.0158
 1033YOPC   C2B14216  10.536   9.121   6.952  0.0193  0.0100  0.2731
 1033YOPC   D3B14217  10.695   8.929   7.339  0.0265  0.1533 -0.0493
 1033YOPC   C4B14218  10.879   8.877   7.634  0.1056  0.0866 -0.3368
 1034YOPC   NC314219   8.890   2.833   5.998 -0.1952  0.2310  0.0058
 1034YOPC   PO414220   9.293   2.952   6.166  0.0989  0.3189  0.1263
 1034YOPC   GL114221   9.267   3.046   6.453  0.3003 -0.1643 -0.1173
 1034YOPC   GL214222   8.852   3.051   6.452 -0.1377 -0.2719  0.2064
 1034YOPC   C1A14223   9.215   3.098   6.885  0.0813  0.1336 -0.0979
 1034YOPC   D2A14224   8.981   2.969   7.321 -0.1798  0.0360 -0.0138
 1034YOPC   C3A14225   9.033   2.518   7.464  0.0454  0.0783  0.1018
 1034YOPC   C4A14226   9.045   2.222   7.792 -0.1095 -0.3357  0.0491
 1034YOPC   C1B14227   8.794   3.323   6.845  0.1468 -0.1032  0.1299
 1034YOPC   C2B14228   8.900   3.515   7.248 -0.1528 -0.0454  0.2000
 1034YOPC   D3B14229   8.847   3.293   7.706 -0.3424 -0.2713  0.0879
 1034YOPC   C4B14230   8.994   3.587   8.071  0.0780 -0.1278  0.0826
 1035YOPC   NC314231  17.222   2.599   5.431  0.0508 -0.0949  0.0985
 1035YOPC   PO414232  17.387   2.256   5.748 -0.0686  0.3330  0.4028
 1035YOPC   GL114233  17.289   2.296   6.069 -0.0675 -0.0845  0.1038
 1035YOPC   GL214234  17.001   2.441   6.164  0.0654  0.1685  0.0434
 1035YOPC   C1A14235  17.575   2.377   6.516  0.1199 -0.2132  0.0127
 1035YOPC   D2A14236  17.841   2.088   6.827 -0.1302  0.3016  0.0136
 1035YOPC   C3A14237  17.880   2.424   7.133 -0.2304 -0.2286  0.1947
 1035YOPC   C4A14238  17.979   2.574   7.545 -0.1600 -0.2497  0.1097
 1035YOPC   C1B14239  17.014   2.490   6.650  0.1466  0.1413  0.1021
 1035YOPC   C2B14240  16.886   2.641   7.020  0.3228  0.1259 -0.1468
 1035YOPC   D3B14241  16.774   2.421   7.282  0.1082  0.4045  0.0263
 1035YOPC   C4B14242  16.349   2.273   7.452  0.3150 -0.0492 -0.0443
 1036YOPC   NC314243  11.655  13.253   5.996 -0.1621  0.0524  0.0870
 1036YOPC   PO414244  11.909  12.856   6.102  0.1821  0.1375  0.0349
 1036YOPC   GL114245  11.665  12.868   6.491 -0.2382  0.2769  0.1773
 1036YOPC   GL214246  11.736  12.631   6.498  0.2490  0.1294 -0.0222
 1036YOPC   C1A14247  11.934  13.009   6.919  0.0688 -0.1119  0.2519
 1036YOPC   D2A14248  12.052  13.353   7.315 -0.2450  0.2954  0.2228
 1036YOPC   C3A14249  12.040  13.287   7.747 -0.1548  0.2669 -0.2801
 1036YOPC   C4A14250  11.758  13.198   8.103  0.2328  0.2541  0.0724
 1036YOPC   C1B14251  11.693  12.591   6.903  0.0690 -0.0898  0.0964
 1036YOPC   C2B14252  11.965  12.726   7.307  0.0534  0.3058  0.1804
 1036YOPC   D3B14253  11.789  12.835   7.700  0.3177 -0.1275  0.0372
 1036YOPC   C4B14254  11.580  12.707   8.057  0.0381 -0.3520  0.3395
 1037YOPC   NC314255   6.523   3.961   5.535 -0.0913 -0.1965 -0.3121
 1037YOPC   PO414256   6.483   4.411   5.613  0.0763 -0.2746 -0.1516
 1037YOPC   GL114257   6.540   4.593   6.023 -0.1097 -0.1856 -0.0825
 1037YOPC   GL214258   6.442   4.936   6.016  0.3552 -0.2501 -0.2087
 1037YOPC   C1A14259   6.601   4.711   6.467  0.1336  0.2034  0.0334
 1037YOPC   D2A14260   6.607   4.630   6.978 -0.0408 -0.0372 -0.0416
 1037YOPC   C3A14261   6.300   4.423   7.221 -0.0963 -0.0007 -0.0144
 1037YOPC   C4A14262   6.324   4.186   7.529 -0.0585 -0.1033 -0.0120
 1037YOPC   C1B14263   6.181   5.091   6.347 -0.0337 -0.1945 -0.3099
 1037YOPC   C2B14264   5.950   5.171   6.775  0.0089  0.0043  0.0274
 1037YOPC   D3B14265   6.255   5.094   7.082 -0.1516  0.0242 -0.3915
 1037YOPC   C4B14266   6.285   5.378   7.497  0.2689  0.1426  0.3690
 1038YOPC   NC314267   6.536  11.767   6.059 -0.4557  0.2352  0.1399
 1038YOPC   PO414268   6.544  12.088   5.837  0.1686 -0.1529 -0.1853
 1038YOPC   GL114269   6.520  12.393   6.149 -0.1438  0.0566 -0.1374
 1038YOPC   GL214270   6.289  12.183   6.471  0.0034  0.0760  0.0771
 1038YOPC   C1A14271   6.542  12.605   6.609  0.0768 -0.1589 -0.0454
 1038YOPC   D2A14272   6.726  12.746   7.091 -0.1382  0.0914  0.1704
 1038YOPC   C3A14273   6.509  13.027   7.274 -0.0848 -0.0224 -0.1068
 1038YOPC   C4A14274   6.261  13.225   7.650  0.0374  0.0603  0.2857
 1038YOPC   C1B14275   6.185  12.185   6.881  0.1716 -0.1743  0.0699
 1038YOPC   C2B14276   6.004  12.315   7.316  0.1034 -0.1970 -0.0277
 1038YOPC   D3B14277   6.263  12.152   7.662  0.2636 -0.3033 -0.1672
 1038YOPC   C4B14278   6.285  12.245   8.099 -0.1975 -0.1389 -0.0398
 1039YOPC   NC314279   2.771   2.464   5.240  0.0882  0.1165 -0.0731
 1039YOPC   PO414280   3.071   2.401   5.668  0.2085  0.0446  0.0851
 1039YOPC   GL114281   2.990   2.393   6.073  0.3647  0.2437 -0.0568
 1039YOPC   GL214282   2.879   2.094   6.166 -0.0060  0.2032 -0.0289
 1039YOPC   C1A14283   3.015   2.526   6.467  0.1498  0.0328 -0.1234
 1039YOPC   D2A14284   3.046   2.644   6.906 -0.0567  0.1588  0.0101
 1039YOPC   C3A14285   3.366   2.860   7.113  0.2261  0.0000 -0.0735
 1039YOPC   C4A14286   3.340   3.147   7.440 -0.2017  0.1903  0.0517
 1039YOPC   C1B14287   2.626   2.256   6.382  0.1199 -0.0981 -0.1845
 1039YOPC   C2B14288   2.625   2.414   6.782  0.3124 -0.1337  0.0815
 1039YOPC   D3B14289   2.454   2.167   7.042 -0.0883 -0.0909 -0.1509
 1039YOPC   C4B14290   2.538   1.852   7.252 -0.2383  0.1781 -0.4289
 1040YOPC   NC314291   3.701   1.153   5.791 -0.2079 -0.1795  0.1055
 1040YOPC   PO414292   3.452   0.832   5.669 -0.0408  0.1411 -0.3132
 1040YOPC   GL114293   3.264   0.706   5.953  0.1976  0.1208 -0.0026
 1040YOPC   GL214294   3.430   0.683   6.238  0.6020  0.2067 -0.0363
 1040YOPC   C1A14295   2.889   0.781   6.187 -0.2388  0.0849 -0.1212
 1040YOPC   D2A14296   2.754   0.717   6.634  0.0117  0.1427  0.0551
 1040YOPC   C3A14297   2.399   0.712   6.835 -0.0422 -0.0815 -0.1794
 1040YOPC   C4A14298   2.264   0.365   6.973 -0.1914 -0.0860  0.0360
 1040YOPC   C1B14299   3.306   0.758   6.707  0.1626 -0.2657  0.0111
 1040YOPC   C2B14300   3.358   0.539   7.025  0.1935 -0.0746  0.2850
 1040YOPC   D3B14301   3.319   0.658   7.364  0.2244 -0.1569 -0.2718
 1040YOPC   C4B14302   3.134   0.514   7.672  0.1607  0.1278 -0.0878
 1041YOPC   NC314303  14.685   9.146   5.360 -0.1350  0.1024 -0.1471
 1041YOPC   PO414304  14.267   9.141   5.445 -0.2778 -0.0056  0.1201
 1041YOPC   GL114305  13.928   9.028   5.749 -0.1849 -0.1996 -0.0181
 1041YOPC   GL214306  14.111   8.994   6.033 -0.0952 -0.2045  0.1426
 1041YOPC   C1A14307  13.655   8.970   6.189  0.2086  0.0463  0.0536
 1041YOPC   D2A14308  13.690   8.693   6.603 -0.1643 -0.1509 -0.1847
 1041YOPC   C3A14309  13.718   8.668   7.056 -0.0371  0.1939  0.1073
 1041YOPC   C4A14310  14.018   8.642   7.378  0.2945 -0.2166 -0.1433
 1041YOPC   C1B14311  14.113   9.020   6.399 -0.1460 -0.0427 -0.0503
 1041YOPC   C2B14312  14.040   8.984   6.803  0.1966 -0.0458 -0.0138
 1041YOPC   D3B14313  14.152   9.121   7.193  0.0143  0.0810  0.0394
 1041YOPC   C4B14314  14.465   8.809   7.374  0.0881 -0.1509  0.0454
 1042YOPC   NC314315   5.739   2.725   5.513  0.3363  0.0691  0.2465
 1042YOPC   PO414316   6.093   2.769   5.676  0.2054 -0.0042  0.2584
 1042YOPC   GL114317   5.809   2.902   6.052  0.0902 -0.2319 -0.0002
 1042YOPC   GL214318   5.890   3.235   6.258  0.0644  0.2631  0.0509
 1042YOPC   C1A14319   5.518   2.730   6.319  0.0834  0.0594 -0.1737
 1042YOPC   D2A14320   5.436   2.683   6.834  0.1722  0.0890 -0.0245
 1042YOPC   C3A14321   5.086   2.500   7.084  0.1257  0.0179  0.1050
 1042YOPC   C4A14322   4.847   2.088   7.239 -0.4051 -0.2385  0.3683
 1042YOPC   C1B14323   5.831   3.012   6.610 -0.1638 -0.0387  0.2103
 1042YOPC   C2B14324   5.922   2.892   7.031 -0.2633 -0.2157 -0.1546
 1042YOPC   D3B14325   5.902   2.503   7.179 -0.1483  0.1140  0.0912
 1042YOPC   C4B14326   5.848   2.114   7.295 -0.0851  0.0673 -0.1658
 1043YOPC   NC314327   7.008  11.552   5.913  0.0428  0.0174 -0.2176
 1043YOPC   PO414328   7.110  11.089   5.742  0.3756 -0.0516 -0.1445
 1043YOPC   GL114329   7.140  11.092   6.204 -0.0489 -0.1055 -0.2736
 1043YOPC   GL214330   6.861  10.991   6.402  0.2358 -0.0428  0.2848
 1043YOPC   C1A14331   7.427  11.369   6.532  0.2143  0.2456 -0.1181
 1043YOPC   D2A14332   7.759  11.394   6.829 -0.1322  0.2436  0.1242
 1043YOPC   C3A14333   7.765  11.600   7.213  0.1924 -0.0513 -0.0536
 1043YOPC   C4A14334   7.623  11.576   7.700 -0.2269 -0.1606 -0.0858
 1043YOPC   C1B14335   6.848  10.836   6.801  0.1754 -0.0949  0.0857
 1043YOPC   C2B14336   6.909  11.028   7.236  0.0434  0.1337  0.4048
 1043YOPC   D3B14337   6.750  11.246   7.373  0.2104 -0.2408 -0.2349
 1043YOPC   C4B14338   6.906  11.605   7.358  0.0264 -0.1667 -0.0559
 1044YOPC   NC314339   9.633   2.693   5.959  0.3380  0.1904 -0.0041
 1044YOPC   PO414340   9.651   2.213   6.106  0.0258  0.2901 -0.0733
 1044YOPC   GL114341   9.688   2.261   6.550  0.2330 -0.1164 -0.2179
 1044YOPC   GL214342   9.591   2.128   6.672  0.0203  0.1752  0.0631
 1044YOPC   C1A14343  10.037   2.431   6.799 -0.1597  0.0755 -0.0546
 1044YOPC   D2A14344  10.440   2.511   7.080 -0.2010 -0.1071  0.1154
 1044YOPC   C3A14345  10.474   2.404   7.538  0.1384 -0.0134 -0.0334
 1044YOPC   C4A14346  10.566   2.479   7.919 -0.0102  0.1132 -0.0563
 1044YOPC   C1B14347   9.496   2.134   7.089 -0.1883  0.1248  0.0908
 1044YOPC   C2B14348   9.639   2.152   7.496  0.2555 -0.1427  0.1073
 1044YOPC   D3B14349   9.876   2.099   7.805  0.1429  0.0506 -0.1035
 1044YOPC   C4B14350  10.279   2.023   8.004  0.1383  0.0869  0.1750
 1045YOPC   NC314351  12.370  16.738   5.469 -0.1567  0.0969  0.0766
 1045YOPC   PO414352  12.348  16.723   5.938 -0.2667  0.0763 -0.0494
 1045YOPC   GL114353  12.554  16.601   6.298  0.0691 -0.0262  0.0410
 1045YOPC   GL214354  12.327  16.427   6.511  0.0287 -0.1111 -0.0040
 1045YOPC   C1A14355  12.668  16.823   6.633  0.1412  0.1449  0.3221
 1045YOPC   D2A14356  12.953  16.835   7.007 -0.3914  0.1027  0.1828
 1045YOPC   C3A14357  13.397  16.722   6.985  0.0369  0.0356 -0.2307
 1045YOPC   C4A14358  13.584  16.942   6.547 -0.2245  0.0199  0.0631
 1045YOPC   C1B14359  12.371  16.444   6.991 -0.0881 -0.0594  0.1844
 1045YOPC   C2B14360  12.511  16.742   7.174 -0.0978  0.1423 -0.2881
 1045YOPC   D3B14361  12.299  16.745   7.580  0.0049 -0.1575 -0.3069
 1045YOPC   C4B14362  11.960  16.776   7.795  0.3119  0.2574 -0.1751
 1046YOPC   NC314363   4.697  18.425   5.657 -0.2279  0.1929 -0.0507
 1046YOPC   PO414364   4.400  18.169   5.521  0.0188  0.1125 -0.0053
 1046YOPC   GL114365   4.300  18.072   5.948 -0.2030  0.2244 -0.0625
 1046YOPC   GL214366   4.261  18.430   5.974  0.1120  0.1306 -0.1910
 1046YOPC   C1A14367   4.173  17.703   6.250 -0.0213  0.0548 -0.1082
 1046YOPC   D2A14368   4.350  17.433   6.531  0.1313 -0.1411  0.0891
 1046YOPC   C3A14369   4.324  17.279   6.902 -0.4049 -0.0432  0.0882
 1046YOPC   C4A14370   4.337  17.400   7.223  0.1091  0.0783  0.1068
 1046YOPC   C1B14371   4.218  18.344   6.371  0.1958 -0.0672 -0.1490
 1046YOPC   C2B14372   4.163  18.261   6.818  0.0734  0.3985  0.1013
 1046YOPC   D3B14373   4.097  18.464   7.160  0.1390 -0.1661 -0.0360
 1046YOPC   C4B14374   4.261  18.258   7.612  0.1216  0.0062  0.2507
 1047YOPC   NC314375   1.250  16.237   4.906  0.3290  0.1918  0.0655
 1047YOPC   PO414376   1.127  16.250   5.397 -0.1169 -0.1867 -0.0242
 1047YOPC   GL114377   1.084  16.423   5.896 -0.5699 -0.0734  0.0019
 1047YOPC   GL214378   0.840  16.658   6.039 -0.0091 -0.2973  0.3878
 1047YOPC   C1A14379   1.198  16.518   6.349 -0.2087  0.1343  0.0439
 1047YOPC   D2A14380   1.357  16.621   6.795  0.2167  0.1893 -0.0597
 1047YOPC   C3A14381   1.189  16.279   6.907  0.1046  0.5447 -0.2042
 1047YOPC   C4A14382   1.194  15.863   6.671  0.0162 -0.2493 -0.0879
 1047YOPC   C1B14383   0.722  16.675   6.399 -0.0236  0.3017 -0.1264
 1047YOPC   C2B14384   0.827  16.613   6.814 -0.0450  0.0263  0.0508
 1047YOPC   D3B14385   0.664  16.869   7.197  0.3887 -0.0279  0.2784
 1047YOPC   C4B14386   0.729  17.137   7.552 -0.2147 -0.1088  0.1315
 1048YOPC   NC314387   4.125   0.207   5.601 -0.0000 -0.2666 -0.0316
 1048YOPC   PO414388   4.218   0.337   6.033 -0.0951  0.1342  0.2464
 1048YOPC   GL114389   4.460   0.192   6.356 -0.2381  0.1791 -0.0867
 1048YOPC   GL214390   4.804   0.343   6.395 -0.1382  0.0154 -0.3127
 1048YOPC   C1A14391   4.599  -0.120   6.609  0.1311  0.0064  0.1082
 1048YOPC   D2A14392   4.656  -0.206   7.072 -0.0476 -0.0332  0.3783
 1048YOPC   C3A14393   4.541   0.002   7.546 -0.0001 -0.0684  0.1683
 1048YOPC   C4A14394   4.054   0.124   7.673 -0.1410 -0.2179 -0.0751
 1048YOPC   C1B14395   4.890   0.287   6.849  0.2130 -0.0444 -0.2243
 1048YOPC   C2B14396   4.884   0.208   7.240 -0.1424 -0.1784  0.2196
 1048YOPC   D3B14397   5.133  -0.084   7.381  0.0097 -0.1485 -0.4683
 1048YOPC   C4B14398   5.204  -0.258   7.798 -0.0789 -0.0534 -0.1913
 1049YOPC   NC314399   4.352   1.449   5.148 -0.2942  0.0617  0.3885
 1049YOPC   PO414400   4.003   1.335   5.437 -0.0279 -0.3096 -0.3388
 1049YOPC   GL114401   4.205   1.357   5.942 -0.5247 -0.2663 -0.1344
 1049YOPC   GL214402   4.150   1.068   6.167  0.2469  0.0820 -0.3447
 1049YOPC   C1A14403   4.044   1.574   6.386 -0.0957 -0.2245  0.0437
 1049YOPC   D2A14404   4.114   1.645   6.938  0.1620 -0.4374  0.0247
 1049YOPC   C3A14405   4.078   1.295   7.340  0.0129 -0.1877  0.1964
 1049YOPC   C4A14406   4.165   1.271   7.814  0.1748  0.3909 -0.1028
 1049YOPC   C1B14407   4.224   0.949   6.620 -0.2790  0.2138 -0.1763
 1049YOPC   C2B14408   4.385   1.146   6.932  0.1336  0.0004 -0.0924
 1049YOPC   D3B14409   4.930   1.183   7.016 -0.0517  0.2639 -0.0765
 1049YOPC   C4B14410   5.091   1.494   7.273 -0.1555 -0.0909 -0.1330
 1050YOPC   NC314411   5.003  13.715   5.680 -0.0886 -0.0809 -0.1679
 1050YOPC   PO414412   4.890  13.336   5.768 -0.1341  0.2165 -0.0309
 1050YOPC   GL114413   4.963  13.006   6.065 -0.2002 -0.3640  0.0278
 1050YOPC   GL214414   5.277  12.861   6.132  0.1388  0.2263 -0.1357
 1050YOPC   C1A14415   4.883  12.805   6.486  0.0810 -0.2789  0.0797
 1050YOPC   D2A14416   4.848  12.968   6.920  0.4344  0.0598 -0.0004
 1050YOPC   C3A14417   4.892  12.822   7.321  0.0471  0.0650  0.1491
 1050YOPC   C4A14418   5.015  12.526   7.606  0.1036 -0.0014 -0.0981
 1050YOPC   C1B14419   5.562  12.825   6.516 -0.3038 -0.2570  0.0033
 1050YOPC   C2B14420   5.771  12.920   6.965  0.3176  0.0044  0.1561
 1050YOPC   D3B14421   6.187  13.130   6.884 -0.2373  0.0214  0.4685
 1050YOPC   C4B14422   6.641  13.087   6.702 -0.0674 -0.1655  0.0463
 1051YOPC   NC314423  16.099  13.297   5.143 -0.1228  0.2684  0.0718
 1051YOPC   PO414424  15.765  13.080   5.342  0.1293  0.6165 -0.1415
 1051YOPC   GL114425  15.710  12.779   5.676 -0.1070  0.1967  0.3627
 1051YOPC   GL214426  15.683  12.450   5.826 -0.1741 -0.1191 -0.0846
 1051YOPC   C1A14427  16.003  12.907   6.008 -0.0742 -0.0976  0.0697
 1051YOPC   D2A14428  15.818  13.280   6.271 -0.1224  0.1049 -0.0357
 1051YOPC   C3A14429  15.852  13.030   6.678 -0.0459  0.1369 -0.0001
 1051YOPC   C4A14430  15.435  12.971   6.914 -0.0744 -0.0403  0.0638
 1051YOPC   C1B14431  15.726  12.405   6.268 -0.2901 -0.0790  0.2217
 1051YOPC   C2B14432  15.856  12.252   6.709 -0.4505  0.2829  0.0457
 1051YOPC   D3B14433  16.093  12.527   7.000  0.0573 -0.0037 -0.1281
 1051YOPC   C4B14434  16.170  12.549   7.442  0.0787 -0.3682 -0.0383
 1052YOPC   NC314435  13.215   9.443   5.343  0.0793  0.4228 -0.0267
 1052YOPC   PO414436  13.061   9.427   5.767  0.0858  0.3453 -0.2143
 1052YOPC   GL114437  12.894   9.336   6.095  0.0938 -0.1374 -0.0663
 1052YOPC   GL214438  13.341   9.307   6.190 -0.0315  0.4026 -0.0871
 1052YOPC   C1A14439  12.798   9.272   6.492 -0.0791 -0.1695  0.2103
 1052YOPC   D2A14440  12.580   9.247   6.958  0.0970 -0.0460  0.0577
 1052YOPC   C3A14441  12.386   9.027   7.283  0.0577 -0.0205 -0.0598
 1052YOPC   C4A14442  12.143   8.727   7.510 -0.0973 -0.1138 -0.3307
 1052YOPC   C1B14443  13.235   9.444   6.656  0.0637 -0.0424  0.1161
 1052YOPC   C2B14444  13.022   9.358   7.140 -0.1440  0.2403  0.2253
 1052YOPC   D3B14445  13.117   9.065   7.348  0.3516  0.4236  0.0969
 1052YOPC   C4B14446  13.123   8.851   7.756  0.3223 -0.1263  0.3146
 1053YOPC   NC314447  11.486  17.825   5.790 -0.0286 -0.0862  0.0209
 1053YOPC   PO414448  11.632  17.475   6.044  0.1086  0.0250 -0.2410
 1053YOPC   GL114449  11.852  17.395   6.375  0.2118  0.1270  0.0354
 1053YOPC   GL214450  12.085  17.548   6.417 -0.0273  0.1126  0.0420
 1053YOPC   C1A14451  11.748  17.184   6.793  0.3190 -0.1854  0.1447
 1053YOPC   D2A14452  11.568  16.908   7.154  0.0914 -0.0830  0.0991
 1053YOPC   C3A14453  11.509  17.021   7.644  0.1169  0.0499  0.1929
 1053YOPC   C4A14454  11.318  17.289   7.935 -0.0348 -0.3486  0.0706
 1053YOPC   C1B14455  12.135  17.496   6.855 -0.2142  0.0486  0.3468
 1053YOPC   C2B14456  12.075  17.599   7.336  0.1372 -0.1262  0.2154
 1053YOPC   D3B14457  12.227  17.579   7.721 -0.2386 -0.1612  0.0978
 1053YOPC   C4B14458  12.673  17.661   7.953  0.2459 -0.0345 -0.0632
 1054YOPC   NC314459  16.681  16.162   5.525 -0.1803  0.1333 -0.0182
 1054YOPC   PO414460  16.681  16.545   5.773 -0.2819  0.2026 -0.1653
 1054YOPC   GL114461  16.900  16.337   6.047  0.0352 -0.0354 -0.3657
 1054YOPC   GL214462  16.850  16.242   6.290  0.2217 -0.2527  0.3324
 1054YOPC   C1A14463  17.269  16.091   6.128  0.3523 -0.0401 -0.0803
 1054YOPC   D2A14464  17.484  16.103   6.534  0.1934  0.0350 -0.5107
 1054YOPC   C3A14465  17.721  16.414   6.465  0.1536 -0.1451  0.1558
 1054YOPC   C4A14466  18.131  16.511   6.394 -0.2720 -0.1107  0.1863
 1054YOPC   C1B14467  16.894  16.156   6.753 -0.0055  0.0761 -0.0443
 1054YOPC   C2B14468  17.111  16.033   7.161 -0.3401  0.0871  0.3740
 1054YOPC   D3B14469  16.954  16.183   7.670  0.1797 -0.1509  0.0916
 1054YOPC   C4B14470  16.635  16.075   8.042 -0.0001  0.1217 -0.4438
 1055YOPC   NC314471   8.742   0.813   5.966 -0.0477  0.2035  0.2969
 1055YOPC   PO414472   9.049   0.589   6.290 -0.2925  0.1261  0.4438
 1055YOPC   GL114473   9.104   0.554   6.685 -0.1628  0.0042 -0.1093
 1055YOPC   GL214474   9.228   0.261   6.749 -0.0782  0.1458 -0.1753
 1055YOPC   C1A14475   8.971   0.674   7.186  0.2391 -0.0827  0.0696
 1055YOPC   D2A14476   8.881   0.660   7.538 -0.1374 -0.1155  0.0190
 1055YOPC   C3A14477   9.206   0.838   7.765 -0.1848  0.0251 -0.1901
 1055YOPC   C4A14478   9.215   0.986   8.163 -0.4016  0.0386  0.1690
 1055YOPC   C1B14479   9.416   0.533   7.087 -0.0450 -0.2125  0.3361
 1055YOPC   C2B14480   9.413   0.549   7.436  0.1999  0.0602  0.3121
 1055YOPC   D3B14481   9.645   0.613   7.679  0.0341 -0.1539  0.0051
 1055YOPC   C4B14482   9.758   0.389   8.121  0.1951  0.0301 -0.3457
 1056YOPC   NC314483   4.200  10.365   5.188 -0.0329 -0.1744  0.2368
 1056YOPC   PO414484   4.330  10.743   5.207 -0.0102  0.0711  0.0431
 1056YOPC   GL114485   4.627  10.867   5.607 -0.0082 -0.0284  0.1583
 1056YOPC   GL214486   4.880  10.728   5.517  0.0040 -0.1606  0.1161
 1056YOPC   C1A14487   4.670  11.186   5.857  0.0781  0.2335  0.0726
 1056YOPC   D2A14488   4.472  11.419   6.215  0.0313 -0.1275  0.4598
 1056YOPC   C3A14489   4.343  11.407   6.606  0.1507 -0.1513 -0.1707
 1056YOPC   C4A14490   4.359  11.429   7.096  0.0310 -0.2037  0.1440
 1056YOPC   C1B14491   5.079  10.673   5.854  0.0454  0.0199  0.1433
 1056YOPC   C2B14492   5.116  10.900   6.292  0.1662 -0.1274 -0.2890
 1056YOPC   D3B14493   5.047  10.755   6.656  0.0874  0.0969  0.0264
 1056YOPC   C4B14494   5.354  10.913   6.937 -0.1689  0.0760  0.2309
 1057YOPC   NC314495   7.804  17.654   6.046 -0.0624  0.0857  0.2479
 1057YOPC   PO414496   7.853  17.970   6.218  0.3042 -0.0630  0.0861
 1057YOPC   GL114497   7.574  17.972   6.534  0.3623  0.2292  0.1130
 1057YOPC   GL214498   7.623  18.243   6.714 -0.0246 -0.0650  0.0283
 1057YOPC   C1A14499   7.574  17.764   6.922 -0.1670  0.1103 -0.2386
 1057YOPC   D2A14500   7.609  17.672   7.340  0.1105  0.0365  0.2848
 1057YOPC   C3A14501   7.983  17.632   7.545  0.0320  0.0031 -0.0127
 1057YOPC   C4A14502   8.283  17.593   7.819  0.1492  0.0031 -0.0767
 1057YOPC   C1B14503   7.668  18.265   7.172 -0.1193  0.1574  0.2052
 1057YOPC   C2B14504   7.842  18.137   7.555 -0.1864 -0.1095 -0.0904
 1057YOPC   D3B14505   7.894  18.355   7.997 -0.1452 -0.0622  0.1250
 1057YOPC   C4B14506   8.112  18.671   8.218  0.1677 -0.1929 -0.0284
 1058YOPC   NC314507  17.091   9.542   4.500  0.1438 -0.1210 -0.1273
 1058YOPC   PO414508  17.330   9.356   4.852  0.0326 -0.0901  0.0273
 1058YOPC   GL114509  17.557   9.269   5.277 -0.0037  0.0705  0.0583
 1058YOPC   GL214510  17.874   9.534   5.346  0.1143  0.2371  0.1243
 1058YOPC   C1A14511  17.628   8.783   5.408  0.0401 -0.0116  0.2201
 1058YOPC   D2A14512  17.530   8.450   5.672  0.2758 -0.0200 -0.4248
 1058YOPC   C3A14513  17.512   8.361   6.153  0.0710  0.0256 -0.0785
 1058YOPC   C4A14514  17.323   8.399   6.593 -0.0807 -0.0469  0.2650
 1058YOPC   C1B14515  17.950   9.205   5.501 -0.2592 -0.3218  0.2211
 1058YOPC   C2B14516  17.976   8.723   5.703 -0.0948  0.1195 -0.0850
 1058YOPC   D3B14517  17.900   8.624   6.215 -0.1797 -0.2138  0.1298
 1058YOPC   C4B14518  18.242   8.598   6.484 -0.0944  0.1873 -0.3113
 1059YOPC   NC314519  15.894  17.913   5.785 -0.1493 -0.0355  0.1619
 1059YOPC   PO414520  15.811  18.303   5.890  0.3700 -0.3514  0.1565
 1059YOPC   GL114521  16.032  18.634   6.109  0.2420 -0.2926  0.1467
 1059YOPC   GL214522  16.375  18.621   6.159  0.2811 -0.1888  0.0461
 1059YOPC   C1A14523  15.895  18.762   6.427 -0.1113  0.2854 -0.0454
 1059YOPC   D2A14524  15.968  19.106   6.656 -0.3877  0.0876  0.1410
 1059YOPC   C3A14525  16.046  19.198   7.164  0.1694 -0.1465 -0.2364
 1059YOPC   C4A14526  16.260  19.395   7.492  0.0365 -0.2991  0.0130
 1059YOPC   C1B14527  16.380  18.773   6.578  0.1002 -0.2244  0.0136
 1059YOPC   C2B14528  16.028  18.670   6.956  0.0472 -0.1280 -0.2882
 1059YOPC   D3B14529  15.961  18.756   7.358 -0.3297  0.0092  0.0753
 1059YOPC   C4B14530  15.809  19.023   7.614  0.0541 -0.0467  0.1315
 1060YOPC   NC314531   4.547   6.942   5.491  0.1867  0.0616 -0.1729
 1060YOPC   PO414532   4.737   7.112   5.833 -0.0597  0.1602  0.2688
 1060YOPC   GL114533   4.819   7.506   6.154  0.0219  0.3643 -0.0373
 1060YOPC   GL214534   4.537   7.440   6.306  0.2375 -0.1125  0.1893
 1060YOPC   C1A14535   5.000   7.539   6.545  0.0358 -0.1374 -0.2821
 1060YOPC   D2A14536   4.976   7.608   6.992 -0.1163  0.3352  0.0534
 1060YOPC   C3A14537   4.915   7.917   7.283 -0.1676 -0.0844  0.2312
 1060YOPC   C4A14538   4.977   8.433   7.284 -0.2611 -0.1729 -0.1618
 1060YOPC   C1B14539   4.214   7.118   6.410  0.1090 -0.1850  0.2143
 1060YOPC   C2B14540   4.011   7.016   6.800 -0.1564 -0.0192  0.3788
 1060YOPC   D3B14541   3.884   6.780   7.110  0.0006  0.0552 -0.1180
 1060YOPC   C4B14542   4.103   6.566   7.395 -0.0530 -0.1920 -0.0007
 1061YOPC   NC314543   9.286   7.523   6.028  0.0027  0.0235 -0.2541
 1061YOPC   PO414544   8.825   7.656   5.803  0.0434 -0.2031  0.0461
 1061YOPC   GL114545   8.481   7.556   6.111  0.0362  0.1925  0.0017
 1061YOPC   GL214546   8.180   7.742   6.157 -0.1284 -0.2257  0.0406
 1061YOPC   C1A14547   8.412   7.481   6.566  0.1634 -0.1029  0.1686
 1061YOPC   D2A14548   8.436   7.454   7.018 -0.2480 -0.1189  0.0791
 1061YOPC   C3A14549   8.816   7.512   7.147 -0.1361 -0.0357  0.1742
 1061YOPC   C4A14550   8.944   7.621   7.527  0.1825  0.0829  0.0142
 1061YOPC   C1B14551   7.949   7.536   6.443 -0.0796  0.2752  0.0480
 1061YOPC   C2B14552   7.974   7.444   6.871 -0.0052  0.0169 -0.3060
 1061YOPC   D3B14553   8.011   7.639   7.235  0.0286  0.1186  0.0316
 1061YOPC   C4B14554   8.465   7.724   7.449  0.1818 -0.1925  0.2706
 1062YOPC   NC314555   3.645   9.069   5.153 -0.0353 -0.1879  0.0053
 1062YOPC   PO414556   3.741   9.538   5.138 -0.1326 -0.1240  0.1734
 1062YOPC   GL114557   3.988   9.395   5.578 -0.4268 -0.0924  0.1384
 1062YOPC   GL214558   3.729   9.172   5.699 -0.0217 -0.1648  0.3272
 1062YOPC   C1A14559   3.962   9.498   5.997  0.1855  0.3561 -0.1303
 1062YOPC   D2A14560   3.767   9.435   6.312 -0.1482 -0.1366  0.1485
 1062YOPC   C3A14561   3.578   9.767   6.468  0.0878  0.1150 -0.0842
 1062YOPC   C4A14562   3.571  10.145   6.672  0.0017 -0.0032 -0.3941
 1062YOPC   C1B14563   3.493   9.386   5.893  0.0772  0.1722  0.1393
 1062YOPC   C2B14564   3.434   9.586   5.971 -0.3507 -0.0457 -0.2565
 1062YOPC   D3B14565   3.738   9.983   6.032  0.0318  0.2998  0.0347
 1062YOPC   C4B14566   3.846  10.329   6.234  0.0306  0.0933  0.1972
 1063YOPC   NC314567   1.798   7.030   4.881  0.2385 -0.2379 -0.0186
 1063YOPC   PO414568   1.517   7.300   5.124 -0.0613 -0.2490 -0.1788
 1063YOPC   GL114569   1.569   7.377   5.503 -0.2807  0.0719  0.4083
 1063YOPC   GL214570   1.352   7.661   5.535 -0.0970 -0.2336 -0.3019
 1063YOPC   C1A14571   1.622   7.165   5.966  0.0376 -0.0851 -0.0493
 1063YOPC   D2A14572   1.721   7.123   6.393  0.4110 -0.3634 -0.2439
 1063YOPC   C3A14573   1.754   7.143   6.775 -0.1371  0.3380 -0.2101
 1063YOPC   C4A14574   1.752   7.036   7.141  0.0957 -0.0982 -0.0507
 1063YOPC   C1B14575   1.482   7.673   5.929  0.2284 -0.0408 -0.1288
 1063YOPC   C2B14576   1.278   7.461   6.334 -0.0185 -0.1106  0.0732
 1063YOPC   D3B14577   1.207   7.266   6.763 -0.0682  0.0448 -0.0919
 1063YOPC   C4B14578   1.358   7.268   7.173 -0.2082  0.1423 -0.0576
 1064YOPC   NC314579  16.523   9.147   5.050 -0.0190  0.2724 -0.0962
 1064YOPC   PO414580  16.111   9.097   5.325  0.0231  0.2360  0.0857
 1064YOPC   GL114581  16.182   8.869   5.695  0.2737 -0.2755 -0.0475
 1064YOPC   GL214582  16.253   8.558   5.652  0.0234  0.0636  0.1835
 1064YOPC   C1A14583  16.094   8.840   6.058  0.1360  0.2071  0.1383
 1064YOPC   D2A14584  16.077   8.884   6.516 -0.1985 -0.0541 -0.0769
 1064YOPC   C3A14585  15.779   9.012   6.748  0.2417  0.5345 -0.1429
 1064YOPC   C4A14586  15.586   9.282   7.028  0.0826  0.1460  0.0343
 1064YOPC   C1B14587  16.627   8.769   5.961 -0.3889 -0.3247 -0.1254
 1064YOPC   C2B14588  16.646   8.868   6.330  0.0616 -0.0858 -0.0075
 1064YOPC   D3B14589  16.795   8.717   6.663  0.0737 -0.1079 -0.1114
 1064YOPC   C4B14590  17.130   8.770   6.840  0.3271  0.0375 -0.2620
 1065YOPC   NC314591  14.172  10.054   5.580 -0.1064  0.2534 -0.0833
 1065YOPC   PO414592  13.911  10.318   5.800  0.0837  0.4571  0.2449
 1065YOPC   GL114593  14.004  10.182   6.150 -0.0876  0.1740  0.4133
 1065YOPC   GL214594  13.812   9.994   6.340 -0.0179 -0.0140 -0.0230
 1065YOPC   C1A14595  14.064  10.210   6.736  0.1190  0.3684 -0.1124
 1065YOPC   D2A14596  14.047  10.014   7.071  0.0708  0.1985 -0.0309
 1065YOPC   C3A14597  13.864  10.070   7.514 -0.1495 -0.0875 -0.0378
 1065YOPC   C4A14598  13.419  10.217   7.593 -0.0596  0.1513  0.2507
 1065YOPC   C1B14599  13.632   9.788   6.762 -0.0340  0.1223 -0.1891
 1065YOPC   C2B14600  13.268   9.830   6.963  0.4402  0.1699  0.2549
 1065YOPC   D3B14601  13.163  10.079   7.160 -0.0777  0.2717  0.0537
 1065YOPC   C4B14602  12.820  10.221   7.557 -0.2784  0.0807 -0.1439
 1066YOPC   NC314603  16.940   3.509   5.306  0.1636 -0.0694 -0.4153
 1066YOPC   PO414604  16.576   3.759   5.345 -0.1925  0.1329  0.1507
 1066YOPC   GL114605  16.571   3.674   5.770  0.2904  0.0734 -0.2633
 1066YOPC   GL214606  16.779   3.483   5.875 -0.0062  0.1283 -0.3390
 1066YOPC   C1A14607  16.361   3.766   6.208  0.2880  0.2748 -0.0153
 1066YOPC   D2A14608  16.354   4.039   6.676  0.4267  0.2981  0.3041
 1066YOPC   C3A14609  16.607   4.017   7.025 -0.1380 -0.0675  0.2772
 1066YOPC   C4A14610  16.643   3.820   7.421 -0.0387 -0.0162 -0.2738
 1066YOPC   C1B14611  16.715   3.435   6.331 -0.3300 -0.3660 -0.2240
 1066YOPC   C2B14612  16.567   3.541   6.729  0.1485 -0.0667  0.1297
 1066YOPC   D3B14613  16.394   3.501   7.100  0.1751  0.0960 -0.1555
 1066YOPC   C4B14614  16.397   3.362   7.611  0.0338  0.0028 -0.1262
 1067YOPC   NC314615  14.839  10.435   5.510  0.1259  0.0483 -0.0339
 1067YOPC   PO414616  15.260  10.555   5.516  0.3645  0.1703  0.0688
 1067YOPC   GL114617  15.436  10.426   5.941 -0.0490  0.0743 -0.1944
 1067YOPC   GL214618  15.858  10.506   5.912  0.2910 -0.3853  0.0083
 1067YOPC   C1A14619  15.626  10.335   6.437 -0.2163 -0.0864 -0.1549
 1067YOPC   D2A14620  15.578  10.260   6.873  0.0937  0.1482 -0.1790
 1067YOPC   C3A14621  15.901  10.157   6.917 -0.1206 -0.1044  0.1076
 1067YOPC   C4A14622  16.183  10.170   7.255 -0.2422 -0.1242  0.1594
 1067YOPC   C1B14623  15.601  10.798   6.237  0.0318  0.2189 -0.0306
 1067YOPC   C2B14624  15.563  10.936   6.676 -0.3997  0.2321  0.0436
 1067YOPC   D3B14625  15.830  10.971   7.011 -0.0952  0.2039 -0.0592
 1067YOPC   C4B14626  15.873  11.104   7.373 -0.2486 -0.1355 -0.1485
 1068YOPC   NC314627  11.470  15.073   5.805 -0.1034  0.0026 -0.0732
 1068YOPC   PO414628  11.822  15.005   6.097 -0.0141 -0.0120  0.0258
 1068YOPC   GL114629  11.893  14.877   6.514 -0.2899 -0.0841 -0.1768
 1068YOPC   GL214630  12.016  14.581   6.586  0.1348  0.0148  0.0550
 1068YOPC   C1A14631  11.897  14.963   6.976  0.1763  0.1104 -0.0701
 1068YOPC   D2A14632  11.789  15.016   7.395 -0.0175  0.2427 -0.1075
 1068YOPC   C3A14633  11.668  15.070   7.776  0.0150 -0.1274  0.0361
 1068YOPC   C4A14634  11.610  15.390   8.185  0.2130 -0.0154  0.0647
 1068YOPC   C1B14635  11.913  14.325   6.918 -0.1942  0.0910  0.0685
 1068YOPC   C2B14636  11.701  13.952   7.119 -0.2296  0.1374  0.1856
 1068YOPC   D3B14637  11.816  13.734   7.451 -0.0420 -0.0073 -0.0935
 1068YOPC   C4B14638  11.692  13.720   7.921  0.2963 -0.0212  0.2628
 1069YOPC   NC314639  11.199  12.393   5.600 -0.0208 -0.3543 -0.0413
 1069YOPC   PO414640  11.577  12.286   5.829 -0.1947 -0.0380  0.0123
 1069YOPC   GL114641  11.393  12.340   6.111  0.1951  0.0534  0.3299
 1069YOPC   GL214642  11.398  12.628   6.149  0.0442 -0.0680 -0.1399
 1069YOPC   C1A14643  11.249  12.022   6.401 -0.0174  0.0842 -0.1250
 1069YOPC   D2A14644  11.016  12.087   6.895  0.2367 -0.0228  0.0458
 1069YOPC   C3A14645  11.261  12.450   7.124 -0.1158 -0.0042  0.1163
 1069YOPC   C4A14646  11.547  12.415   7.473  0.1399  0.0233  0.3051
 1069YOPC   C1B14647  11.275  12.502   6.576 -0.1789 -0.1375 -0.0689
 1069YOPC   C2B14648  11.221  12.837   6.855  0.3098 -0.0332  0.0074
 1069YOPC   D3B14649  11.510  12.872   7.194  0.1969  0.0902  0.0232
 1069YOPC   C4B14650  11.221  12.748   7.524 -0.1860 -0.4046  0.0857
 1070YOPC   NC314651  13.837   3.831   5.649 -0.0823 -0.0407  0.0304
 1070YOPC   PO414652  13.381   3.749   5.766  0.3776 -0.1628  0.3123
 1070YOPC   GL114653  13.379   3.718   6.182  0.0909  0.0056  0.2189
 1070YOPC   GL214654  13.646   3.846   6.354  0.0207 -0.1998  0.1037
 1070YOPC   C1A14655  13.391   3.409   6.411 -0.0309 -0.1731 -0.1944
 1070YOPC   D2A14656  13.411   3.078   6.496 -0.0452  0.0960 -0.0910
 1070YOPC   C3A14657  13.343   3.040   6.943  0.4011  0.1106 -0.1831
 1070YOPC   C4A14658  13.180   3.082   7.294 -0.0115 -0.2919 -0.0763
 1070YOPC   C1B14659  13.736   3.638   6.647 -0.2149 -0.4518  0.1462
 1070YOPC   C2B14660  13.406   3.540   6.948  0.2130 -0.1319 -0.2574
 1070YOPC   D3B14661  13.466   3.607   7.320  0.1189 -0.1248  0.0944
 1070YOPC   C4B14662  13.331   3.461   7.700 -0.0391 -0.1285  0.2291
 1071YOPC   NC314663  10.209   4.677   5.362  0.3010  0.2524  0.1700
 1071YOPC   PO414664  10.417   5.066   5.480  0.0282  0.0499  0.1451
 1071YOPC   GL114665  10.249   4.866   5.822 -0.2560  0.2090 -0.3689
 1071YOPC   GL214666  10.047   5.016   6.094  0.1241  0.4311  0.2359
 1071YOPC   C1A14667  10.087   4.503   6.082 -0.1967  0.3367 -0.0619
 1071YOPC   D2A14668  10.142   4.228   6.529  0.1160 -0.1061  0.0383
 1071YOPC   C3A14669  10.094   4.188   7.010  0.1697 -0.1105  0.0540
 1071YOPC   C4A14670  10.321   3.977   7.378 -0.0009  0.3209  0.0991
 1071YOPC   C1B14671  10.459   5.062   6.209 -0.2566  0.2666 -0.2329
 1071YOPC   C2B14672  10.569   5.494   6.305  0.1659  0.0886  0.1645
 1071YOPC   D3B14673  10.637   5.462   6.741  0.1247  0.0182 -0.0552
 1071YOPC   C4B14674  10.809   5.663   7.026 -0.0909  0.2140 -0.1330
 1072YOPC   NC314675   4.743  13.057   5.316 -0.0574  0.2300 -0.1416
 1072YOPC   PO414676   4.649  12.590   5.436 -0.2297 -0.0218  0.1230
 1072YOPC   GL114677   4.499  12.532   5.801 -0.0713  0.1323  0.1864
 1072YOPC   GL214678   4.762  12.548   6.041 -0.0577  0.0994 -0.1114
 1072YOPC   C1A14679   4.339  12.626   6.278 -0.0177 -0.1389 -0.0162
 1072YOPC   D2A14680   4.417  12.928   6.577 -0.1516 -0.1639 -0.0868
 1072YOPC   C3A14681   4.030  12.946   6.813 -0.1554  0.0691  0.0637
 1072YOPC   C4A14682   3.885  12.624   7.126  0.0534 -0.0216 -0.3496
 1072YOPC   C1B14683   4.708  12.307   6.447  0.2249 -0.2685  0.1098
 1072YOPC   C2B14684   4.716  12.479   6.861  0.0663 -0.0495  0.2891
 1072YOPC   D3B14685   4.792  12.279   7.274 -0.1832 -0.2666  0.1014
 1072YOPC   C4B14686   5.052  12.011   7.481 -0.1410  0.0535  0.2589
 1073YOPC   NC314687   5.994  13.426   5.434 -0.0738 -0.0350  0.1778
 1073YOPC   PO414688   6.330  13.291   5.585 -0.3764  0.0466  0.0370
 1073YOPC   GL114689   6.135  13.050   5.980  0.1734  0.0496 -0.5405
 1073YOPC   GL214690   6.236  12.824   6.249 -0.1505 -0.2257  0.1098
 1073YOPC   C1A14691   5.942  13.169   6.306  0.0241  0.1377 -0.0177
 1073YOPC   D2A14692   5.778  13.361   6.591  0.2634  0.0025 -0.0598
 1073YOPC   C3A14693   5.677  13.426   6.960 -0.0690 -0.3148 -0.1298
 1073YOPC   C4A14694   5.527  13.610   7.293  0.1417  0.0667  0.2054
 1073YOPC   C1B14695   6.048  12.628   6.660 -0.1012  0.2989 -0.0416
 1073YOPC   C2B14696   6.260  12.626   7.055  0.1117  0.0480 -0.0381
 1073YOPC   D3B14697   5.998  12.854   7.423  0.0533  0.0920 -0.1884
 1073YOPC   C4B14698   5.710  13.218   7.515  0.0931 -0.2498  0.0336
 1074YOPC   NC314699   2.117  18.052   5.578  0.1633 -0.0453 -0.0403
 1074YOPC   PO414700   1.832  18.396   5.431  0.0031 -0.0214 -0.1349
 1074YOPC   GL114701   1.744  18.431   5.865 -0.0091 -0.0055 -0.0344
 1074YOPC   GL214702   1.922  18.633   6.016  0.0834  0.0350  0.0550
 1074YOPC   C1A14703   1.390  18.414   6.281  0.0334  0.1105  0.1940
 1074YOPC   D2A14704   1.189  18.814   6.252 -0.1691 -0.1148 -0.0621
 1074YOPC   C3A14705   1.161  18.932   6.681 -0.2101  0.0818 -0.1093
 1074YOPC   C4A14706   1.248  19.080   6.933  0.0480  0.0720 -0.0535
 1074YOPC   C1B14707   2.172  18.515   6.343  0.1828 -0.0160 -0.1195
 1074YOPC   C2B14708   2.123  18.547   6.839  0.0193  0.2025  0.2149
 1074YOPC   D3B14709   1.868  18.506   7.127 -0.3125  0.2101 -0.0304
 1074YOPC   C4B14710   1.513  18.671   7.250  0.1692  0.1073  0.2135
 1075YOPC   NC314711  10.290  11.571   5.812 -0.1241  0.3245  0.2338
 1075YOPC   PO414712  10.693  11.662   5.688 -0.0113 -0.5415 -0.1716
 1075YOPC   GL114713  10.649  11.401   6.132  0.1743 -0.0657 -0.1883
 1075YOPC   GL214714  10.499  11.132   6.205 -0.1133  0.0554  0.1452
 1075YOPC   C1A14715  10.594  11.285   6.649 -0.1924  0.0510  0.1424
 1075YOPC   D2A14716  10.711  11.189   6.958 -0.3761  0.2125 -0.1305
 1075YOPC   C3A14717  10.766  11.375   7.375 -0.0958 -0.1068  0.3957
 1075YOPC   C4A14718  10.831  11.655   7.713  0.3450  0.2916 -0.1998
 1075YOPC   C1B14719  10.391  10.784   6.370  0.0242  0.2193 -0.2737
 1075YOPC   C2B14720  10.067  10.782   6.622 -0.0095  0.1493 -0.3472
 1075YOPC   D3B14721   9.940  10.815   6.976 -0.0003  0.0247  0.0821
 1075YOPC   C4B14722   9.882  11.051   7.382  0.0198 -0.1264 -0.3351
 1076YOPC   NC314723  12.053  14.443   6.103 -0.1007  0.2590  0.1131
 1076YOPC   PO414724  12.221  14.034   6.094  0.0812 -0.0163 -0.0874
 1076YOPC   GL114725  12.023  14.057   6.444 -0.0383  0.0550 -0.0048
 1076YOPC   GL214726  12.282  14.112   6.694 -0.0731  0.0855  0.1031
 1076YOPC   C1A14727  11.564  13.919   6.608 -0.3562 -0.1316 -0.1964
 1076YOPC   D2A14728  11.201  14.065   6.792  0.2327 -0.1537  0.0533
 1076YOPC   C3A14729  11.264  14.236   7.162  0.2795  0.0208  0.4356
 1076YOPC   C4A14730  11.404  14.121   7.601 -0.0156 -0.0086  0.0477
 1076YOPC   C1B14731  12.736  13.998   6.934  0.0814  0.2169 -0.2027
 1076YOPC   C2B14732  13.086  13.836   7.223 -0.1262 -0.2793 -0.0912
 1076YOPC   D3B14733  13.313  13.742   7.545  0.1960  0.2864  0.2443
 1076YOPC   C4B14734  13.307  13.769   8.015 -0.4408 -0.0884 -0.0454
 1077YOPC   NC314735   5.233   2.589   5.372 -0.1919 -0.1345 -0.3574
 1077YOPC   PO414736   5.096   2.135   5.454  0.0194  0.1594  0.3622
 1077YOPC   GL114737   5.060   2.041   5.955 -0.2265 -0.2297  0.1608
 1077YOPC   GL214738   5.107   1.850   6.125 -0.1695 -0.1631  0.3472
 1077YOPC   C1A14739   4.795   2.200   6.323 -0.3555 -0.0078 -0.1610
 1077YOPC   D2A14740   4.543   2.092   6.729  0.1478 -0.0915 -0.1996
 1077YOPC   C3A14741   4.313   2.092   7.124 -0.0888  0.1465  0.1188
 1077YOPC   C4A14742   4.056   1.818   7.363  0.1325  0.0861  0.1705
 1077YOPC   C1B14743   5.023   1.478   6.378 -0.0563 -0.0831  0.1467
 1077YOPC   C2B14744   4.709   1.175   6.433 -0.0581 -0.2487  0.1266
 1077YOPC   D3B14745   4.765   0.836   6.685  0.2377 -0.0180 -0.2288
 1077YOPC   C4B14746   4.688   0.666   7.126 -0.0879  0.1527  0.3050
 1078YOPC   NC314747   4.973   8.346   5.672  0.1264 -0.2800 -0.0238
 1078YOPC   PO414748   4.901   7.980   5.886  0.2403  0.1620 -0.0244
 1078YOPC   GL114749   4.891   8.199   6.161 -0.1581 -0.0243 -0.5097
 1078YOPC   GL214750   4.662   8.490   6.089  0.2079 -0.3316 -0.1565
 1078YOPC   C1A14751   4.691   8.371   6.594 -0.1168  0.1018  0.1472
 1078YOPC   D2A14752   4.575   8.123   6.985  0.2253 -0.3165 -0.0748
 1078YOPC   C3A14753   4.383   8.403   7.251 -0.1997 -0.0212 -0.2366
 1078YOPC   C4A14754   3.957   8.457   7.466  0.0273  0.0394  0.0299
 1078YOPC   C1B14755   4.832   8.830   6.400  0.1103 -0.0133  0.1478
 1078YOPC   C2B14756   4.847   9.253   6.296  0.0920  0.0744  0.0282
 1078YOPC   D3B14757   4.678   9.562   6.636 -0.1199  0.1565  0.2140
 1078YOPC   C4B14758   4.659  10.002   6.851 -0.0536  0.2920  0.0620
 1079YOPC   NC314759   6.606   7.850   5.492 -0.2899  0.0968 -0.0038
 1079YOPC   PO414760   6.334   8.094   5.819  0.0352 -0.1836  0.2482
 1079YOPC   GL114761   6.247   8.149   6.244 -0.1636 -0.0314 -0.0964
 1079YOPC   GL214762   6.028   7.848   6.236  0.1308  0.0712 -0.1826
 1079YOPC   C1A14763   6.228   7.955   6.640  0.0112 -0.2817 -0.1627
 1079YOPC   D2A14764   6.184   7.842   7.075 -0.0478  0.0662  0.0924
 1079YOPC   C3A14765   6.082   7.861   7.500 -0.0172  0.2690  0.2702
 1079YOPC   C4A14766   5.662   7.936   7.701  0.2158 -0.3705 -0.2311
 1079YOPC   C1B14767   5.725   7.756   6.578  0.2506 -0.0389  0.1308
 1079YOPC   C2B14768   5.614   7.724   7.101 -0.1057 -0.1891  0.1555
 1079YOPC   D3B14769   5.325   7.626   7.450 -0.0697 -0.1280 -0.1048
 1079YOPC   C4B14770   5.332   7.241   7.731 -0.0657  0.0231  0.0502
 1080YOPC   NC314771   1.074  16.857   5.557 -0.3164  0.2178 -0.0028
 1080YOPC   PO414772   0.743  16.926   5.633  0.1336 -0.2171 -0.0773
 1080YOPC   GL114773   0.651  17.206   6.013 -0.0092  0.0340 -0.0814
 1080YOPC   GL214774   0.498  17.043   6.268 -0.0171  0.1696 -0.0523
 1080YOPC   C1A14775   0.511  17.508   6.330  0.0751  0.0985  0.2324
 1080YOPC   D2A14776   0.501  17.762   6.615  0.2327 -0.0284 -0.1019
 1080YOPC   C3A14777   0.741  17.906   6.870 -0.0210  0.3988 -0.0745
 1080YOPC   C4A14778   1.052  18.058   7.123  0.0217  0.0293 -0.2326
 1080YOPC   C1B14779   0.372  16.904   6.650 -0.2781  0.3171  0.1450
 1080YOPC   C2B14780   0.222  16.847   6.953 -0.0099 -0.1607 -0.2402
 1080YOPC   D3B14781  -0.141  16.929   7.004  0.1490  0.0992  0.1828
 1080YOPC   C4B14782  -0.510  17.135   7.057  0.3375  0.4244  0.0229
 1081YOPC   NC314783   6.515   5.727   5.752 -0.0747 -0.1258 -0.2271
 1081YOPC   PO414784   6.333   5.320   5.714  0.0961 -0.1817 -0.3274
 1081YOPC   GL114785   5.972   5.192   5.907 -0.1421 -0.1038  0.0207
 1081YOPC   GL214786   5.916   4.890   5.912 -0.0263 -0.0804 -0.0380
 1081YOPC   C1A14787   5.697   5.282   6.370 -0.1148 -0.0505 -0.1802
 1081YOPC   D2A14788   5.476   5.491   6.547 -0.2954 -0.2310 -0.2478
 1081YOPC   C3A14789   5.497   5.383   6.919  0.0486  0.0578  0.0352
 1081YOPC   C4A14790   5.804   5.301   7.254  0.0682  0.1481 -0.1010
 1081YOPC   C1B14791   5.719   4.787   6.262 -0.0912 -0.0106  0.0820
 1081YOPC   C2B14792   5.653   4.793   6.588 -0.0867  0.0686 -0.3239
 1081YOPC   D3B14793   5.973   4.620   6.741  0.0578 -0.0494 -0.0543
 1081YOPC   C4B14794   6.250   4.313   6.722  0.3494  0.0150  0.1015
 1082YOPC   NC314795  12.419  13.622   5.953  0.1241  0.1874 -0.2054
 1082YOPC   PO414796  12.127  13.305   5.985  0.1176  0.2946  0.0894
 1082YOPC   GL114797  11.834  13.331   6.423  0.1173 -0.1431  0.0556
 1082YOPC   GL214798  12.095  13.557   6.473  0.0923 -0.0222 -0.1112
 1082YOPC   C1A14799  11.650  13.379   6.815  0.0978 -0.0220  0.2996
 1082YOPC   D2A14800  11.442  13.452   7.111  0.0264 -0.1564  0.3384
 1082YOPC   C3A14801  11.560  13.292   7.563  0.0657 -0.0397 -0.0955
 1082YOPC   C4A14802  11.271  13.230   7.887 -0.2330 -0.0158 -0.0904
 1082YOPC   C1B14803  12.058  13.652   6.827 -0.1115  0.0775 -0.0806
 1082YOPC   C2B14804  12.282  13.805   7.166 -0.0365  0.0075 -0.1007
 1082YOPC   D3B14805  12.278  13.737   7.615  0.0127  0.0812  0.1432
 1082YOPC   C4B14806  12.195  13.728   8.053  0.3513 -0.0001 -0.0434
 1083YOPC   NC314807   4.257  12.434   5.138 -0.3510 -0.0765  0.0341
 1083YOPC   PO414808   3.854  12.412   5.090 -0.0669  0.0312  0.0872
 1083YOPC   GL114809   3.533  12.385   5.549 -0.1886 -0.0266  0.0069
 1083YOPC   GL214810   3.216  12.558   5.585 -0.1121 -0.1678 -0.0124
 1083YOPC   C1A14811   3.590  12.041   5.837  0.0551 -0.2077  0.3595
 1083YOPC   D2A14812   3.715  11.875   6.180 -0.0274  0.0751 -0.2414
 1083YOPC   C3A14813   3.498  12.027   6.541 -0.0595  0.3060 -0.2131
 1083YOPC   C4A14814   3.224  12.274   6.513 -0.3164 -0.1015 -0.0487
 1083YOPC   C1B14815   3.122  12.198   5.853  0.2412  0.0498 -0.2935
 1083YOPC   C2B14816   3.197  11.868   6.120  0.0537 -0.4247 -0.2879
 1083YOPC   D3B14817   3.060  11.789   6.612 -0.3375  0.2009 -0.1527
 1083YOPC   C4B14818   3.298  11.974   6.949 -0.1747  0.1452 -0.0151
 1084YOPC   NC314819  13.468   6.957   5.428 -0.0209  0.0076 -0.2455
 1084YOPC   PO414820  13.561   6.657   5.760 -0.2999  0.0937 -0.1212
 1084YOPC   GL114821  13.647   6.434   6.018 -0.0965  0.2960  0.2733
 1084YOPC   GL214822  13.606   6.662   6.328  0.0888 -0.1323 -0.1246
 1084YOPC   C1A14823  13.630   6.094   6.338 -0.2752  0.1767  0.1151
 1084YOPC   D2A14824  13.567   5.616   6.453 -0.0828  0.2970  0.0606
 1084YOPC   C3A14825  13.412   5.444   6.772  0.1724  0.1516 -0.0398
 1084YOPC   C4A14826  13.160   4.986   6.799 -0.1968 -0.0459 -0.1141
 1084YOPC   C1B14827  13.620   6.541   6.729 -0.1472 -0.1395  0.2366
 1084YOPC   C2B14828  13.690   6.341   7.054  0.0476  0.0675 -0.1392
 1084YOPC   D3B14829  13.920   6.281   7.502 -0.1126  0.0610  0.0774
 1084YOPC   C4B14830  14.165   6.260   7.821 -0.0731  0.0265  0.0688
 1085YOPC   NC314831   4.774   5.252   5.144  0.0173  0.0865  0.2260
 1085YOPC   PO414832   4.609   5.182   5.533 -0.1307 -0.0759  0.0293
 1085YOPC   GL114833   4.769   5.035   5.931 -0.1872  0.2444 -0.2249
 1085YOPC   GL214834   4.696   4.729   5.847  0.0736  0.5379  0.0353
 1085YOPC   C1A14835   4.695   4.888   6.368 -0.0525 -0.0516  0.1553
 1085YOPC   D2A14836   4.650   4.523   6.602 -0.1539  0.3041  0.2836
 1085YOPC   C3A14837   4.719   4.094   6.396  0.2587  0.0549  0.2973
 1085YOPC   C4A14838   4.650   3.723   6.430 -0.2181  0.4203  0.0447
 1085YOPC   C1B14839   4.562   4.433   6.084 -0.0688  0.1266  0.0896
 1085YOPC   C2B14840   4.155   4.197   6.506  0.0581 -0.2258 -0.1208
 1085YOPC   D3B14841   4.286   3.864   6.771 -0.0175 -0.3590  0.2554
 1085YOPC   C4B14842   4.552   3.514   6.958 -0.0139  0.1318 -0.4008
 1086YOPC   NC314843   0.601  16.442   5.668  0.1048  0.1537  0.1885
 1086YOPC   PO414844   0.317  16.162   5.674 -0.0441  0.3553 -0.1633
 1086YOPC   GL114845   0.398  16.293   6.080 -0.1356  0.0398  0.2577
 1086YOPC   GL214846   0.687  16.188   6.214 -0.1167 -0.0418 -0.1167
 1086YOPC   C1A14847   0.324  16.386   6.488 -0.0577  0.3642 -0.3845
 1086YOPC   D2A14848   0.272  16.215   6.943  0.4510 -0.1729 -0.0235
 1086YOPC   C3A14849   0.184  15.784   6.879  0.0054 -0.1433 -0.0778
 1086YOPC   C4A14850   0.125  15.376   6.571  0.0571  0.1723 -0.4014
 1086YOPC   C1B14851   0.711  16.123   6.699 -0.2850 -0.1907 -0.1100
 1086YOPC   C2B14852   0.786  15.894   7.053  0.0971 -0.2724 -0.0818
 1086YOPC   D3B14853   0.478  15.924   7.420  0.3413 -0.0005  0.2884
 1086YOPC   C4B14854  -0.029  15.827   7.370  0.2055 -0.2529 -0.1249
 1087YOPC   NC314855  17.972  17.029   5.719 -0.2646  0.2378 -0.1686
 1087YOPC   PO414856  18.398  17.089   5.784 -0.1825 -0.0105 -0.1771
 1087YOPC   GL114857  18.383  16.937   6.169 -0.3357  0.0857  0.2018
 1087YOPC   GL214858  18.672  16.897   6.321  0.2077 -0.0458  0.0035
 1087YOPC   C1A14859  18.289  17.228   6.539 -0.2043 -0.1794  0.0168
 1087YOPC   D2A14860  18.249  17.532   6.676  0.0521  0.1148 -0.0257
 1087YOPC   C3A14861  18.081  17.659   7.070 -0.1454  0.2463  0.1436
 1087YOPC   C4A14862  17.662  17.531   7.235  0.0094  0.0118 -0.1325
 1087YOPC   C1B14863  18.583  16.589   6.651  0.2355  0.0904  0.1311
 1087YOPC   C2B14864  18.119  16.642   6.842  0.2745 -0.0153  0.1277
 1087YOPC   D3B14865  17.951  16.599   7.236 -0.0483  0.2883 -0.0884
 1087YOPC   C4B14866  17.852  16.611   7.683 -0.0652  0.0990  0.2787
 1088YOPC   NC314867  12.990  11.099   5.960 -0.0874  0.0134 -0.3424
 1088YOPC   PO414868  12.535  11.208   5.980  0.2004  0.2928  0.1421
 1088YOPC   GL114869  12.461  10.900   6.401 -0.0038  0.0016  0.1491
 1088YOPC   GL214870  12.211  11.047   6.470 -0.0160  0.1285 -0.0415
 1088YOPC   C1A14871  12.588  10.950   6.882  0.2531  0.2007  0.2245
 1088YOPC   D2A14872  12.397  10.906   7.274  0.1689 -0.5272 -0.1797
 1088YOPC   C3A14873  12.421  10.605   7.609 -0.2706  0.1610 -0.1280
 1088YOPC   C4A14874  12.147  10.319   7.736  0.1425  0.0854  0.0930
 1088YOPC   C1B14875  12.118  11.064   6.884  0.2163 -0.1479  0.1340
 1088YOPC   C2B14876  12.109  11.405   7.169 -0.1081 -0.1463 -0.0297
 1088YOPC   D3B14877  12.590  11.391   7.368  0.2223 -0.0696 -0.3183
 1088YOPC   C4B14878  12.999  11.585   7.513  0.3416 -0.1747 -0.0463
 1089YOPC   NC314879   4.039  16.713   5.021 -0.1841  0.1098 -0.0953
 1089YOPC   PO414880   4.159  16.801   5.452  0.0677 -0.3234  0.3318
 1089YOPC   GL114881   4.158  16.542   5.793  0.0455  0.5249 -0.0924
 1089YOPC   GL214882   3.950  16.453   6.106  0.1135 -0.0382 -0.1895
 1089YOPC   C1A14883   4.412  16.551   6.271 -0.0921  0.1869 -0.0323
 1089YOPC   D2A14884   4.441  16.574   6.636 -0.4260  0.2536 -0.0241
 1089YOPC   C3A14885   4.346  16.768   6.944 -0.1216  0.1057  0.1426
 1089YOPC   C4A14886   4.659  16.960   7.155 -0.2406 -0.0767  0.1625
 1089YOPC   C1B14887   4.072  16.229   6.485  0.1101  0.0884 -0.0786
 1089YOPC   C2B14888   4.216  16.226   6.905 -0.2312 -0.0546 -0.1417
 1089YOPC   D3B14889   4.168  15.985   7.264  0.0085  0.3119 -0.0458
 1089YOPC   C4B14890   4.252  15.785   7.626 -0.1154 -0.2729 -0.2087
 1090YOPC   NC314891  10.423   6.324   5.289 -0.5175 -0.1490 -0.0606
 1090YOPC   PO414892  10.649   6.618   5.508  0.2890 -0.0928 -0.2608
 1090YOPC   GL114893  10.686   6.687   5.926  0.1460 -0.3105 -0.3485
 1090YOPC   GL214894  10.826   6.424   5.960 -0.0421 -0.0091 -0.1183
 1090YOPC   C1A14895  10.742   6.902   6.309 -0.0010 -0.3903 -0.1979
 1090YOPC   D2A14896  10.934   7.102   6.638  0.2434  0.2346  0.3207
 1090YOPC   C3A14897  10.788   7.126   7.061 -0.1412 -0.0735 -0.0381
 1090YOPC   C4A14898  10.746   7.462   7.449 -0.1121  0.0651  0.0554
 1090YOPC   C1B14899  10.621   6.420   6.431 -0.0358  0.0011  0.0784
 1090YOPC   C2B14900  10.778   6.645   6.765 -0.1057  0.0597 -0.2534
 1090YOPC   D3B14901  10.782   6.421   7.171  0.2372 -0.2165 -0.0524
 1090YOPC   C4B14902  10.935   5.972   7.506  0.0462 -0.4938  0.1519
 1091YOPC   NC314903   5.503  18.629   5.950 -0.2194  0.0556  0.0602
 1091YOPC   PO414904   5.406  19.083   5.867 -0.0949 -0.2326  0.2604
 1091YOPC   GL114905   5.420  19.068   6.283 -0.0219  0.3536 -0.0053
 1091YOPC   GL214906   5.636  18.799   6.410 -0.3534  0.0747  0.3970
 1091YOPC   C1A14907   5.350  19.022   6.735  0.1567  0.2420 -0.0918
 1091YOPC   D2A14908   5.431  18.897   7.088  0.1020 -0.3706 -0.2994
 1091YOPC   C3A14909   5.359  19.006   7.512  0.2565  0.2544  0.1635
 1091YOPC   C4A14910   5.456  18.986   7.954  0.4082  0.0001 -0.1172
 1091YOPC   C1B14911   5.810  18.671   6.738 -0.0293 -0.3324  0.2667
 1091YOPC   C2B14912   5.998  18.837   7.130  0.0052  0.0262 -0.0172
 1091YOPC   D3B14913   6.013  19.022   7.555 -0.0797 -0.3325  0.0495
 1091YOPC   C4B14914   5.930  18.786   7.865  0.5652 -0.2657  0.0638
 1092YOPC   NC314915   2.112   4.416   4.977  0.2173 -0.1207 -0.0296
 1092YOPC   PO414916   2.070   4.807   5.159 -0.1761 -0.0705 -0.2269
 1092YOPC   GL114917   1.938   4.870   5.440  0.1711 -0.3528  0.0129
 1092YOPC   GL214918   1.753   5.109   5.406 -0.2662  0.0049  0.0330
 1092YOPC   C1A14919   1.798   4.762   5.790  0.0090  0.1620  0.2832
 1092YOPC   D2A14920   1.548   4.601   6.052 -0.2351 -0.3472  0.0017
 1092YOPC   C3A14921   1.353   4.771   6.435  0.0874  0.2522  0.0843
 1092YOPC   C4A14922   1.148   4.800   6.814 -0.1308 -0.0930  0.0603
 1092YOPC   C1B14923   1.455   5.056   5.598 -0.4408  0.0907 -0.1182
 1092YOPC   C2B14924   0.991   5.128   5.582 -0.0339 -0.1179  0.0982
 1092YOPC   D3B14925   0.708   5.218   5.969 -0.1638 -0.1694  0.0400
 1092YOPC   C4B14926   0.546   5.423   6.373  0.1581  0.0825  0.1612
 1093YOPC   NC314927   3.874  18.151   5.649  0.2162 -0.1556 -0.1934
 1093YOPC   PO414928   3.370  17.858   5.577 -0.0565 -0.0144 -0.3741
 1093YOPC   GL114929   3.542  17.850   6.009 -0.1973  0.4702 -0.3222
 1093YOPC   GL214930   3.835  18.110   6.114 -0.0378 -0.0422 -0.1325
 1093YOPC   C1A14931   3.662  17.551   6.332 -0.0651  0.2685  0.3048
 1093YOPC   D2A14932   3.897  17.443   6.643 -0.0380 -0.1013 -0.0247
 1093YOPC   C3A14933   3.789  17.511   7.044 -0.0631 -0.1159 -0.1788
 1093YOPC   C4A14934   3.689  17.432   7.381  0.3927  0.1813 -0.0140
 1093YOPC   C1B14935   3.782  17.976   6.500  0.1667 -0.3216  0.0584
 1093YOPC   C2B14936   3.503  17.935   6.871  0.2866 -0.1531 -0.2060
 1093YOPC   D3B14937   3.108  18.232   6.775  0.2889 -0.1109  0.0758
 1093YOPC   C4B14938   2.719  18.342   6.628 -0.1027  0.0285  0.0725
 1094YOPC   NC314939  13.788  10.784   5.709  0.0284  0.0892 -0.0884
 1094YOPC   PO414940  13.934  11.179   5.593 -0.0428  0.1551 -0.0970
 1094YOPC   GL114941  14.113  11.055   5.959  0.1008 -0.0840  0.1882
 1094YOPC   GL214942  14.119  10.686   6.066  0.0792  0.2494 -0.1547
 1094YOPC   C1A14943  14.491  10.969   6.288  0.2013 -0.2475  0.0841
 1094YOPC   D2A14944  14.479  10.914   6.699 -0.1459 -0.0524 -0.0921
 1094YOPC   C3A14945  14.629  11.191   7.076  0.1529  0.0187 -0.2438
 1094YOPC   C4A14946  14.445  11.316   7.523  0.3720 -0.2481  0.2075
 1094YOPC   C1B14947  14.085  10.648   6.457 -0.1440 -0.0919 -0.0109
 1094YOPC   C2B14948  13.936  10.657   6.810  0.0745 -0.0601  0.1448
 1094YOPC   D3B14949  14.138  10.597   7.015  0.0016 -0.4629  0.3571
 1094YOPC   C4B14950  14.215  10.393   7.381 -0.2326 -0.0070  0.2068
 1095YOPC   NC314951   9.204  15.795   5.749 -0.0542 -0.0417 -0.1264
 1095YOPC   PO414952   8.791  16.032   5.639 -0.0471 -0.0899 -0.0048
 1095YOPC   GL114953   8.772  15.875   6.088  0.2971  0.0759  0.2429
 1095YOPC   GL214954   8.580  15.763   6.097 -0.0454  0.2043  0.0916
 1095YOPC   C1A14955   8.759  15.950   6.551  0.1511  0.1387  0.1510
 1095YOPC   D2A14956   8.882  16.106   6.995  0.1754  0.5338 -0.2663
 1095YOPC   C3A14957   8.790  15.963   7.361 -0.3058  0.1633  0.0701
 1095YOPC   C4A14958   8.959  15.942   7.754 -0.1369  0.0934  0.5292
 1095YOPC   C1B14959   8.652  15.452   6.434  0.0569 -0.1643  0.0083
 1095YOPC   C2B14960   8.894  15.135   6.477 -0.1916  0.0112  0.0631
 1095YOPC   D3B14961   8.804  14.794   6.306 -0.2287 -0.2365  0.2492
 1095YOPC   C4B14962   8.638  14.490   6.559  0.1766  0.2694 -0.0195
 1096YOPC   NC314963   8.363  11.758   5.441  0.4197 -0.1028 -0.2417
 1096YOPC   PO414964   8.585  12.206   5.396 -0.2504  0.5113 -0.3742
 1096YOPC   GL114965   8.423  12.202   5.733  0.0247  0.3104 -0.1376
 1096YOPC   GL214966   8.643  12.518   5.912  0.1854 -0.2818 -0.0618
 1096YOPC   C1A14967   8.081  12.188   6.007 -0.1805 -0.0590 -0.2657
 1096YOPC   D2A14968   7.777  11.954   6.234  0.1883  0.0245  0.0088
 1096YOPC   C3A14969   7.848  11.604   6.374  0.0492  0.0860 -0.3043
 1096YOPC   C4A14970   8.245  11.341   6.570 -0.0376 -0.1169  0.1566
 1096YOPC   C1B14971   8.928  12.440   6.267  0.1829 -0.1440  0.1835
 1096YOPC   C2B14972   8.928  12.411   6.740 -0.3005 -0.0980  0.1588
 1096YOPC   D3B14973   8.778  12.675   7.040 -0.0044  0.1072 -0.1551
 1096YOPC   C4B14974   8.919  12.702   7.524 -0.1483  0.1589 -0.3378
 1097YOPC   NC314975   1.472  15.558   5.791  0.1787 -0.0529 -0.1244
 1097YOPC   PO414976   1.376  15.135   5.926  0.0956  0.0540 -0.0956
 1097YOPC   GL114977   1.328  14.937   6.327 -0.0963 -0.2439 -0.0059
 1097YOPC   GL214978   1.644  14.874   6.292 -0.1994  0.3022 -0.1101
 1097YOPC   C1A14979   1.191  14.828   6.708  0.0103 -0.1772  0.2406
 1097YOPC   D2A14980   1.352  14.872   7.063  0.1916 -0.0017  0.3142
 1097YOPC   C3A14981   1.231  14.822   7.405  0.0609 -0.1639  0.0615
 1097YOPC   C4A14982   0.947  14.993   7.653  0.3652  0.0409 -0.3647
 1097YOPC   C1B14983   1.682  14.770   6.651  0.2417  0.0288  0.0803
 1097YOPC   C2B14984   1.640  14.437   6.870 -0.0067  0.0601 -0.0396
 1097YOPC   D3B14985   1.227  14.383   7.104 -0.2356 -0.0232  0.1577
 1097YOPC   C4B14986   0.929  14.470   7.422 -0.2347  0.1297  0.1584
 1098YOPC   NC314987  13.086   6.743   5.770 -0.3063 -0.0484  0.1152
 1098YOPC   PO414988  12.687   6.753   5.956  0.1971  0.0501  0.0526
 1098YOPC   GL114989  12.866   6.665   6.241 -0.0013 -0.0048  0.1592
 1098YOPC   GL214990  13.164   6.490   6.331  0.1996 -0.0473  0.1051
 1098YOPC   C1A14991  12.671   6.756   6.593  0.3863 -0.0907 -0.1533
 1098YOPC   D2A14992  12.795   6.982   6.919 -0.0920 -0.3337 -0.3215
 1098YOPC   C3A14993  12.585   6.903   7.304 -0.3083  0.1660  0.1655
 1098YOPC   C4A14994  12.632   6.850   7.795 -0.1222  0.0024  0.3361
 1098YOPC   C1B14995  13.028   6.313   6.623  0.1609 -0.4296 -0.0635
 1098YOPC   C2B14996  12.644   6.432   6.988  0.0296  0.3171  0.0431
 1098YOPC   D3B14997  12.692   6.247   7.409 -0.2184 -0.1790  0.0412
 1098YOPC   C4B14998  12.706   6.306   7.879  0.0776 -0.0682 -0.0311
 1099YOPC   NC314999  12.064   5.756   5.698  0.4013  0.0361 -0.0162
 1099YOPC   PO415000  11.645   5.881   5.807  0.2356 -0.0212  0.1558
 1099YOPC   GL115001  11.353   5.856   6.182 -0.1436  0.0483 -0.1190
 1099YOPC   GL215002  11.005   6.027   6.205 -0.0930  0.0100  0.0867
 1099YOPC   C1A15003  11.404   5.874   6.662 -0.0551 -0.2211  0.1421
 1099YOPC   D2A15004  11.325   5.589   6.990 -0.0622 -0.4858 -0.0942
 1099YOPC   C3A15005  11.643   5.459   7.182  0.3324  0.1843 -0.1081
 1099YOPC   C4A15006  11.767   5.424   7.628  0.2871  0.2207 -0.0175
 1099YOPC   C1B15007  10.821   5.862   6.515 -0.0183  0.2504 -0.0603
 1099YOPC   C2B15008  10.704   6.097   6.832  0.3042 -0.1545  0.0433
 1099YOPC   D3B15009  10.461   5.992   7.256  0.1705  0.1249  0.0642
 1099YOPC   C4B15010  10.193   6.014   7.617 -0.1744 -0.2027  0.2335
 1100YOPC   NC315011  11.673   6.690   5.713  0.0505  0.0278 -0.0481
 1100YOPC   PO415012  11.915   6.371   5.944 -0.1478  0.1594 -0.1133
 1100YOPC   GL115013  12.129   6.534   6.370 -0.0956  0.1371  0.3310
 1100YOPC   GL215014  12.373   6.339   6.438 -0.0121 -0.0892  0.2039
 1100YOPC   C1A15015  12.134   6.685   6.734  0.1213 -0.0174 -0.1811
 1100YOPC   D2A15016  12.211   6.709   7.103 -0.3532  0.0662  0.5184
 1100YOPC   C3A15017  12.276   6.481   7.460  0.0876  0.0357 -0.1081
 1100YOPC   C4A15018  12.261   6.177   7.668 -0.0243 -0.2107  0.0988
 1100YOPC   C1B15019  12.193   6.106   6.793 -0.3303 -0.1512  0.0595
 1100YOPC   C2B15020  12.236   6.027   7.152 -0.1817  0.2883 -0.0597
 1100YOPC   D3B15021  11.884   5.826   7.357  0.1119 -0.1379  0.1455
 1100YOPC   C4B15022  11.670   5.875   7.821  0.0917  0.1819  0.2502
 1101YOPC   NC315023  18.015   2.907   5.203 -0.2658 -0.1688  0.2126
 1101YOPC   PO415024  18.147   2.569   5.422  0.1116 -0.1659 -0.0353
 1101YOPC   GL115025  17.980   2.526   5.849 -0.1913 -0.0167  0.0620
 1101YOPC   GL215026  18.139   2.309   5.971 -0.1648  0.2179  0.0069
 1101YOPC   C1A15027  17.840   2.735   6.222 -0.0713  0.0863 -0.1109
 1101YOPC   D2A15028  18.009   2.684   6.741 -0.1283  0.2186 -0.2189
 1101YOPC   C3A15029  18.411   2.839   6.800  0.1596 -0.0971 -0.1720
 1101YOPC   C4A15030  18.635   3.002   7.199 -0.0384  0.1858 -0.0588
 1101YOPC   C1B15031  17.881   2.061   6.226  0.0707  0.1645  0.1121
 1101YOPC   C2B15032  17.459   1.912   6.503  0.4471  0.1973 -0.3892
 1101YOPC   D3B15033  17.275   2.080   6.841 -0.1579 -0.0169  0.1284
 1101YOPC   C4B15034  17.408   2.389   7.082  0.1795 -0.0255 -0.2568
 1102YOPC   NC315035  15.278  18.140   5.845 -0.1037 -0.1886  0.0508
 1102YOPC   PO415036  15.419  17.778   5.711  0.1675 -0.0735  0.2684
 1102YOPC   GL115037  15.486  17.806   6.121  0.0702  0.0358 -0.4215
 1102YOPC   GL215038  15.345  17.618   6.360  0.1314 -0.1846  0.0696
 1102YOPC   C1A15039  15.749  17.905   6.561  0.2453  0.2928 -0.2726
 1102YOPC   D2A15040  16.020  17.737   6.901  0.1160  0.2243  0.4195
 1102YOPC   C3A15041  15.898  17.425   7.283 -0.4476  0.0933  0.2640
 1102YOPC   C4A15042  15.587  17.458   7.623  0.0288  0.0724  0.1430
 1102YOPC   C1B15043  15.307  17.737   6.703 -0.1362  0.0580 -0.0232
 1102YOPC   C2B15044  15.462  17.593   7.045  0.1219  0.2109  0.0968
 1102YOPC   D3B15045  15.625  17.894   7.309 -0.0090 -0.1729 -0.0135
 1102YOPC   C4B15046  15.507  17.927   7.758  0.0268 -0.2439  0.0799
 1103YOPC   NC315047   1.649   4.553   5.186 -0.1160  0.1719  0.1685
 1103YOPC   PO415048   1.835   4.062   5.222  0.2176  0.0438 -0.2073
 1103YOPC   GL115049   1.964   4.288   5.474  0.0120 -0.0697 -0.2260
 1103YOPC   GL215050   2.262   4.317   5.424  0.1472 -0.0421  0.1596
 1103YOPC   C1A15051   1.908   4.187   6.031  0.0251 -0.1169 -0.1140
 1103YOPC   D2A15052   1.890   4.348   6.387  0.0508 -0.0395 -0.1377
 1103YOPC   C3A15053   2.312   4.585   6.566  0.1207  0.3109 -0.2739
 1103YOPC   C4A15054   2.359   4.749   6.954 -0.2219 -0.1564 -0.2840
 1103YOPC   C1B15055   2.390   4.241   5.779 -0.0790  0.1946  0.1219
 1103YOPC   C2B15056   2.374   4.512   6.055 -0.0089 -0.2547  0.1421
 1103YOPC   D3B15057   2.739   4.619   6.185 -0.3218  0.1039  0.0833
 1103YOPC   C4B15058   3.092   4.755   6.386 -0.2258  0.2086  0.0071
 1104YOPC   NC315059  11.461  15.789   5.732 -0.1925  0.0396 -0.0373
 1104YOPC   PO415060  11.102  15.487   5.801  0.3207  0.0462  0.0435
 1104YOPC   GL115061  10.838  15.584   6.155 -0.0595 -0.0005  0.0570
 1104YOPC   GL215062  10.591  15.510   6.032  0.0635 -0.0771  0.1854
 1104YOPC   C1A15063  10.813  15.962   6.393  0.1332 -0.0953  0.2635
 1104YOPC   D2A15064  10.511  16.306   6.521 -0.0881  0.4191 -0.0194
 1104YOPC   C3A15065  10.357  16.245   6.987 -0.0151  0.0868 -0.0986
 1104YOPC   C4A15066  10.167  16.365   7.348  0.1116 -0.2024 -0.2435
 1104YOPC   C1B15067  10.538  15.445   6.548 -0.2088 -0.2228 -0.1124
 1104YOPC   C2B15068  10.468  15.742   6.876 -0.0461 -0.0605 -0.2237
 1104YOPC   D3B15069  10.366  15.705   7.242  0.1396  0.1433 -0.2781
 1104YOPC   C4B15070  10.534  15.518   7.511 -0.1457  0.0146  0.1232
 1105YOPC   NC315071   1.021  14.884   4.747 -0.0503 -0.0106  0.0272
 1105YOPC   PO415072   0.935  14.802   5.196  0.1420 -0.0302 -0.4365
 1105YOPC   GL115073   0.836  14.800   5.680 -0.0948 -0.0362 -0.0566
 1105YOPC   GL215074   0.881  14.967   6.046 -0.0148 -0.0814 -0.1391
 1105YOPC   C1A15075   0.447  14.749   5.975 -0.0229  0.0124  0.1966
 1105YOPC   D2A15076   0.278  14.522   6.298 -0.1760  0.0503 -0.0938
 1105YOPC   C3A15077   0.564  14.232   6.315  0.1030  0.0280  0.0280
 1105YOPC   C4A15078   0.639  13.799   6.183  0.1686  0.1258 -0.2853
 1105YOPC   C1B15079   0.784  14.642   6.366  0.0795 -0.2235 -0.0283
 1105YOPC   C2B15080   0.598  14.419   6.763  0.2526 -0.5378 -0.3028
 1105YOPC   D3B15081   0.311  14.474   6.994  0.3369 -0.0248  0.0615
 1105YOPC   C4B15082   0.196  14.406   7.412  0.1220 -0.0609 -0.0858
 1106YOPC   NC315083   2.236  11.259   4.963 -0.1342  0.0167  0.1036
 1106YOPC   PO415084   2.679  11.423   5.040  0.2382  0.0922 -0.0053
 1106YOPC   GL115085   2.472  11.296   5.459 -0.0696 -0.0390  0.2051
 1106YOPC   GL215086   2.202  11.231   5.528  0.2323 -0.0095  0.0572
 1106YOPC   C1A15087   2.463  11.448   5.896 -0.0115  0.0935  0.0618
 1106YOPC   D2A15088   2.275  11.733   6.112  0.1744 -0.2066 -0.1199
 1106YOPC   C3A15089   1.837  11.702   6.250 -0.2225  0.0118 -0.0629
 1106YOPC   C4A15090   1.462  11.522   6.214 -0.0163 -0.3485  0.1431
 1106YOPC   C1B15091   2.100  11.681   5.663 -0.2551 -0.0971  0.1204
 1106YOPC   C2B15092   2.440  12.077   5.744 -0.4002 -0.1864  0.2577
 1106YOPC   D3B15093   2.209  12.522   5.736 -0.0045  0.0503 -0.0541
 1106YOPC   C4B15094   2.075  12.919   5.850 -0.0164 -0.1277 -0.1833
 1107YOPC   NC315095  17.397  11.409   4.613  0.2565 -0.0838  0.1805
 1107YOPC   PO415096  17.484  11.351   5.042 -0.3152  0.0460 -0.0632
 1107YOPC   GL115097  17.651  11.186   5.437 -0.0314 -0.0794 -0.1565
 1107YOPC   GL215098  17.734  10.838   5.429 -0.2828  0.1252 -0.0036
 1107YOPC   C1A15099  17.425  10.937   5.847  0.0783 -0.0725  0.0407
 1107YOPC   D2A15100  17.409  10.559   6.062 -0.3821  0.3742  0.0502
 1107YOPC   C3A15101  17.608  10.454   6.472  0.3000 -0.3601  0.1663
 1107YOPC   C4A15102  17.454  10.037   6.732 -0.0178 -0.0439 -0.2406
 1107YOPC   C1B15103  17.731  10.545   5.679 -0.2785 -0.2310  0.2558
 1107YOPC   C2B15104  17.838  10.311   6.055  0.0138  0.2052 -0.0371
 1107YOPC   D3B15105  18.236  10.047   5.936 -0.0752  0.1855  0.2135
 1107YOPC   C4B15106  18.404   9.615   6.095  0.0025  0.0866  0.0784
 1108YOPC   NC315107  14.470   7.096   5.175 -0.1077 -0.1346  0.1029
 1108YOPC   PO415108  14.433   6.866   5.585 -0.1579  0.2658 -0.3476
 1108YOPC   GL115109  14.390   6.745   6.027 -0.2589 -0.0021  0.3621
 1108YOPC   GL215110  14.713   6.698   5.971 -0.0329  0.1376 -0.0487
 1108YOPC   C1A15111  14.080   6.874   6.423 -0.4144  0.0992  0.0600
 1108YOPC   D2A15112  14.142   7.078   6.743  0.4211 -0.0201 -0.0581
 1108YOPC   C3A15113  13.790   7.211   6.999 -0.2458  0.2654  0.4035
 1108YOPC   C4A15114  13.676   7.195   7.374 -0.0146  0.0301  0.0231
 1108YOPC   C1B15115  14.925   6.762   6.315 -0.2763  0.0293 -0.0679
 1108YOPC   C2B15116  14.993   6.818   6.699 -0.0102  0.0728 -0.1453
 1108YOPC   D3B15117  14.910   6.477   6.987 -0.0970  0.1663  0.0159
 1108YOPC   C4B15118  14.894   6.089   7.291  0.2450  0.1570 -0.1465
 1109YOPC   NC315119  15.184   5.568   5.264 -0.0774  0.0957  0.1196
 1109YOPC   PO415120  14.949   5.996   5.352 -0.0228  0.0867 -0.1679
 1109YOPC   GL115121  15.010   6.091   5.795 -0.0285 -0.0517  0.3939
 1109YOPC   GL215122  14.722   6.009   5.906  0.0048  0.1753  0.2994
 1109YOPC   C1A15123  15.123   6.328   6.125 -0.2132  0.1057 -0.1046
 1109YOPC   D2A15124  15.053   6.312   6.550 -0.1029 -0.2194  0.0424
 1109YOPC   C3A15125  15.350   6.248   6.801 -0.0747 -0.0113  0.0640
 1109YOPC   C4A15126  15.378   6.080   7.162  0.1652 -0.0868 -0.2451
 1109YOPC   C1B15127  14.827   5.987   6.287 -0.4030 -0.1570 -0.1740
 1109YOPC   C2B15128  14.840   5.924   6.754 -0.2242  0.0275  0.3302
 1109YOPC   D3B15129  14.851   5.575   7.118 -0.0552 -0.0314  0.0986
 1109YOPC   C4B15130  15.052   5.466   7.428  0.3015 -0.1356  0.0443
 1110YOPC   NC315131   1.128   6.410   4.870  0.2418  0.0789  0.0497
 1110YOPC   PO415132   0.925   6.093   5.039  0.2950 -0.0583  0.0630
 1110YOPC   GL115133   0.928   6.028   5.530 -0.1191 -0.0346 -0.0201
 1110YOPC   GL215134   1.164   5.974   5.721  0.0331 -0.1948 -0.2323
 1110YOPC   C1A15135   0.671   6.049   5.922  0.3027  0.2524  0.1091
 1110YOPC   D2A15136   0.588   6.146   6.338  0.1573  0.1123 -0.1676
 1110YOPC   C3A15137   0.716   6.177   6.780  0.2299 -0.3439  0.1350
 1110YOPC   C4A15138   1.001   6.474   6.761  0.0711 -0.1117  0.0904
 1110YOPC   C1B15139   0.929   5.621   5.993  0.0830  0.2005  0.1122
 1110YOPC   C2B15140   1.023   5.353   6.361  0.1699 -0.1880  0.0163
 1110YOPC   D3B15141   0.810   4.942   6.440  0.0001 -0.0488 -0.1155
 1110YOPC   C4B15142   0.624   4.655   6.747  0.1264  0.0729  0.0871
 1111YOPC   NC315143   9.060   5.642   5.771 -0.2817  0.0385  0.1315
 1111YOPC   PO415144   8.936   6.089   5.788 -0.0933 -0.1351 -0.2356
 1111YOPC   GL115145   8.920   5.851   6.178  0.1211 -0.0138 -0.0555
 1111YOPC   GL215146   9.148   5.787   6.359 -0.0427 -0.1140 -0.1852
 1111YOPC   C1A15147   8.803   5.469   6.470  0.2911  0.1336 -0.1293
 1111YOPC   D2A15148   9.063   5.331   6.975 -0.0875  0.1709  0.1028
 1111YOPC   C3A15149   8.737   5.331   7.320 -0.0787  0.1216 -0.2266
 1111YOPC   C4A15150   8.515   5.397   7.607  0.2403 -0.4135  0.0011
 1111YOPC   C1B15151   9.170   5.805   6.790 -0.0270  0.1359  0.3480
 1111YOPC   C2B15152   9.155   5.846   7.200 -0.2490 -0.0665 -0.0177
 1111YOPC   D3B15153   9.239   5.526   7.469 -0.0883  0.2136 -0.0624
 1111YOPC   C4B15154   9.572   5.233   7.630  0.0680  0.0440 -0.2443
 1112YOPC   NC315155   5.686   8.906   5.771  0.5439  0.0369 -0.0854
 1112YOPC   PO415156   5.310   9.045   6.046 -0.3078 -0.0966 -0.1830
 1112YOPC   GL115157   5.270   8.956   6.491 -0.1079 -0.5600  0.1169
 1112YOPC   GL215158   5.229   9.282   6.585 -0.1849 -0.1312  0.0208
 1112YOPC   C1A15159   5.214   9.046   6.983 -0.1290 -0.0989  0.2802
 1112YOPC   D2A15160   4.942   8.920   7.292 -0.0015 -0.3744 -0.2003
 1112YOPC   C3A15161   5.015   9.188   7.520 -0.0215 -0.1529  0.5285
 1112YOPC   C4A15162   5.201   9.338   7.858  0.0779 -0.4847  0.1318
 1112YOPC   C1B15163   5.085   9.482   6.994  0.2321 -0.1362 -0.1731
 1112YOPC   C2B15164   4.804   9.655   7.260 -0.1173  0.1630 -0.2216
 1112YOPC   D3B15165   4.782  10.056   7.392  0.0491 -0.0472 -0.2858
 1112YOPC   C4B15166   4.855  10.048   7.899  0.5474 -0.1903  0.2215
 1113YOPC   NC315167   1.521   7.770   5.002 -0.0660  0.1093 -0.0918
 1113YOPC   PO415168   1.731   8.009   5.394 -0.1938 -0.0048 -0.0776
 1113YOPC   GL115169   2.090   7.873   5.628  0.0688 -0.0036 -0.3124
 1113YOPC   GL215170   2.368   8.144   5.820 -0.0065  0.0619 -0.0760
 1113YOPC   C1A15171   2.437   7.622   5.839  0.0080 -0.0274 -0.1323
 1113YOPC   D2A15172   2.747   7.287   6.103  0.0829  0.0665  0.0967
 1113YOPC   C3A15173   2.690   7.151   6.527  0.0647 -0.1516  0.0645
 1113YOPC   C4A15174   2.547   7.277   6.885  0.2665 -0.1401 -0.0638
 1113YOPC   C1B15175   2.621   8.165   6.188  0.0438  0.0573  0.2193
 1113YOPC   C2B15176   2.757   8.206   6.614  0.0391 -0.1318 -0.1774
 1113YOPC   D3B15177   2.645   8.199   7.091  0.0339 -0.4372 -0.2025
 1113YOPC   C4B15178   2.408   8.007   7.432 -0.1637 -0.2096  0.0102
 1114YOPC   NC315179  13.631  14.162   5.504  0.1492 -0.3557 -0.0269
 1114YOPC   PO415180  13.469  14.529   5.602 -0.2729  0.0635 -0.1437
 1114YOPC   GL115181  13.517  14.444   6.042 -0.2985  0.2553 -0.1079
 1114YOPC   GL215182  13.307  14.726   6.223  0.0696  0.1748  0.0907
 1114YOPC   C1A15183  13.464  14.419   6.526 -0.3981 -0.1866 -0.2192
 1114YOPC   D2A15184  13.317  13.976   6.726  0.4243 -0.1890  0.3979
 1114YOPC   C3A15185  13.512  13.657   6.969 -0.0801 -0.0968 -0.2385
 1114YOPC   C4A15186  13.783  13.701   7.227  0.2883  0.3154  0.1587
 1114YOPC   C1B15187  13.417  14.951   6.517  0.3270 -0.0605 -0.1491
 1114YOPC   C2B15188  13.468  14.862   6.933 -0.1299 -0.1864  0.2824
 1114YOPC   D3B15189  13.672  14.490   7.016 -0.1902 -0.1106 -0.1101
 1114YOPC   C4B15190  13.522  14.111   7.292 -0.0836 -0.3117  0.1425
 1115YOPC   NC315191  14.668   2.748   5.208  0.0747  0.0513  0.2600
 1115YOPC   PO415192  14.683   2.694   5.695  0.1626  0.0242  0.0177
 1115YOPC   GL115193  14.492   2.640   6.040 -0.1288  0.0300 -0.1464
 1115YOPC   GL215194  14.246   2.597   6.090 -0.1795 -0.3655  0.0292
 1115YOPC   C1A15195  14.678   2.474   6.535  0.4692 -0.1180 -0.3983
 1115YOPC   D2A15196  14.520   2.513   6.925 -0.1345  0.0889  0.1684
 1115YOPC   C3A15197  14.731   2.468   7.229 -0.2594 -0.1700 -0.0204
 1115YOPC   C4A15198  15.087   2.204   7.339 -0.1667 -0.0794  0.2048
 1115YOPC   C1B15199  14.149   2.525   6.545  0.1088  0.1815  0.5315
 1115YOPC   C2B15200  14.027   2.586   6.904 -0.1413 -0.1229 -0.3012
 1115YOPC   D3B15201  13.788   2.257   7.180  0.3380  0.0704 -0.2305
 1115YOPC   C4B15202  13.853   1.764   7.351  0.2048 -0.1244 -0.4911
 1116YOPC   NC315203   7.799   6.868   5.551 -0.3069  0.2883 -0.0336
 1116YOPC   PO415204   7.494   7.267   5.513  0.2415  0.1775  0.1234
 1116YOPC   GL115205   7.526   7.670   5.852  0.2512  0.4756  0.0308
 1116YOPC   GL215206   7.794   7.850   5.869 -0.2679  0.3034  0.0838
 1116YOPC   C1A15207   7.497   7.611   6.244 -0.1706 -0.2155  0.1981
 1116YOPC   D2A15208   7.543   7.581   6.696  0.1743 -0.5265 -0.1746
 1116YOPC   C3A15209   7.554   7.386   7.098  0.3010  0.0379  0.3088
 1116YOPC   C4A15210   7.581   7.367   7.567 -0.3668 -0.1300 -0.0923
 1116YOPC   C1B15211   7.789   7.977   6.392 -0.0015 -0.2575  0.1972
 1116YOPC   C2B15212   8.059   7.893   6.744 -0.2738 -0.1746  0.2147
 1116YOPC   D3B15213   8.161   8.071   7.147 -0.0743 -0.3077  0.0463
 1116YOPC   C4B15214   8.181   8.263   7.392 -0.2332 -0.2301  0.0471
 1117YOPC   NC315215  10.933   5.635   5.912  0.0847  0.1256  0.1129
 1117YOPC   PO415216  11.216   5.378   5.782 -0.0845 -0.2720 -0.1297
 1117YOPC   GL115217  11.240   5.153   6.144  0.1437 -0.2375  0.0251
 1117YOPC   GL215218  11.308   5.398   6.422  0.1198  0.2297  0.0117
 1117YOPC   C1A15219  10.883   5.020   6.357  0.0679  0.0394  0.0416
 1117YOPC   D2A15220  10.648   4.891   6.821  0.0350  0.0791  0.0240
 1117YOPC   C3A15221  10.692   4.923   7.249 -0.0920 -0.1972  0.0536
 1117YOPC   C4A15222  10.781   4.681   7.689  0.1954  0.1127  0.2522
 1117YOPC   C1B15223  11.028   5.203   6.773 -0.5084  0.0406 -0.2421
 1117YOPC   C2B15224  11.048   5.225   7.259  0.1782 -0.1652 -0.1739
 1117YOPC   D3B15225  11.033   5.083   7.675  0.0435  0.1637  0.3378
 1117YOPC   C4B15226  11.259   4.737   7.835 -0.4262  0.0139 -0.2346
 1118YOPC   NC315227   1.614   8.962   4.950  0.2015  0.2331  0.2934
 1118YOPC   PO415228   1.860   9.119   5.305  0.0467  0.1789  0.1395
 1118YOPC   GL115229   1.765   8.916   5.599  0.3565  0.1574  0.0764
 1118YOPC   GL215230   1.408   8.881   5.528  0.1362 -0.1448  0.2576
 1118YOPC   C1A15231   2.020   8.994   5.972  0.2633 -0.1455 -0.0899
 1118YOPC   D2A15232   2.020   8.858   6.424  0.0205  0.1249 -0.2994
 1118YOPC   C3A15233   1.967   9.002   6.821 -0.0599  0.5491  0.2058
 1118YOPC   C4A15234   2.065   9.407   7.057 -0.4054 -0.4348 -0.1608
 1118YOPC   C1B15235   1.379   8.954   6.009  0.0022  0.1111  0.2308
 1118YOPC   C2B15236   1.245   9.299   6.234 -0.2187  0.0552  0.0286
 1118YOPC   D3B15237   1.249   9.301   6.614 -0.1634 -0.0218  0.2416
 1118YOPC   C4B15238   1.516   9.326   6.965  0.1266 -0.2678 -0.3278
 1119YOPC   NC315239  17.772  12.723   5.485  0.1926 -0.0022 -0.0528
 1119YOPC   PO415240  17.860  13.145   5.300 -0.1256  0.1233  0.0423
 1119YOPC   GL115241  17.502  13.203   5.617 -0.2970  0.2228  0.0707
 1119YOPC   GL215242  17.327  12.948   5.652  0.4181 -0.1588 -0.0348
 1119YOPC   C1A15243  17.467  13.313   6.017 -0.1283  0.1731  0.1275
 1119YOPC   D2A15244  17.495  13.263   6.401 -0.1675  0.0050 -0.0411
 1119YOPC   C3A15245  17.780  13.177   6.539 -0.1397  0.1216  0.4469
 1119YOPC   C4A15246  17.909  13.053   6.995  0.1252 -0.1633 -0.2006
 1119YOPC   C1B15247  17.479  12.812   6.145 -0.1021 -0.0728  0.1433
 1119YOPC   C2B15248  17.607  12.733   6.642 -0.4112  0.1764  0.0299
 1119YOPC   D3B15249  17.442  13.099   6.856 -0.0435  0.1197  0.1254
 1119YOPC   C4B15250  17.125  13.257   7.253  0.0980 -0.1393  0.1970
 1120YOPC   NC315251   3.426   3.351   5.465  0.1072  0.1188  0.0655
 1120YOPC   PO415252   3.530   2.999   5.671 -0.2106 -0.0362  0.2725
 1120YOPC   GL115253   3.469   3.251   5.932 -0.0336  0.2409 -0.2090
 1120YOPC   GL215254   3.291   3.612   5.937  0.2196  0.0477  0.1237
 1120YOPC   C1A15255   3.538   3.402   6.321 -0.0425 -0.3271 -0.0467
 1120YOPC   D2A15256   3.722   3.422   6.626  0.2744  0.1189  0.0751
 1120YOPC   C3A15257   3.981   3.489   6.918  0.0470 -0.0759 -0.1564
 1120YOPC   C4A15258   3.979   3.756   7.329  0.3844 -0.0005 -0.0080
 1120YOPC   C1B15259   3.153   3.770   6.253 -0.1044 -0.0038  0.1629
 1120YOPC   C2B15260   3.221   3.685   6.653 -0.3444 -0.1719  0.0561
 1120YOPC   D3B15261   3.370   3.856   7.041 -0.1809 -0.2591 -0.1810
 1120YOPC   C4B15262   3.508   3.799   7.495  0.0088 -0.2028  0.0983
 1121YOPC   NC315263   1.508   1.040   5.277 -0.0390  0.1813 -0.0244
 1121YOPC   PO415264   1.905   0.786   5.226  0.1719 -0.2109  0.2249
 1121YOPC   GL115265   2.075   0.726   5.640 -0.3397  0.1122  0.3794
 1121YOPC   GL215266   2.067   1.065   5.864  0.1759  0.0961  0.1154
 1121YOPC   C1A15267   1.900   0.476   6.048 -0.0403 -0.0484  0.0619
 1121YOPC   D2A15268   1.684   0.153   6.402 -0.1357 -0.0673  0.1310
 1121YOPC   C3A15269   1.653   0.214   6.792  0.4313 -0.3683 -0.0322
 1121YOPC   C4A15270   1.812   0.361   7.127 -0.1510 -0.0253 -0.0934
 1121YOPC   C1B15271   1.830   0.912   6.295  0.2357 -0.2155  0.2623
 1121YOPC   C2B15272   1.901   0.590   6.562  0.1004 -0.4127  0.0568
 1121YOPC   D3B15273   2.164   0.397   6.459  0.0002 -0.3068  0.1407
 1121YOPC   C4B15274   2.567   0.159   6.543 -0.2314  0.0187 -0.1569
 1122YOPC   NC315275   3.265   9.703   5.030 -0.1494 -0.0910  0.1342
 1122YOPC   PO415276   3.188   9.878   5.361 -0.1697  0.3534 -0.3076
 1122YOPC   GL115277   3.206  10.077   5.682 -0.2839 -0.1934 -0.0875
 1122YOPC   GL215278   3.324  10.462   5.702  0.3933  0.1058  0.1038
 1122YOPC   C1A15279   3.281  10.149   6.162  0.1186  0.0180 -0.0165
 1122YOPC   D2A15280   3.086  10.254   6.689  0.2283 -0.0706 -0.0300
 1122YOPC   C3A15281   2.882  10.548   6.963 -0.1764 -0.1492 -0.0639
 1122YOPC   C4A15282   3.048  10.690   7.321 -0.1029  0.1517  0.0006
 1122YOPC   C1B15283   3.021  10.580   6.100 -0.1171  0.2986  0.0686
 1122YOPC   C2B15284   3.095  10.793   6.559 -0.0431  0.0573  0.0358
 1122YOPC   D3B15285   3.104  10.987   6.867 -0.0284 -0.2608 -0.2642
 1122YOPC   C4B15286   2.872  11.435   6.896  0.2113 -0.0820 -0.0558
 1123YOPC   NC315287  12.944  17.816   5.594 -0.0723 -0.0631 -0.1015
 1123YOPC   PO415288  13.062  17.910   5.931 -0.2465  0.3582  0.1822
 1123YOPC   GL115289  13.286  17.988   6.286  0.4304  0.2666 -0.1396
 1123YOPC   GL215290  12.920  18.023   6.499 -0.1116 -0.1596  0.1840
 1123YOPC   C1A15291  13.662  17.938   6.591  0.1141  0.0559 -0.1743
 1123YOPC   D2A15292  13.758  18.053   7.020  0.0711 -0.0450 -0.2572
 1123YOPC   C3A15293  13.559  17.937   7.397 -0.3828  0.1127  0.2894
 1123YOPC   C4A15294  13.592  17.763   7.797  0.1696  0.2776  0.1046
 1123YOPC   C1B15295  12.847  18.317   6.822  0.1274 -0.2464 -0.2747
 1123YOPC   C2B15296  12.806  18.208   7.351 -0.0061  0.1490  0.1272
 1123YOPC   D3B15297  12.872  18.400   7.793 -0.1345  0.1401 -0.1334
 1123YOPC   C4B15298  12.941  18.464   8.237 -0.2213  0.0429  0.1666
 1124YOPC   NC315299  12.707   9.810   5.876 -0.0311  0.2297 -0.2387
 1124YOPC   PO415300  12.298   9.781   5.711 -0.1114 -0.0737 -0.0996
 1124YOPC   GL115301  12.068   9.965   6.095 -0.0255 -0.4767  0.0793
 1124YOPC   GL215302  11.703   9.992   6.113 -0.1647  0.0834  0.1448
 1124YOPC   C1A15303  12.051  10.158   6.513  0.0882  0.0373  0.0311
 1124YOPC   D2A15304  12.410  10.414   6.710  0.2513  0.0201 -0.2697
 1124YOPC   C3A15305  12.127  10.505   7.015  0.0323 -0.2902 -0.1627
 1124YOPC   C4A15306  11.932  10.139   7.359  0.0460  0.3101  0.1648
 1124YOPC   C1B15307  11.654   9.811   6.553 -0.3071  0.2303 -0.1068
 1124YOPC   C2B15308  11.722   9.768   6.935 -0.1146 -0.0301 -0.1307
 1124YOPC   D3B15309  11.788   9.678   7.372  0.0526  0.1197  0.3094
 1124YOPC   C4B15310  11.676   9.943   7.760 -0.0608  0.0850 -0.2461
 1125YOPC   NC315311   8.377  13.254   5.510 -0.0012 -0.0613  0.0888
 1125YOPC   PO415312   7.981  13.085   5.659  0.0385  0.3084 -0.2095
 1125YOPC   GL115313   8.012  13.123   6.055 -0.2171 -0.1672 -0.0728
 1125YOPC   GL215314   8.022  12.747   6.270  0.0114  0.0282  0.0551
 1125YOPC   C1A15315   8.073  13.349   6.480  0.0969 -0.0325  0.0574
 1125YOPC   D2A15316   7.989  13.364   6.952  0.4178 -0.0973  0.1093
 1125YOPC   C3A15317   8.214  13.663   7.202 -0.1001 -0.1456 -0.1008
 1125YOPC   C4A15318   8.237  14.078   7.430 -0.1067 -0.3294  0.0968
 1125YOPC   C1B15319   7.879  12.876   6.651  0.2871  0.1257  0.1173
 1125YOPC   C2B15320   7.726  12.921   7.092 -0.0812  0.0718 -0.1573
 1125YOPC   D3B15321   7.823  13.230   7.432 -0.0263 -0.2168  0.0945
 1125YOPC   C4B15322   7.860  13.342   7.823  0.1062  0.0074 -0.2881
 1126YOPC   NC315323   4.218  14.546   5.771  0.0551 -0.4635 -0.2100
 1126YOPC   PO415324   3.926  14.629   5.593 -0.2062  0.0085 -0.1602
 1126YOPC   GL115325   3.706  14.529   6.004 -0.0622  0.1114 -0.2676
 1126YOPC   GL215326   3.470  14.733   6.012 -0.1655 -0.0503  0.1617
 1126YOPC   C1A15327   3.750  14.346   6.344 -0.0140 -0.0292 -0.0375
 1126YOPC   D2A15328   3.621  14.353   6.754  0.0500 -0.4384  0.0581
 1126YOPC   C3A15329   3.948  14.320   6.984  0.0776 -0.0866  0.2712
 1126YOPC   C4A15330   4.108  14.364   7.325  0.5324  0.1030  0.2682
 1126YOPC   C1B15331   3.348  14.583   6.420  0.0094  0.1075  0.2345
 1126YOPC   C2B15332   3.057  14.213   6.611 -0.0938 -0.3362 -0.1802
 1126YOPC   D3B15333   3.318  13.924   6.748  0.4541  0.0101  0.0772
 1126YOPC   C4B15334   3.279  13.722   7.020  0.4321 -0.3330 -0.4621
 1127YOPC   NC315335  17.397   4.051   5.094 -0.1729  0.0075  0.2340
 1127YOPC   PO415336  17.523   3.546   5.032 -0.0240  0.0688  0.2645
 1127YOPC   GL115337  17.467   3.648   5.342 -0.0057  0.2038 -0.0725
 1127YOPC   GL215338  17.506   3.373   5.525 -0.0330  0.0535  0.2051
 1127YOPC   C1A15339  17.478   3.911   5.751 -0.2041 -0.0525  0.0653
 1127YOPC   D2A15340  17.449   4.045   6.158 -0.0521 -0.1086  0.0769
 1127YOPC   C3A15341  17.817   4.046   6.293 -0.0107  0.0281  0.3501
 1127YOPC   C4A15342  18.154   3.948   5.997 -0.1595  0.2217 -0.3443
 1127YOPC   C1B15343  17.288   3.463   5.934  0.1877 -0.0363 -0.1372
 1127YOPC   C2B15344  17.228   3.398   6.375 -0.0717 -0.1915 -0.0291
 1127YOPC   D3B15345  17.411   3.728   6.663 -0.3049 -0.1254 -0.3122
 1127YOPC   C4B15346  17.421   4.133   6.683  0.1095 -0.0428  0.2747
 1128YOPC   NC315347   2.612   7.932   5.079  0.2872  0.0402  0.1130
 1128YOPC   PO415348   2.985   7.601   5.122  0.0381  0.0516 -0.2409
 1128YOPC   GL115349   3.198   7.551   5.528  0.0745 -0.0529 -0.2099
 1128YOPC   GL215350   2.939   7.462   5.673  0.2606  0.1430 -0.1405
 1128YOPC   C1A15351   3.261   7.086   5.650 -0.1046  0.4366 -0.1941
 1128YOPC   D2A15352   3.287   6.761   5.887 -0.3251 -0.1521  0.0048
 1128YOPC   C3A15353   3.321   6.840   6.271  0.1769  0.0918 -0.2764
 1128YOPC   C4A15354   3.028   6.750   6.665  0.4537 -0.3181 -0.0250
 1128YOPC   C1B15355   2.938   7.723   6.057  0.0096  0.0631  0.6596
 1128YOPC   C2B15356   2.593   7.680   6.431  0.1329 -0.1098 -0.1618
 1128YOPC   D3B15357   2.173   7.832   6.328 -0.1479 -0.2476 -0.1121
 1128YOPC   C4B15358   1.788   8.042   6.093 -0.0380 -0.1190  0.0855
 1129YOPC   NC315359   1.157   3.637   5.611  0.1439 -0.0821 -0.0504
 1129YOPC   PO415360   1.518   3.593   5.341 -0.2809  0.1524  0.0543
 1129YOPC   GL115361   1.815   3.676   5.578 -0.0076  0.1130  0.1125
 1129YOPC   GL215362   1.678   3.931   5.705 -0.2352  0.2591 -0.2525
 1129YOPC   C1A15363   2.150   3.810   5.850 -0.0348 -0.1452  0.0564
 1129YOPC   D2A15364   2.346   4.037   6.254  0.1117 -0.0747 -0.1028
 1129YOPC   C3A15365   2.711   4.002   6.439 -0.3337 -0.2706  0.1342
 1129YOPC   C4A15366   2.720   4.377   6.725 -0.2643  0.0369  0.0430
 1129YOPC   C1B15367   1.451   4.108   6.012  0.4361 -0.2455 -0.1113
 1129YOPC   C2B15368   1.388   4.103   6.467 -0.0964 -0.0867  0.2820
 1129YOPC   D3B15369   1.526   4.371   6.716 -0.0867 -0.1781 -0.0448
 1129YOPC   C4B15370   1.897   4.595   6.857  0.0147 -0.1281 -0.3360
 1130YOPC   NC315371   2.994  15.484   6.047  0.1908 -0.0689  0.3191
 1130YOPC   PO415372   3.392  15.264   5.957 -0.1254 -0.0953 -0.0508
 1130YOPC   GL115373   3.433  15.112   6.343 -0.1178  0.0265  0.2671
 1130YOPC   GL215374   3.739  15.248   6.400 -0.1384 -0.0834  0.0576
 1130YOPC   C1A15375   3.436  14.886   6.839 -0.3549  0.0512 -0.0156
 1130YOPC   D2A15376   3.690  14.732   7.120  0.1350 -0.1592  0.2788
 1130YOPC   C3A15377   3.590  14.659   7.397 -0.0779  0.1873 -0.4458
 1130YOPC   C4A15378   3.253  14.492   7.619 -0.1037 -0.0878 -0.2426
 1130YOPC   C1B15379   3.876  14.861   6.509 -0.0010  0.1570  0.2029
 1130YOPC   C2B15380   4.145  14.655   6.732  0.3599 -0.1717  0.1503
 1130YOPC   D3B15381   4.184  14.869   7.172  0.1708 -0.1553  0.0439
 1130YOPC   C4B15382   3.974  15.116   7.488 -0.0370  0.1597 -0.0576
 1131YOPC   NC315383  12.255   7.989   5.284  0.2855 -0.3805 -0.1332
 1131YOPC   PO415384  12.241   7.955   5.791 -0.0186 -0.2872  0.1425
 1131YOPC   GL115385  12.053   7.949   6.129 -0.0156 -0.1155  0.4203
 1131YOPC   GL215386  11.737   8.066   6.156  0.0055  0.0917  0.0935
 1131YOPC   C1A15387  12.176   8.173   6.526  0.1133  0.0215 -0.0151
 1131YOPC   D2A15388  12.251   8.454   6.910  0.1816 -0.0434  0.2465
 1131YOPC   C3A15389  12.073   8.202   7.357  0.0127 -0.1321  0.0132
 1131YOPC   C4A15390  11.735   8.202   7.641  0.0880  0.2518 -0.0454
 1131YOPC   C1B15391  11.789   8.440   6.421 -0.0992  0.0148 -0.1368
 1131YOPC   C2B15392  11.959   8.798   6.699  0.0024  0.2966  0.2175
 1131YOPC   D3B15393  12.292   9.144   6.520  0.0771  0.2469  0.2191
 1131YOPC   C4B15394  12.350   9.137   6.139 -0.2058  0.1104 -0.0922
 1132YOPC   NC315395  16.325   9.758   5.457 -0.0200  0.0325 -0.0022
 1132YOPC   PO415396  16.143  10.163   5.674 -0.0004  0.3556  0.0223
 1132YOPC   GL115397  15.953  10.006   6.035 -0.3250  0.4006 -0.2470
 1132YOPC   GL215398  15.624  10.000   5.993 -0.2967  0.0935 -0.0562
 1132YOPC   C1A15399  15.885   9.899   6.469  0.0470  0.0984  0.0956
 1132YOPC   D2A15400  15.642   9.692   6.717 -0.2953  0.1379  0.0440
 1132YOPC   C3A15401  15.402   9.341   6.485  0.0413  0.0091  0.1139
 1132YOPC   C4A15402  15.060   9.098   6.319 -0.2052  0.2069  0.3505
 1132YOPC   C1B15403  15.411   9.802   6.307 -0.0281  0.3557  0.2271
 1132YOPC   C2B15404  15.156   9.851   6.800  0.0036  0.0050  0.1392
 1132YOPC   D3B15405  15.358   9.736   7.169 -0.0501  0.1018  0.0282
 1132YOPC   C4B15406  15.432   9.536   7.560  0.1981  0.0274  0.1692
 1133YOPC   NC315407  12.354   1.408   6.264  0.1095  0.1944  0.2166
 1133YOPC   PO415408  12.386   1.123   5.997  0.2139 -0.0085 -0.0443
 1133YOPC   GL115409  12.389   0.822   6.395 -0.0010 -0.0276 -0.1501
 1133YOPC   GL215410  12.025   0.807   6.447  0.1462 -0.1194  0.0079
 1133YOPC   C1A15411  12.428   0.735   6.834  0.1439 -0.0634  0.2081
 1133YOPC   D2A15412  12.095   0.705   7.127  0.0053 -0.0866 -0.3025
 1133YOPC   C3A15413  12.109   0.984   7.415 -0.0716 -0.2009 -0.3688
 1133YOPC   C4A15414  12.193   1.320   7.658  0.2260 -0.0295  0.0056
 1133YOPC   C1B15415  11.853   0.894   6.801  0.2919 -0.1039 -0.1436
 1133YOPC   C2B15416  11.330   0.837   6.802 -0.0432 -0.1616 -0.1097
 1133YOPC   D3B15417  11.165   0.718   7.160  0.0994  0.0270  0.0194
 1133YOPC   C4B15418  11.110   0.536   7.597 -0.0051 -0.0598 -0.1123
 1134YOPC   NC315419   6.877   7.126   5.451  0.1579 -0.2675 -0.1285
 1134YOPC   PO415420   6.576   6.768   5.641  0.3146 -0.1809 -0.1298
 1134YOPC   GL115421   6.411   6.595   5.944  0.0258  0.2582 -0.1208
 1134YOPC   GL215422   6.622   6.630   6.236 -0.0821 -0.1605  0.0434
 1134YOPC   C1A15423   6.064   6.461   6.182 -0.1609 -0.2134  0.2721
 1134YOPC   D2A15424   5.854   6.639   6.559 -0.0746 -0.0107  0.1081
 1134YOPC   C3A15425   5.739   7.054   6.651 -0.3935  0.0256  0.1567
 1134YOPC   C4A15426   5.957   7.369   6.859 -0.1582  0.1737 -0.0504
 1134YOPC   C1B15427   6.463   6.417   6.473  0.0995  0.1185  0.0296
 1134YOPC   C2B15428   6.111   6.161   6.614  0.2309  0.0832  0.1370
 1134YOPC   D3B15429   5.901   6.274   7.009 -0.0149  0.1056 -0.0097
 1134YOPC   C4B15430   5.682   6.446   7.345 -0.2337  0.3119  0.3154
 1135YOPC   NC315431  15.131   6.398   5.174 -0.1491 -0.0878  0.0458
 1135YOPC   PO415432  14.808   6.756   5.230 -0.0752 -0.1022  0.0720
 1135YOPC   GL115433  15.150   6.844   5.418  0.0039 -0.2473  0.0617
 1135YOPC   GL215434  15.241   6.645   5.656 -0.1525  0.2119 -0.1574
 1135YOPC   C1A15435  15.175   7.277   5.580 -0.0955 -0.2944 -0.0177
 1135YOPC   D2A15436  15.374   7.622   5.798  0.0457 -0.1494  0.2913
 1135YOPC   C3A15437  15.261   7.796   6.098 -0.0260 -0.1075 -0.2778
 1135YOPC   C4A15438  15.001   7.958   6.466 -0.0043 -0.4252  0.0487
 1135YOPC   C1B15439  15.322   6.871   6.080 -0.4586  0.1447 -0.2117
 1135YOPC   C2B15440  15.503   6.741   6.425  0.1890 -0.3674  0.0043
 1135YOPC   D3B15441  15.575   6.344   6.353 -0.1220 -0.0932 -0.1769
 1135YOPC   C4B15442  15.546   6.059   6.009 -0.0404  0.0439 -0.1471
 1136YOPC   NC315443  15.667   2.277   5.058 -0.3451 -0.0788 -0.1622
 1136YOPC   PO415444  15.584   2.363   5.475  0.1905 -0.0530 -0.3201
 1136YOPC   GL115445  15.675   2.062   5.847  0.0932 -0.2723 -0.2532
 1136YOPC   GL215446  15.551   2.304   6.085  0.3207  0.1476 -0.0372
 1136YOPC   C1A15447  15.948   1.989   6.164  0.0743 -0.0246  0.1181
 1136YOPC   D2A15448  15.970   1.857   6.610 -0.0292 -0.1226 -0.4107
 1136YOPC   C3A15449  16.145   2.145   6.918 -0.1988  0.1079  0.0318
 1136YOPC   C4A15450  16.387   2.574   6.824  0.1685 -0.0050 -0.3025
 1136YOPC   C1B15451  15.824   2.321   6.473 -0.1823 -0.4384  0.0446
 1136YOPC   C2B15452  16.225   2.288   6.479  0.0224 -0.0431 -0.0571
 1136YOPC   D3B15453  16.574   2.563   6.318 -0.0278 -0.1093  0.2839
 1136YOPC   C4B15454  16.857   2.945   6.204 -0.0507 -0.0178  0.1549
 1137YOPC   NC315455   7.177   2.390   6.009  0.0961 -0.0967 -0.0599
 1137YOPC   PO415456   7.576   2.652   5.886  0.1078 -0.1655  0.1381
 1137YOPC   GL115457   7.405   2.804   6.229 -0.3047  0.0919 -0.5372
 1137YOPC   GL215458   7.695   2.948   6.306  0.1568  0.3097  0.0387
 1137YOPC   C1A15459   7.214   2.796   6.499  0.1987 -0.0477  0.0984
 1137YOPC   D2A15460   7.080   2.882   6.984 -0.0591 -0.1724  0.1307
 1137YOPC   C3A15461   6.802   2.788   7.398 -0.3085  0.3135 -0.0903
 1137YOPC   C4A15462   6.691   2.897   7.811 -0.1939  0.3378  0.1131
 1137YOPC   C1B15463   7.572   2.998   6.786  0.1096  0.2010 -0.2697
 1137YOPC   C2B15464   7.600   2.803   7.150 -0.0469 -0.0513  0.1005
 1137YOPC   D3B15465   7.315   3.002   7.443  0.0942 -0.1498 -0.1792
 1137YOPC   C4B15466   7.122   3.227   7.777  0.1999  0.5385 -0.1252
 1138YOPC   NC315467   8.878  10.561   5.491  0.0474  0.2039 -0.0264
 1138YOPC   PO415468   8.574  10.881   5.572  0.0726 -0.0850 -0.0785
 1138YOPC   GL115469   8.362  10.936   5.904  0.0586 -0.5550 -0.1743
 1138YOPC   GL215470   8.520  11.183   6.002 -0.0097 -0.1106 -0.0585
 1138YOPC   C1A15471   8.028  11.214   6.086  0.2888  0.0632 -0.2988
 1138YOPC   D2A15472   7.706  11.033   6.361 -0.0388  0.0933 -0.0995
 1138YOPC   C3A15473   7.969  10.926   6.759  0.3530  0.1420  0.1405
 1138YOPC   C4A15474   8.116  10.829   7.120  0.1804  0.1110  0.0462
 1138YOPC   C1B15475   8.797  11.152   6.387  0.2884  0.0346 -0.0930
 1138YOPC   C2B15476   8.944  11.385   6.709 -0.4946  0.2064 -0.2532
 1138YOPC   D3B15477   8.716  11.463   7.096 -0.0841 -0.2520 -0.2464
 1138YOPC   C4B15478   8.599  11.421   7.559 -0.3810  0.0432  0.1563
 1139YOPC   NC315479   2.543   9.358   5.661 -0.0435 -0.4123 -0.2192
 1139YOPC   PO415480   2.881   9.117   5.587 -0.2811  0.0445  0.0530
 1139YOPC   GL115481   3.058   9.245   5.990 -0.3196  0.0566  0.0967
 1139YOPC   GL215482   2.772   9.116   6.096 -0.1053 -0.2321  0.0653
 1139YOPC   C1A15483   3.277   9.232   6.366  0.1221  0.2301  0.3554
 1139YOPC   D2A15484   3.217   9.144   6.803  0.3135 -0.1693  0.2950
 1139YOPC   C3A15485   2.934   9.261   7.162 -0.1488 -0.1184 -0.0676
 1139YOPC   C4A15486   2.605   9.537   7.069  0.0554 -0.1487 -0.4232
 1139YOPC   C1B15487   2.802   9.061   6.533  0.0609  0.2711  0.1054
 1139YOPC   C2B15488   2.796   8.804   6.915  0.2061 -0.2175  0.3123
 1139YOPC   D3B15489   3.171   8.797   7.208 -0.0710 -0.0443  0.0401
 1139YOPC   C4B15490   3.296   9.072   7.566  0.1122  0.2014 -0.1437
 1140YOPC   NC315491  18.267   4.062   5.235  0.0130  0.1092  0.0528
 1140YOPC   PO415492  18.592   3.747   5.149  0.1223 -0.1772  0.0369
 1140YOPC   GL115493  18.838   4.014   5.312  0.1015  0.2572  0.1510
 1140YOPC   GL215494  18.583   3.958   5.646  0.3171  0.0235 -0.0596
 1140YOPC   C1A15495  18.868   4.346   5.459 -0.1346  0.0982 -0.0779
 1140YOPC   D2A15496  19.265   4.406   5.752 -0.0431  0.4055  0.1765
 1140YOPC   C3A15497  19.275   4.628   6.177 -0.0573 -0.0988  0.0703
 1140YOPC   C4A15498  18.969   4.946   6.369 -0.0819 -0.1451 -0.1670
 1140YOPC   C1B15499  19.006   3.964   5.827 -0.0983 -0.0232  0.0458
 1140YOPC   C2B15500  19.094   4.190   6.208  0.0284  0.2986 -0.1620
 1140YOPC   D3B15501  18.868   4.451   6.520  0.2201 -0.3922  0.1694
 1140YOPC   C4B15502  18.480   4.660   6.697  0.0089 -0.0040 -0.0271
 1141YOPC   NC315503  18.276  13.308   5.015  0.0105  0.1339 -0.1205
 1141YOPC   PO415504  18.499  13.082   4.865 -0.1991 -0.0274 -0.0139
 1141YOPC   GL115505  18.508  12.967   5.269 -0.0741 -0.2355 -0.2173
 1141YOPC   GL215506  18.827  12.871   5.360 -0.1042 -0.2772  0.3945
 1141YOPC   C1A15507  18.341  12.927   5.711 -0.2057  0.1825  0.0418
 1141YOPC   D2A15508  17.913  12.995   5.866  0.0063 -0.1719 -0.1152
 1141YOPC   C3A15509  17.990  12.778   6.255  0.0994  0.0773 -0.0386
 1141YOPC   C4A15510  18.076  12.805   6.594  0.1727 -0.3472 -0.0179
 1141YOPC   C1B15511  18.726  12.574   5.662  0.0704  0.1761 -0.0652
 1141YOPC   C2B15512  18.982  12.423   6.023  0.1376 -0.1156 -0.0215
 1141YOPC   D3B15513  19.159  12.669   6.337 -0.0522 -0.2914  0.1447
 1141YOPC   C4B15514  19.017  12.710   6.775 -0.0235  0.0484  0.1104
 1142YOPC   NC315515   9.493   0.385   6.356 -0.1406  0.0799 -0.1699
 1142YOPC   PO415516   9.703   0.712   6.088 -0.2339 -0.4095 -0.0492
 1142YOPC   GL115517   9.927   0.731   6.492 -0.4051  0.0154 -0.4603
 1142YOPC   GL215518  10.289   0.702   6.422  0.1769 -0.0029  0.0971
 1142YOPC   C1A15519   9.736   0.879   6.825 -0.0408 -0.0262  0.0948
 1142YOPC   D2A15520   9.737   0.914   7.296 -0.0372 -0.3243 -0.0700
 1142YOPC   C3A15521   9.976   1.323   7.406 -0.1035  0.0202  0.1884
 1142YOPC   C4A15522  10.113   1.715   7.552 -0.1471  0.4101  0.2582
 1142YOPC   C1B15523  10.476   0.602   6.864 -0.1046 -0.0257 -0.0699
 1142YOPC   C2B15524  10.653   0.559   7.250 -0.1045  0.1981  0.0601
 1142YOPC   D3B15525  10.600   0.332   7.640 -0.2221 -0.0813 -0.1992
 1142YOPC   C4B15526  10.520   0.188   8.146 -0.0262 -0.1249 -0.0358
 1143YOPC   NC315527  15.745   2.729   5.748 -0.1702  0.1795  0.0414
 1143YOPC   PO415528  15.852   3.097   5.927  0.0351 -0.2894 -0.1947
 1143YOPC   GL115529  16.023   3.357   6.232 -0.1018  0.2359  0.1556
 1143YOPC   GL215530  16.244   3.120   6.442 -0.0078 -0.0166 -0.0880
 1143YOPC   C1A15531  15.975   3.496   6.686  0.0964  0.1078 -0.0715
 1143YOPC   D2A15532  15.726   3.520   7.141 -0.0389  0.1318  0.1124
 1143YOPC   C3A15533  16.025   3.725   7.475  0.0655 -0.2437 -0.0489
 1143YOPC   C4A15534  16.206   4.038   7.628  0.0991  0.0759  0.0098
 1143YOPC   C1B15535  16.575   3.035   6.666 -0.0701  0.3304  0.1798
 1143YOPC   C2B15536  17.001   3.219   6.778 -0.0927  0.3289  0.1197
 1143YOPC   D3B15537  16.880   3.421   7.090 -0.1149  0.0625 -0.0652
 1143YOPC   C4B15538  17.101   3.537   7.414  0.1673 -0.0040 -0.1392
 1144ERGO   ROH15539   2.336   6.558   5.522 -0.3103  0.1241  0.0426
 1144ERGO    R115540   2.201   6.698   5.728 -0.2814  0.2184 -0.0010
 1144ERGO    R215541   2.275   6.678   5.994 -0.4352  0.0956  0.0361
 1144ERGO    R315542   2.286   6.949   5.977 -0.1601  0.0900  0.0886
 1144ERGO    R415543   2.251   6.895   6.263 -0.2483  0.0712  0.0727
 1144ERGO    R515544   2.128   7.026   6.140 -0.1022  0.2191  0.0835
 1144ERGO    C115545   2.248   7.275   6.403  0.1187  0.0516  0.1433
 1144ERGO    C215546   2.136   7.444   6.720  0.2789 -0.0276 -0.2929
 1145ERGO   ROH15547  18.312  18.275   6.104 -0.1450 -0.1411  0.0521
 1145ERGO    R115548  18.501  18.389   6.282 -0.1629  0.0142 -0.0281
 1145ERGO    R215549  18.426  18.527   6.509 -0.1813 -0.0477  0.0024
 1145ERGO    R315550  18.592  18.350   6.632  0.0193  0.0877 -0.0660
 1145ERGO    R415551  18.471  18.504   6.851 -0.2626 -0.2190  0.0026
 1145ERGO    R515552  18.684  18.473   6.816 -0.2049  0.0911  0.0483
 1145ERGO    C115553  18.652  18.324   7.165 -0.1218 -0.1916 -0.0615
 1145ERGO    C215554  18.865  18.353   7.445  0.0560  0.1124 -0.3060
 1146ERGO   ROH15555  13.730   8.004   6.032 -0.0767 -0.0270 -0.0814
 1146ERGO    R115556  13.757   7.816   6.243 -0.0816  0.1595  0.0880
 1146ERGO    R215557  13.976   7.648   6.266 -0.1983  0.0135  0.1008
 1146ERGO    R315558  13.990   7.756   6.515  0.0578  0.2473 -0.0088
 1146ERGO    R415559  14.121   7.496   6.541 -0.4345 -0.0010  0.2198
 1146ERGO    R515560  13.957   7.571   6.663 -0.2767  0.4458  0.1849
 1146ERGO    C115561  14.218   7.509   6.934 -0.3316  0.2101  0.1864
 1146ERGO    C215562  14.157   7.416   7.285 -0.0420 -0.1968 -0.1902
 1147ERGO   ROH15563  13.339  18.472   6.432  0.3115 -0.1546 -0.0673
 1147ERGO    R115564  13.372  18.376   6.696  0.3623 -0.0706 -0.0431
 1147ERGO    R215565  13.511  18.515   6.889  0.0909  0.1633 -0.0157
 1147ERGO    R315566  13.281  18.486   7.031  0.0829 -0.1556 -0.0863
 1147ERGO    R415567  13.493  18.500   7.234  0.0232  0.1042 -0.0215
 1147ERGO    R515568  13.342  18.343   7.214  0.2276 -0.1001 -0.0838
 1147ERGO    C115569  13.267  18.464   7.567 -0.0240 -0.2294 -0.0912
 1147ERGO    C215570  13.300  18.581   7.876  0.3825  0.0334  0.4408
 1148ERGO   ROH15571  12.999   2.616   6.625 -0.4639  0.0196  0.1289
 1148ERGO    R115572  12.914   2.720   6.874 -0.2268  0.0293  0.2088
 1148ERGO    R215573  12.784   2.565   7.063 -0.2608  0.0940  0.2392
 1148ERGO    R315574  12.983   2.654   7.226 -0.0834 -0.1327  0.1517
 1148ERGO    R415575  12.815   2.486   7.398 -0.3504  0.2602  0.2874
 1148ERGO    R515576  12.875   2.693   7.436  0.0062  0.1903  0.1437
 1148ERGO    C115577  13.019   2.524   7.746 -0.2360  0.1440  0.2334
 1148ERGO    C215578  13.214   2.479   7.938  0.4228 -0.0884  0.2052
 1149ERGO   ROH15579  17.331   6.951   5.753  0.1013  0.0818  0.1336
 1149ERGO    R115580  17.281   6.805   5.990 -0.1536  0.1830  0.1460
 1149ERGO    R215581  17.484   6.699   6.145 -0.3315 -0.1670  0.1494
 1149ERGO    R315582  17.362   6.839   6.343 -0.0839  0.0682  0.1417
 1149ERGO    R415583  17.562   6.675   6.481 -0.3683 -0.2880  0.1496
 1149ERGO    R515584  17.349   6.685   6.526 -0.3583  0.0958  0.1508
 1149ERGO    C115585  17.493   6.792   6.862 -0.1573 -0.1377  0.1425
 1149ERGO    C215586  17.600   6.891   7.191 -0.2522  0.0815 -0.0006
 1150ERGO   ROH15587  12.566   7.860   6.154  0.2458 -0.1271  0.1483
 1150ERGO    R115588  12.497   7.718   6.388  0.2676 -0.1253  0.1558
 1150ERGO    R215589  12.650   7.725   6.618  0.0796  0.2016  0.2759
 1150ERGO    R315590  12.416   7.800   6.734 -0.1265 -0.0860  0.0592
 1150ERGO    R415591  12.581   7.703   6.956 -0.1066  0.3456  0.2492
 1150ERGO    R515592  12.380   7.636   6.905  0.0266 -0.0216  0.1576
 1150ERGO    C115593  12.321   7.760   7.261 -0.4082  0.1594  0.0303
 1150ERGO    C215594  12.305   7.861   7.608  0.3081  0.1673 -0.5652
 1151ERGO   ROH15595  12.683   5.020   6.244 -0.0726 -0.1962 -0.1297
 1151ERGO    R115596  12.649   5.054   6.523  0.0235 -0.1651 -0.1200
 1151ERGO    R215597  12.410   4.997   6.651 -0.0103  0.0688 -0.0642
 1151ERGO    R315598  12.569   4.841   6.807 -0.1259 -0.0938 -0.1091
 1151ERGO    R415599  12.402   4.989   6.997 -0.0083 -0.0282 -0.0670
 1151ERGO    R515600  12.619   4.978   6.997 -0.0208 -0.1905 -0.0707
 1151ERGO    C115601  12.546   4.838   7.344 -0.1157 -0.2372 -0.1108
 1151ERGO    C215602  12.515   4.701   7.674 -0.0203  0.2114 -0.2302
 1152ERGO   ROH15603   3.377   8.809   5.759 -0.0445 -0.1024  0.0452
 1152ERGO    R115604   3.326   8.859   6.032  0.0068 -0.0805  0.0503
 1152ERGO    R215605   3.113   8.746   6.167  0.0815 -0.1335  0.1184
 1152ERGO    R315606   3.307   8.663   6.338  0.1509 -0.0416  0.0859
 1152ERGO    R415607   3.056   8.597   6.474  0.1973  0.0689  0.2407
 1152ERGO    R515608   3.221   8.714   6.556  0.2483  0.1089  0.0938
 1152ERGO    C115609   3.205   8.433   6.813  0.3299  0.2730  0.2815
 1152ERGO    C215610   3.077   8.310   7.242 -0.0477 -0.1893 -0.3232
 1153ERGO   ROH15611   0.350   2.623   6.055  0.0471 -0.1916  0.0426
 1153ERGO    R115612   0.278   2.712   6.314  0.2679 -0.0910  0.0710
 1153ERGO    R215613   0.120   2.562   6.484 -0.0284  0.2008  0.0566
 1153ERGO    R315614   0.328   2.597   6.656  0.0772 -0.2709  0.0418
 1153ERGO    R415615   0.099   2.533   6.828 -0.1379  0.4551  0.0744
 1153ERGO    R515616   0.230   2.706   6.845  0.3543  0.1210 -0.0234
 1153ERGO    C115617   0.282   2.549   7.189 -0.1025  0.1603  0.0708
 1153ERGO    C215618   0.282   2.630   7.467 -0.0042  0.1825  0.3518
 1154ERGO   ROH15619   1.931   1.669   5.927 -0.0038 -0.0926  0.0090
 1154ERGO    R115620   1.876   1.475   6.126 -0.1635 -0.0252  0.0315
 1154ERGO    R215621   1.909   1.526   6.396 -0.1276 -0.0183  0.0254
 1154ERGO    R315622   1.650   1.445   6.409 -0.1948  0.1908  0.0315
 1154ERGO    R415623   1.739   1.455   6.688 -0.0685 -0.2225  0.0125
 1154ERGO    R515624   1.646   1.285   6.588 -0.2586 -0.0244 -0.1572
 1154ERGO    C115625   1.396   1.338   6.871 -0.0971 -0.1451  0.0108
 1154ERGO    C215626   1.042   1.378   6.960  0.2212  0.0604 -0.2021
 1155ERGO   ROH15627  17.210   4.886   6.104 -0.1092  0.2222  0.0050
 1155ERGO    R115628  17.356   4.933   6.342 -0.1229  0.2767  0.0049
 1155ERGO    R215629  17.291   5.135   6.519 -0.3365  0.1187  0.1246
 1155ERGO    R315630  17.287   4.932   6.699 -0.0687  0.0131  0.0145
 1155ERGO    R415631  17.292   5.176   6.862 -0.3173 -0.0806  0.1481
 1155ERGO    R515632  17.430   5.007   6.877 -0.1242  0.0714  0.0270
 1155ERGO    C115633  17.289   5.009   7.231 -0.0545 -0.2958  0.0584
 1155ERGO    C215634  17.386   5.160   7.546 -0.1948  0.2578 -0.2978
 1156ERGO   ROH15635  12.990   1.485   6.646  0.0839 -0.1748  0.0871
 1156ERGO    R115636  13.077   1.474   6.915 -0.1414 -0.0385  0.1683
 1156ERGO    R215637  12.912   1.539   7.127 -0.4170 -0.2210  0.0170
 1156ERGO    R315638  12.984   1.292   7.216 -0.1853 -0.1272  0.1013
 1156ERGO    R415639  12.911   1.438   7.458 -0.4610 -0.1567  0.0368
 1156ERGO    R515640  13.097   1.332   7.422 -0.3254  0.0402  0.1470
 1156ERGO    C115641  12.977   1.148   7.733 -0.2687 -0.0314  0.1275
 1156ERGO    C215642  13.029   0.971   8.009 -0.0229  0.0257 -0.3207
 1157ERGO   ROH15643   1.949  14.292   6.166  0.0004  0.0714  0.0414
 1157ERGO    R115644   2.129  14.283   6.384 -0.0183  0.0683  0.0565
 1157ERGO    R215645   2.050  14.335   6.644 -0.0487  0.0252  0.0556
 1157ERGO    R315646   2.162  14.092   6.692 -0.0203  0.0342  0.0354
 1157ERGO    R415647   2.047  14.172   6.949 -0.0425 -0.0090  0.0379
 1157ERGO    R515648   2.253  14.110   6.913 -0.0334  0.0213  0.0415
 1157ERGO    C115649   2.151  13.850   7.172 -0.0122 -0.0203  0.0086
 1157ERGO    C215650   1.986  13.788   7.386  0.3005  0.1003 -0.1667
 1158ERGO   ROH15651   4.377  17.315   5.777 -0.0135  0.1589  0.0328
 1158ERGO    R115652   4.310  17.262   6.047  0.0658  0.0440  0.0311
 1158ERGO    R215653   4.052  17.206   6.128  0.0780  0.0645  0.0921
 1158ERGO    R315654   4.168  16.985   6.235  0.0652 -0.0146 -0.0565
 1158ERGO    R415655   3.918  17.015   6.383  0.2196  0.0860  0.1832
 1158ERGO    R515656   4.117  16.997   6.468  0.2899 -0.0317 -0.0060
 1158ERGO    C115657   3.949  16.697   6.632  0.2899  0.0243  0.0967
 1158ERGO    C215658   3.812  16.593   6.844 -0.0231 -0.0929 -0.1753
 1159ERGO   ROH15659  11.216   2.415   6.385 -0.1332 -0.2275  0.0529
 1159ERGO    R115660  11.175   2.508   6.649 -0.0283 -0.1703  0.0492
 1159ERGO    R215661  10.976   2.408   6.813 -0.0140 -0.0777  0.1203
 1159ERGO    R315662  11.183   2.366   6.984  0.0192 -0.1165  0.0716
 1159ERGO    R415663  10.943   2.309   7.142  0.0213  0.2755  0.2346
 1159ERGO    R515664  11.103   2.447   7.195  0.1855  0.1721  0.0311
 1159ERGO    C115665  11.118   2.212   7.495  0.0732  0.4448  0.2555
 1159ERGO    C215666  11.064   2.051   7.819  0.1700  0.1728 -0.0385
 1160ERGO   ROH15667  15.002   2.817   6.613 -0.1949 -0.2136  0.1073
 1160ERGO    R115668  14.899   2.986   6.815 -0.1711 -0.1972  0.1055
 1160ERGO    R215669  14.864   2.901   7.076 -0.0198 -0.1371  0.1454
 1160ERGO    R315670  15.015   3.119   7.133 -0.0812 -0.0590  0.0160
 1160ERGO    R415671  14.906   3.034   7.392  0.0388 -0.0107  0.0851
 1160ERGO    R515672  14.892   3.233   7.304 -0.0663 -0.0453  0.0185
 1160ERGO    C115673  15.072   3.317   7.630  0.0152  0.1362 -0.0714
 1160ERGO    C215674  15.293   3.264   7.899 -0.1037 -0.1278  0.3640
 1161ERGO   ROH15675   4.151   6.711   5.714  0.2084  0.0727  0.2897
 1161ERGO    R115676   4.052   6.586   5.948  0.0670  0.0371  0.2134
 1161ERGO    R215677   4.038   6.717   6.192  0.0395 -0.0385  0.2562
 1161ERGO    R315678   3.777   6.642   6.181  0.0088  0.0851  0.1330
 1161ERGO    R415679   3.842   6.641   6.466 -0.1237  0.0455  0.1633
 1161ERGO    R515680   3.755   6.477   6.353 -0.1490  0.0906  0.1186
 1161ERGO    C115681   3.484   6.526   6.616 -0.2475  0.2105 -0.0064
 1161ERGO    C215682   3.326   6.369   6.909 -0.1299  0.0088  0.1035
 1162ERGO   ROH15683  11.926   3.275   6.721  0.0761  0.0485 -0.1736
 1162ERGO    R115684  11.872   3.404   6.966  0.2332  0.0194 -0.1223
 1162ERGO    R215685  11.687   3.308   7.148  0.0085  0.2424 -0.2244
 1162ERGO    R315686  11.897   3.323   7.320 -0.0062 -0.2129 -0.1558
 1162ERGO    R415687  11.664   3.406   7.479  0.1198  0.3504 -0.2478
 1162ERGO    R515688  11.851   3.517   7.453  0.3916 -0.0766 -0.2028
 1162ERGO    C115689  11.847   3.477   7.833  0.1709 -0.0142 -0.1969
 1162ERGO    C215690  11.788   3.622   8.204 -0.0567  0.3509 -0.1993
 1163ERGO   ROH15691  10.525   1.207   6.328  0.1644  0.2798  0.0428
 1163ERGO    R115692  10.649   1.110   6.564  0.1516  0.1632  0.0014
 1163ERGO    R215693  10.831   1.258   6.708  0.1538  0.0854  0.0757
 1163ERGO    R315694  10.662   1.205   6.915  0.1463 -0.0022  0.0482
 1163ERGO    R415695  10.929   1.146   7.021  0.1639  0.1311  0.0894
 1163ERGO    R515696  10.756   1.013   7.021  0.2288  0.0424  0.0600
 1163ERGO    C115697  10.827   1.032   7.396  0.1628  0.0756  0.0714
 1163ERGO    C215698  10.823   0.863   7.783 -0.0307 -0.0420  0.1032
 1164ERGO   ROH15699   6.755  11.989   6.536 -0.1521 -0.0706 -0.0129
 1164ERGO    R115700   6.639  12.025   6.792  0.0030 -0.0627  0.0575
 1164ERGO    R215701   6.789  12.029   7.024  0.1759  0.2037 -0.0553
 1164ERGO    R315702   6.664  12.267   7.062 -0.0384  0.0980 -0.0810
 1164ERGO    R415703   6.734  12.178   7.331  0.3295  0.3327 -0.0891
 1164ERGO    R515704   6.537  12.238   7.262  0.1919  0.0831  0.0681
 1164ERGO    C115705   6.585  12.489   7.545  0.2178  0.3087 -0.1331
 1164ERGO    C215706   6.366  12.680   7.775 -0.1372 -0.0361 -0.0557
 1165ERGO   ROH15707  17.999  18.000   6.031 -0.1907  0.1645  0.1636
 1165ERGO    R115708  18.003  17.986   6.314 -0.1493  0.1112  0.1610
 1165ERGO    R215709  18.237  17.987   6.460 -0.1235  0.0307  0.1260
 1165ERGO    R315710  18.118  18.196   6.588 -0.0576  0.0349  0.1804
 1165ERGO    R415711  18.255  18.047   6.800 -0.0350 -0.0101  0.1285
 1165ERGO    R515712  18.045  18.104   6.796 -0.0237  0.0255  0.1858
 1165ERGO    C115713  18.154  18.277   7.118  0.0786 -0.0300  0.1809
 1165ERGO    C215714  18.219  18.336   7.473  0.4724  0.3662 -0.2077
 1166ERGO   ROH15715  11.838  16.200   6.614 -0.2328  0.0768  0.1736
 1166ERGO    R115716  11.916  16.268   6.878 -0.0116  0.0504  0.1170
 1166ERGO    R215717  11.813  16.141   7.100  0.0063  0.1800  0.2000
 1166ERGO    R315718  12.075  16.099   7.158  0.0057 -0.0486  0.0477
 1166ERGO    R415719  11.929  15.986   7.387  0.0422  0.1418  0.1651
 1166ERGO    R515720  12.090  16.133   7.395  0.1849 -0.0039  0.0307
 1166ERGO    C115721  12.243  15.856   7.608  0.0628 -0.0950  0.0018
 1166ERGO    C215722  12.487  15.719   7.829  0.2151 -0.0824 -0.0204
 1167ERGO   ROH15723   9.471   9.215   6.217  0.2739 -0.0839  0.0164
 1167ERGO    R115724   9.462   9.318   6.480 -0.0774 -0.1121  0.0200
 1167ERGO    R215725   9.321   9.194   6.684  0.0063 -0.3770 -0.0780
 1167ERGO    R315726   9.561   9.204   6.811 -0.0854  0.0401  0.0750
 1167ERGO    R415727   9.370   9.126   7.019 -0.0918 -0.2342 -0.0338
 1167ERGO    R515728   9.510   9.292   7.028 -0.3677 -0.0010  0.0278
 1167ERGO    C115729   9.624   9.096   7.334 -0.2350  0.2404  0.1357
 1167ERGO    C215730   9.774   9.083   7.578 -0.0741  0.1982  0.0117
 1168ERGO   ROH15731   3.203  14.311   6.061 -0.2052  0.0207  0.0678
 1168ERGO    R115732   3.080  14.058   6.090 -0.1056 -0.0302  0.0571
 1168ERGO    R215733   3.225  13.824   6.119 -0.0121  0.0389  0.1825
 1168ERGO    R315734   3.072  13.795   6.342 -0.1152  0.0211  0.1096
 1168ERGO    R415735   3.257  13.568   6.349 -0.2688 -0.1031  0.0649
 1168ERGO    R515736   3.040  13.558   6.362 -0.2788  0.0319 -0.0231
 1168ERGO    C115737   3.133  13.392   6.692 -0.5150 -0.2024 -0.0720
 1168ERGO    C215738   3.159  13.238   7.119  0.0436 -0.1609 -0.1926
 1169ERGO   ROH15739   9.194  17.416   6.526  0.0250  0.0460 -0.0753
 1169ERGO    R115740   9.152  17.446   6.804  0.1233  0.1655 -0.0737
 1169ERGO    R215741   9.141  17.230   6.977 -0.1446  0.2192 -0.0315
 1169ERGO    R315742   9.335  17.367   7.109  0.0764 -0.0249 -0.0915
 1169ERGO    R415743   9.163  17.258   7.321 -0.0348  0.2233 -0.0372
 1169ERGO    R515744   9.221  17.467   7.295  0.2442  0.1521 -0.0743
 1169ERGO    C115745   9.358  17.403   7.645  0.2366 -0.0036 -0.0968
 1169ERGO    C215746   9.388  17.158   7.859  0.0242 -0.0784  0.2181
 1170ERGO   ROH15747  18.466   1.758   5.891 -0.0822 -0.1169 -0.0935
 1170ERGO    R115748  18.314   1.799   6.126 -0.0526 -0.0479 -0.0859
 1170ERGO    R215749  18.300   1.612   6.328 -0.0818 -0.0179 -0.0597
 1170ERGO    R315750  18.379   1.821   6.483 -0.0167 -0.0165 -0.0945
 1170ERGO    R415751  18.266   1.627   6.672 -0.1118  0.0675 -0.0661
 1170ERGO    R515752  18.210   1.836   6.652 -0.0278  0.0849 -0.1152
 1170ERGO    C115753  18.321   1.832   7.018 -0.0682  0.1185 -0.1024
 1170ERGO    C215754  18.528   1.584   7.391 -0.0794  0.0772 -0.0219
 1171ERGO   ROH15755  18.512   9.232   5.407 -0.3567 -0.0242 -0.0717
 1171ERGO    R115756  18.428   9.256   5.677 -0.3190 -0.1564 -0.0480
 1171ERGO    R215757  18.347   9.039   5.828 -0.0953 -0.2609 -0.0782
 1171ERGO    R315758  18.538   9.129   6.000 -0.1360 -0.1316 -0.0986
 1171ERGO    R415759  18.387   8.931   6.154  0.0323 -0.2635 -0.0935
 1171ERGO    R515760  18.428   9.137   6.212 -0.1138 -0.2344 -0.0809
 1171ERGO    C115761  18.589   8.953   6.505  0.0685 -0.1435 -0.1217
 1171ERGO    C215762  18.661   8.670   6.745  0.2239  0.2172 -0.1767
 1172ERGO   ROH15763   7.943   4.574   5.924  0.0597 -0.0272 -0.0493
 1172ERGO    R115764   7.919   4.649   6.196 -0.1081 -0.0015 -0.0706
 1172ERGO    R215765   8.049   4.514   6.399 -0.1095  0.1137  0.0042
 1172ERGO    R315766   8.143   4.761   6.461 -0.2971  0.1850  0.0138
 1172ERGO    R415767   8.144   4.615   6.715  0.0760  0.0777 -0.0383
 1172ERGO    R515768   8.049   4.808   6.676 -0.1532  0.0052  0.1205
 1172ERGO    C115769   8.288   4.907   6.957  0.0079  0.1237 -0.0540
 1172ERGO    C215770   8.660   4.884   7.130  0.0352  0.0707  0.0028
 1173ERGO   ROH15771   5.347  13.333   6.010  0.1384  0.0541  0.0948
 1173ERGO    R115772   5.401  13.480   6.246  0.2128  0.1326  0.0311
 1173ERGO    R215773   5.345  13.750   6.269  0.0273  0.1016  0.0323
 1173ERGO    R315774   5.208  13.669   6.490  0.2567  0.0247  0.1473
 1173ERGO    R415775   5.362  13.901   6.580 -0.0345  0.2909 -0.0560
 1173ERGO    R515776   5.361  13.703   6.671  0.2962  0.3408  0.0527
 1173ERGO    C115777   5.244  13.913   6.967  0.1449  0.3286  0.0006
 1173ERGO    C215778   5.370  14.065   7.179 -0.3997 -0.0158  0.0091
 1174ERGO   ROH15779  17.385   9.546   5.631  0.0267  0.1117 -0.0472
 1174ERGO    R115780  17.487   9.430   5.868 -0.0733 -0.1537 -0.1316
 1174ERGO    R215781  17.481   9.561   6.111  0.2922 -0.2100 -0.0960
 1174ERGO    R315782  17.356   9.334   6.194 -0.0980 -0.0030 -0.0941
 1174ERGO    R415783  17.498   9.433   6.432  0.3488 -0.3954 -0.1696
 1174ERGO    R515784  17.511   9.233   6.345 -0.1427 -0.3973 -0.2910
 1174ERGO    C115785  17.389   9.146   6.696  0.0154 -0.3091 -0.2108
 1174ERGO    C215786  17.530   8.968   7.115  0.2165 -0.3769  0.1879
 1175ERGO   ROH15787   5.148  10.147   5.898 -0.2860 -0.0120  0.0020
 1175ERGO    R115788   5.324  10.220   6.106 -0.1357 -0.1248 -0.0847
 1175ERGO    R215789   5.318  10.469   6.226  0.1650 -0.0791 -0.1662
 1175ERGO    R315790   5.294  10.323   6.454  0.0951  0.0243 -0.1053
 1175ERGO    R415791   5.466  10.549   6.528 -0.0138  0.1257 -0.1298
 1175ERGO    R515792   5.510  10.337   6.557  0.0431  0.1489 -0.0023
 1175ERGO    C115793   5.529  10.458   6.918 -0.1835  0.3420 -0.0515
 1175ERGO    C215794   5.681  10.349   7.225  0.1005 -0.2550  0.0060
 1176ERGO   ROH15795  11.437  15.061   6.684 -0.1794  0.0810  0.0057
 1176ERGO    R115796  11.487  15.202   6.924 -0.2068 -0.0021  0.0614
 1176ERGO    R215797  11.646  15.429   6.934 -0.0961 -0.0806  0.1819
 1176ERGO    R315798  11.426  15.538   7.051 -0.0916 -0.0022  0.1163
 1176ERGO    R415799  11.648  15.712   7.131 -0.0883  0.0347  0.0170
 1176ERGO    R515800  11.504  15.616   7.263 -0.0924  0.1191  0.0714
 1176ERGO    C115801  11.443  15.981   7.356 -0.0794  0.1755 -0.1406
 1176ERGO    C215802  11.402  16.151   7.465  0.1698  0.0103 -0.1172
 1177ERGO   ROH15803  13.820  11.536   5.949 -0.1164  0.0845 -0.1402
 1177ERGO    R115804  13.744  11.652   6.196  0.0674  0.1097 -0.0948
 1177ERGO    R215805  13.662  11.500   6.412 -0.0372  0.1463 -0.1102
 1177ERGO    R315806  13.859  11.636   6.541  0.1405 -0.0882 -0.1261
 1177ERGO    R415807  13.706  11.505   6.755  0.0665  0.0037 -0.1203
 1177ERGO    R515808  13.754  11.718   6.741  0.2781 -0.0370 -0.0721
 1177ERGO    C115809  13.917  11.635   7.076  0.2936 -0.2994 -0.1410
 1177ERGO    C215810  14.067  11.614   7.274  0.3149  0.0215 -0.0048
 1178ERGO   ROH15811  17.237  12.389   5.861  0.0583  0.0210  0.2464
 1178ERGO    R115812  17.225  12.288   6.125  0.1267 -0.0097  0.2378
 1178ERGO    R215813  17.433  12.318   6.305  0.1079  0.1140  0.2392
 1178ERGO    R315814  17.238  12.425   6.462  0.0354 -0.0292  0.2495
 1178ERGO    R415815  17.421  12.293   6.650  0.2662  0.2923  0.2588
 1178ERGO    R515816  17.206  12.263   6.635  0.2934  0.0257  0.3539
 1178ERGO    C115817  17.233  12.380   6.997  0.2902  0.2618  0.2798
 1178ERGO    C215818  17.448  12.453   7.152  0.1160 -0.0846 -0.0059
 1179ERGO   ROH15819   2.498  15.631   6.387 -0.0261 -0.3280 -0.0396
 1179ERGO    R115820   2.689  15.683   6.589 -0.0430 -0.1077 -0.0779
 1179ERGO    R215821   2.619  15.760   6.845 -0.0827 -0.2081 -0.0572
 1179ERGO    R315822   2.772  15.547   6.916  0.1927 -0.0304 -0.1043
 1179ERGO    R415823   2.757  15.713   7.158 -0.2541 -0.2392  0.0149
 1179ERGO    R515824   2.939  15.640   7.062 -0.0619  0.1158  0.0990
 1179ERGO    C115825   2.981  15.486   7.408 -0.0952 -0.0904  0.0127
 1179ERGO    C215826   3.135  15.399   7.649  0.2031 -0.1649 -0.1118
 1180ERGO   ROH15827  14.203   2.074   6.260  0.0808 -0.1105  0.0172
 1180ERGO    R115828  14.203   1.987   6.529 -0.1993 -0.0692  0.0347
 1180ERGO    R215829  14.408   2.047   6.706 -0.1577 -0.4114  0.1182
 1180ERGO    R315830  14.205   2.143   6.858 -0.0599 -0.0094  0.0045
 1180ERGO    R415831  14.408   2.059   7.051 -0.3455 -0.4305  0.1189
 1180ERGO    R515832  14.198   1.999   7.048 -0.4681 -0.0096 -0.0061
 1180ERGO    C115833  14.216   2.156   7.395 -0.3630 -0.0642  0.0125
 1180ERGO    C215834  14.307   2.329   7.502 -0.0321  0.0756 -0.0757
 1181ERGO   ROH15835  12.307   0.492   5.973  0.1525  0.0157 -0.1099
 1181ERGO    R115836  12.149   0.427   6.198  0.0614  0.0758 -0.1565
 1181ERGO    R215837  12.154   0.177   6.317  0.0108  0.1079 -0.0914
 1181ERGO    R315838  12.208   0.321   6.541 -0.0787  0.1627 -0.1038
 1181ERGO    R415839  12.084   0.074   6.640 -0.1284  0.1857 -0.0955
 1181ERGO    R515840  12.023   0.278   6.686 -0.1435  0.2017 -0.1712
 1181ERGO    C115841  12.095   0.149   7.038 -0.2933  0.2824 -0.1095
 1181ERGO    C215842  11.981   0.192   7.397 -0.3297  0.1051 -0.0833
 1182ERGO   ROH15843   4.026   5.541   6.111 -0.2364 -0.0167  0.0208
 1182ERGO    R115844   4.116   5.578   6.376 -0.0895 -0.1156 -0.0138
 1182ERGO    R215845   4.009   5.770   6.544  0.1376 -0.0458  0.0531
 1182ERGO    R315846   3.971   5.559   6.710  0.0393 -0.0327  0.0482
 1182ERGO    R415847   3.913   5.794   6.875  0.2867 -0.0011  0.0943
 1182ERGO    R515848   4.053   5.634   6.922  0.1827 -0.1152  0.0234
 1182ERGO    C115849   3.821   5.609   7.224  0.2814  0.0372  0.1137
 1182ERGO    C215850   3.765   5.666   7.600 -0.3818  0.1101  0.0542
 1183ERGO   ROH15851  18.360   4.933   5.179 -0.0987  0.2597  0.1493
 1183ERGO    R115852  18.519   4.833   5.390 -0.0201  0.0295 -0.0145
 1183ERGO    R215853  18.451   4.866   5.656  0.2590  0.0581  0.0580
 1183ERGO    R315854  18.477   4.595   5.663 -0.0526  0.0225 -0.0263
 1183ERGO    R415855  18.508   4.679   5.942  0.1138 -0.0947 -0.0112
 1183ERGO    R515856  18.646   4.556   5.827 -0.0571 -0.2233 -0.0790
 1183ERGO    C115857  18.566   4.317   6.114 -0.2633 -0.2171 -0.1306
 1183ERGO    C215858  18.597   3.948   6.273 -0.0356 -0.0067  0.0471
 1184ERGO   ROH15859  12.548  10.184   6.191 -0.0394 -0.0820 -0.0935
 1184ERGO    R115860  12.520  10.019   6.420  0.0156 -0.1237 -0.1165
 1184ERGO    R215861  12.722   9.853   6.509  0.1129  0.0133 -0.0756
 1184ERGO    R315862  12.684   9.986   6.743 -0.0491 -0.0338 -0.0741
 1184ERGO    R415863  12.759   9.714   6.823  0.1013  0.0071 -0.0771
 1184ERGO    R515864  12.582   9.824   6.888  0.0087 -0.1139 -0.1229
 1184ERGO    C115865  12.745   9.758   7.226 -0.0577 -0.0407 -0.0765
 1184ERGO    C215866  12.750   9.537   7.532  0.2999  0.2523 -0.2464
 1185ERGO   ROH15867   8.976   4.259   6.173 -0.3694  0.2995  0.1373
 1185ERGO    R115868   9.028   4.495   6.319 -0.1641  0.2459  0.1520
 1185ERGO    R215869   9.008   4.507   6.595 -0.1459  0.2436  0.1500
 1185ERGO    R315870   9.263   4.599   6.578 -0.0660  0.0324  0.1527
 1185ERGO    R415871   9.167   4.694   6.838  0.0126  0.0931  0.1654
 1185ERGO    R515872   9.254   4.816   6.680  0.1134  0.0348  0.1711
 1185ERGO    C115873   9.498   4.890   6.964  0.1799 -0.1928  0.1767
 1185ERGO    C215874   9.622   5.131   7.165 -0.0154 -0.0111 -0.2467
 1186ERGO   ROH15875   1.200   7.157   5.712 -0.0882 -0.1632 -0.1034
 1186ERGO    R115876   1.108   7.051   5.958 -0.1504  0.0526 -0.0325
 1186ERGO    R215877   1.184   6.802   6.050 -0.4049  0.0119  0.0652
 1186ERGO    R315878   1.259   6.942   6.270 -0.2006  0.0325 -0.0144
 1186ERGO    R415879   1.284   6.661   6.349 -0.1775  0.0354  0.0024
 1186ERGO    R515880   1.172   6.815   6.454 -0.0697  0.0683  0.0762
 1186ERGO    C115881   1.413   6.710   6.730  0.1467  0.0684 -0.1090
 1186ERGO    C215882   1.627   6.598   6.937  0.1895 -0.2780 -0.0255
 1187ERGO   ROH15883  17.272  14.611   5.849 -0.2103 -0.0559 -0.0063
 1187ERGO    R115884  17.316  14.736   6.099 -0.1277 -0.0381 -0.0292
 1187ERGO    R215885  17.144  14.705   6.313 -0.0382 -0.0529  0.0427
 1187ERGO    R315886  17.370  14.628   6.442  0.0253 -0.0152 -0.0457
 1187ERGO    R415887  17.174  14.672   6.655  0.1129 -0.0180  0.0331
 1187ERGO    R515888  17.373  14.760   6.642  0.0963  0.0025 -0.0594
 1187ERGO    C115889  17.404  14.579   6.976  0.2605  0.0377 -0.0555
 1187ERGO    C215890  17.411  14.424   7.268 -0.0229 -0.5426  0.3244
 1188ERGO   ROH15891  12.423  17.071   6.284  0.1129 -0.0464 -0.0959
 1188ERGO    R115892  12.263  17.070   6.517  0.2472  0.0366 -0.0029
 1188ERGO    R215893  12.068  16.879   6.564  0.0888  0.2125  0.0481
 1188ERGO    R315894  12.204  16.843   6.796  0.1889  0.0058 -0.0391
 1188ERGO    R415895  11.938  16.732   6.848  0.2097 -0.0503 -0.0295
 1188ERGO    R515896  12.041  16.882   6.967  0.2561 -0.1520  0.0656
 1188ERGO    C115897  11.991  16.612   7.232  0.3739 -0.3973 -0.1566
 1188ERGO    C215898  11.774  16.506   7.403 -0.2641 -0.4771  0.4723
 1189ERGO   ROH15899   2.188  15.916   6.134  0.2919 -0.2933  0.0802
 1189ERGO    R115900   2.153  15.933   6.415  0.2149 -0.1495  0.0630
 1189ERGO    R215901   2.349  16.031   6.583  0.1613 -0.0440  0.0650
 1189ERGO    R315902   2.150  16.197   6.665  0.1240 -0.0178 -0.0753
 1189ERGO    R415903   2.317  16.159   6.903 -0.0044  0.0249  0.0222
 1189ERGO    R515904   2.102  16.127   6.889  0.0014  0.0316 -0.0854
 1189ERGO    C115905   2.112  16.389   7.166 -0.1357  0.0895 -0.1344
 1189ERGO    C215906   2.085  16.424   7.567 -0.1184  0.0699  0.2577
 1190ERGO   ROH15907  16.294  11.744   5.967 -0.0814 -0.0246  0.0059
 1190ERGO    R115908  16.405  11.588   6.176 -0.2144 -0.0676  0.0441
 1190ERGO    R215909  16.628  11.666   6.318 -0.0815 -0.2739 -0.0535
 1190ERGO    R315910  16.465  11.628   6.532 -0.0705  0.0158  0.0120
 1190ERGO    R415911  16.725  11.703   6.648  0.0632 -0.2409 -0.0981
 1190ERGO    R515912  16.607  11.526   6.697 -0.1398 -0.0843  0.0148
 1190ERGO    C115913  16.628  11.689   7.041  0.1578  0.0502 -0.0626
 1190ERGO    C215914  16.597  11.690   7.402 -0.0165  0.0695  0.0701
 1191ERGO   ROH15915   8.209  16.726   6.660  0.3129  0.0957 -0.1334
 1191ERGO    R115916   8.288  16.769   6.929  0.1559  0.2031 -0.1033
 1191ERGO    R215917   8.107  16.832   7.128  0.0211  0.1618 -0.2091
 1191ERGO    R315918   8.218  16.617   7.252  0.0697  0.2479 -0.1011
 1191ERGO    R415919   8.064  16.752   7.462 -0.0965  0.2226 -0.2092
 1191ERGO    R515920   8.274  16.696   7.471 -0.0740  0.3298 -0.0939
 1191ERGO    C115921   8.142  16.503   7.772 -0.1195  0.3389 -0.1078
 1191ERGO    C215922   7.946  16.398   7.947  0.0574 -0.0834 -0.1923
 1192ERGO   ROH15923  15.745   9.450   6.154 -0.1280 -0.0050  0.0500
 1192ERGO    R115924  15.907   9.305   6.336  0.0084 -0.0371 -0.0962
 1192ERGO    R215925  16.178   9.353   6.366 -0.0566  0.2460  0.0045
 1192ERGO    R315926  16.111   9.382   6.627 -0.1324 -0.1500  0.0368
 1192ERGO    R415927  16.403   9.369   6.627 -0.0720  0.5337  0.0049
 1192ERGO    R515928  16.268   9.246   6.745  0.2037  0.0955 -0.0984
 1192ERGO    C115929  16.471   9.406   7.025 -0.1521  0.3295  0.0355
 1192ERGO    C215930  16.560   9.587   7.367 -0.1472 -0.1674 -0.1092
 1193ERGO   ROH15931   7.284  10.869   6.631  0.0415 -0.2035 -0.1355
 1193ERGO    R115932   7.384  10.954   6.882  0.2172 -0.0408 -0.2581
 1193ERGO    R215933   7.350  10.808   7.114 -0.0167  0.3181 -0.0559
 1193ERGO    R315934   7.620  10.830   7.129  0.0312 -0.1299 -0.1228
 1193ERGO    R415935   7.540  10.727   7.391 -0.1176  0.2998  0.0086
 1193ERGO    R515936   7.662  10.903   7.353  0.1855  0.0541 -0.2090
 1193ERGO    C115937   7.904  10.700   7.566 -0.1313 -0.1313 -0.0166
 1193ERGO    C215938   8.127  10.442   7.666  0.0520  0.1369  0.0927
 1194ERGO   ROH15939   7.637   7.904   7.046 -0.3848  0.1423  0.1223
 1194ERGO    R115940   7.638   8.001   7.312 -0.3878  0.0544  0.1526
 1194ERGO    R215941   7.566   7.844   7.527  0.1467 -0.1911  0.1561
 1194ERGO    R315942   7.809   7.919   7.622  0.0640  0.3363 -0.0086
 1194ERGO    R415943   7.651   7.858   7.862  0.4135 -0.3394  0.0988
 1194ERGO    R515944   7.760   8.043   7.821 -0.0876  0.0074  0.1775
 1194ERGO    C115945   7.929   7.937   8.146  0.4913  0.0694 -0.0893
 1194ERGO    C215946   7.990   7.910   8.490 -0.0410  0.4199 -0.0200
 1195ERGO   ROH15947   1.435  10.838   5.834  0.0146 -0.1620  0.0911
 1195ERGO    R115948   1.545  10.836   6.095 -0.0152 -0.1966  0.1033
 1195ERGO    R215949   1.610  11.067   6.231  0.1340 -0.2193  0.0720
 1195ERGO    R315950   1.449  10.961   6.423  0.0371 -0.0745  0.0725
 1195ERGO    R415951   1.676  11.073   6.571  0.1075 -0.2223  0.0773
 1195ERGO    R515952   1.600  10.869   6.584 -0.0451 -0.1655  0.0987
 1195ERGO    C115953   1.563  10.977   6.948  0.0011 -0.0879  0.0808
 1195ERGO    C215954   1.750  10.825   7.294  0.2445 -0.0551  0.2639
 1196ERGO   ROH15955  15.923   0.974   6.231  0.2188 -0.0904  0.0197
 1196ERGO    R115956  15.784   1.022   6.474  0.2202  0.0850 -0.0124
 1196ERGO    R215957  15.688   0.817   6.632 -0.1266  0.2032 -0.0616
 1196ERGO    R315958  15.832   0.942   6.826  0.0093 -0.0309 -0.0084
 1196ERGO    R415959  15.644   0.771   6.972 -0.1413  0.0744 -0.0804
 1196ERGO    R515960  15.674   0.986   7.000  0.0652  0.0335  0.0260
 1196ERGO    C115961  15.754   0.862   7.351 -0.0221 -0.2205 -0.0413
 1196ERGO    C215962  15.778   0.848   7.703  0.0442 -0.1519 -0.0034
 1197ERGO   ROH15963  10.101  15.587   6.481  0.1378  0.0536 -0.1578
 1197ERGO    R115964   9.949  15.455   6.679  0.1261  0.0510 -0.1680
 1197ERGO    R215965  10.065  15.310   6.884  0.1136 -0.0023 -0.1956
 1197ERGO    R315966   9.914  15.472   7.041  0.1539  0.0039 -0.1639
 1197ERGO    R415967  10.029  15.276   7.226  0.2026  0.0223 -0.1837
 1197ERGO    R515968   9.818  15.325   7.204  0.1990  0.0167 -0.1290
 1197ERGO    C115969   9.867  15.408   7.573  0.2920  0.0424 -0.1470
 1197ERGO    C215970   9.858  15.438   7.927  0.1973 -0.0552  0.2021
 1198ERGO   ROH15971   9.661  18.671   6.919 -0.0477  0.5081  0.0065
 1198ERGO    R115972   9.712  18.645   7.196  0.0127  0.3390 -0.0211
 1198ERGO    R215973   9.705  18.860   7.370 -0.2256  0.1858  0.1511
 1198ERGO    R315974   9.529  18.704   7.505 -0.0245 -0.1356  0.0574
 1198ERGO    R415975   9.701  18.818   7.713 -0.2821  0.1442  0.1471
 1198ERGO    R515976   9.659  18.607   7.681  0.0845  0.0597  0.0980
 1198ERGO    C115977   9.534  18.646   8.039 -0.1265 -0.1817  0.0567
 1198ERGO    C215978   9.575  18.627   8.338 -0.3391 -0.1405 -0.3006
 1199ERGO   ROH15979  11.627   6.240   6.411  0.0318 -0.0154 -0.2082
 1199ERGO    R115980  11.745   6.319   6.656 -0.1942  0.2785 -0.1885
 1199ERGO    R215981  11.609   6.468   6.845 -0.5770  0.0025 -0.2335
 1199ERGO    R315982  11.681   6.265   7.010 -0.1540  0.1703 -0.1973
 1199ERGO    R415983  11.669   6.501   7.184 -0.8005  0.1640 -0.2076
 1199ERGO    R515984  11.837   6.364   7.162 -0.4502  0.5605 -0.1306
 1199ERGO    C115985  11.770   6.328   7.536 -0.5334  0.4156 -0.1586
 1199ERGO    C215986  11.808   6.508   7.805  0.1712 -0.0991 -0.3871
 1200ERGO   ROH15987  17.901  13.518   5.733 -0.0466  0.1567 -0.0128
 1200ERGO    R115988  17.943  13.661   5.974  0.0336  0.1451 -0.0185
 1200ERGO    R215989  17.738  13.788   6.109  0.0971  0.2466 -0.0077
 1200ERGO    R315990  17.826  13.638   6.318  0.0406  0.2071 -0.0133
 1200ERGO    R415991  17.588  13.776   6.420 -0.0295  0.1141 -0.0731
 1200ERGO    R515992  17.787  13.775   6.510 -0.0730  0.1349  0.0111
 1200ERGO    C115993  17.583  13.628   6.797 -0.1560 -0.0003 -0.1166
 1200ERGO    C215994  17.487  13.632   7.000  0.1324  0.0559  0.1651
 1201ERGO   ROH15995   6.638   9.110   6.354  0.0711  0.0868 -0.0602
 1201ERGO    R115996   6.792   9.136   6.590 -0.0090  0.0838 -0.0074
 1201ERGO    R215997   6.683   9.111   6.843 -0.0704 -0.0507 -0.0464
 1201ERGO    R315998   6.879   8.926   6.874  0.0098  0.0323 -0.0516
 1201ERGO    R415999   6.804   9.002   7.147 -0.2595 -0.2550 -0.0412
 1201ERGO    R516000   7.005   9.004   7.062 -0.1885 -0.0633  0.1245
 1201ERGO    C116001   7.059   8.764   7.354 -0.2943 -0.2961 -0.0430
 1201ERGO    C216002   7.261   8.724   7.568 -0.3245 -0.2246  0.1209
 1202ERGO   ROH16003  13.276   6.960   6.135  0.0630  0.0669  0.0867
 1202ERGO    R116004  13.251   7.047   6.403 -0.0170 -0.0783  0.1281
 1202ERGO    R216005  13.148   6.886   6.603  0.1259 -0.2663  0.0565
 1202ERGO    R316006  13.382   6.946   6.727  0.0745 -0.1117  0.0805
 1202ERGO    R416007  13.241   6.770   6.914  0.2110 -0.2770  0.0269
 1202ERGO    R516008  13.323   6.967   6.958  0.0505 -0.2232  0.0838
 1202ERGO    C116009  13.515   6.758   7.213  0.2124 -0.1382  0.0322
 1202ERGO    C216010  13.546   6.583   7.513  0.1171 -0.0142 -0.1100
 1203ERGO   ROH16011   2.434   9.755   5.896 -0.0666 -0.0807  0.0073
 1203ERGO    R116012   2.384   9.679   6.164  0.0458  0.0084  0.0545
 1203ERGO    R216013   2.237   9.455   6.231 -0.0536  0.1096  0.1915
 1203ERGO    R316014   2.459   9.393   6.376 -0.0024  0.0091  0.0711
 1203ERGO    R416015   2.234   9.296   6.538  0.0397  0.1912  0.2345
 1203ERGO    R516016   2.394   9.430   6.603  0.1631  0.1078  0.1019
 1203ERGO    C116017   2.441   9.146   6.853  0.1420  0.1442  0.1465
 1203ERGO    C216018   2.489   9.079   7.192 -0.2427 -0.0371  0.1047
 1204ERGO   ROH16019  14.329  13.504   6.103  0.1442  0.2044 -0.0357
 1204ERGO    R116020  14.401  13.578   6.366  0.1825  0.2298 -0.0535
 1204ERGO    R216021  14.356  13.415   6.584 -0.0197  0.3573  0.0011
 1204ERGO    R316022  14.622  13.451   6.626  0.0146  0.0973  0.0273
 1204ERGO    R416023  14.518  13.354   6.884 -0.1097  0.2003  0.0191
 1204ERGO    R516024  14.635  13.535   6.851  0.0731  0.0878  0.0288
 1204ERGO    C116025  14.862  13.353   7.097 -0.1300 -0.1353  0.0543
 1204ERGO    C216026  15.038  13.216   7.260  0.1091  0.1309  0.0223
 1205ERGO   ROH16027  14.866  14.617   5.884  0.1043  0.1739 -0.0004
 1205ERGO    R116028  15.096  14.559   6.039  0.0763  0.0526 -0.0038
 1205ERGO    R216029  15.213  14.744   6.209  0.1272 -0.0360  0.0580
 1205ERGO    R316030  15.180  14.547   6.393  0.0528 -0.0800 -0.0017
 1205ERGO    R416031  15.425  14.685   6.475 -0.0053 -0.0639  0.1582
 1205ERGO    R516032  15.402  14.471   6.440  0.0396 -0.0608  0.0993
 1205ERGO    C116033  15.517  14.466   6.803 -0.1523 -0.1213  0.1604
 1205ERGO    C216034  15.660  14.457   7.054 -0.0256  0.3340 -0.0442
 1206ERGO   ROH16035   6.294   5.608   6.188  0.1854  0.0438  0.0087
 1206ERGO    R116036   6.163   5.567   6.435  0.1616 -0.2015 -0.0424
 1206ERGO    R216037   6.298   5.496   6.665  0.2076  0.0446  0.0067
 1206ERGO    R316038   6.173   5.715   6.768 -0.2398 -0.1808 -0.0334
 1206ERGO    R416039   6.274   5.570   7.002  0.1511  0.1029 -0.0101
 1206ERGO    R516040   6.068   5.635   6.968 -0.0122 -0.3481  0.0259
 1206ERGO    C116041   6.142   5.818   7.294 -0.3017 -0.0747 -0.0576
 1206ERGO    C216042   6.149   6.162   7.437  0.2257 -0.2851  0.1741
 1207ERGO   ROH16043  15.102   0.238   6.208  0.0439  0.0785  0.1388
 1207ERGO    R116044  15.059   0.240   6.488 -0.1892  0.0045  0.1048
 1207ERGO    R216045  14.903   0.052   6.616  0.0521 -0.2831 -0.0265
 1207ERGO    R316046  15.126   0.018   6.768 -0.0030  0.1289  0.1631
 1207ERGO    R416047  14.904  -0.063   6.942 -0.0156 -0.5158 -0.1048
 1207ERGO    R516048  15.059   0.084   6.988 -0.3867 -0.1741  0.1538
 1207ERGO    C116049  15.115  -0.161   7.275 -0.1067 -0.2646  0.0274
 1207ERGO    C216050  15.256  -0.397   7.526  0.1718 -0.2355 -0.0051
 1208ERGO   ROH16051   0.695  11.823   5.724  0.0585 -0.0934  0.0216
 1208ERGO    R116052   0.638  12.007   5.931 -0.0918 -0.0983 -0.0154
 1208ERGO    R216053   0.498  11.936   6.159  0.0677 -0.1987  0.0495
 1208ERGO    R316054   0.715  12.039   6.286 -0.0111  0.1008 -0.0485
 1208ERGO    R416055   0.499  12.051   6.484  0.0337 -0.1269  0.0250
 1208ERGO    R516056   0.626  12.216   6.420 -0.1906  0.0231 -0.0567
 1208ERGO    C116057   0.704  12.215   6.794 -0.0600  0.1960 -0.0814
 1208ERGO    C216058   0.962  12.104   7.072  0.1257  0.1714  0.1002
 1209ERGO   ROH16059   9.756   2.743   6.446 -0.0991 -0.3129 -0.0807
 1209ERGO    R116060   9.658   2.809   6.703 -0.1359 -0.2566 -0.1091
 1209ERGO    R216061   9.468   2.656   6.834  0.0508 -0.3868  0.0136
 1209ERGO    R316062   9.655   2.653   7.032  0.0847 -0.0537 -0.0075
 1209ERGO    R416063   9.398   2.643   7.172  0.1114 -0.4236  0.0253
 1209ERGO    R516064   9.558   2.786   7.207 -0.1026 -0.1620 -0.0254
 1209ERGO    C116065   9.531   2.633   7.555  0.1787 -0.1323  0.0122
 1209ERGO    C216066   9.491   2.449   7.911 -0.0870 -0.1292  0.1739
 1210ERGO   ROH16067  14.518  18.390   6.326  0.0227  0.0886  0.2210
 1210ERGO    R116068  14.631  18.385   6.586 -0.0138 -0.0316  0.2363
 1210ERGO    R216069  14.476  18.388   6.815 -0.0466 -0.0817  0.2192
 1210ERGO    R316070  14.620  18.165   6.875 -0.1046 -0.1366  0.1528
 1210ERGO    R416071  14.526  18.266   7.135  0.2003 -0.0055  0.2108
 1210ERGO    R516072  14.733  18.221   7.079  0.1226 -0.1309  0.0263
 1210ERGO    C116073  14.690  17.987   7.378  0.2895 -0.0126  0.1435
 1210ERGO    C216074  14.798  17.964   7.710  0.0138  0.1509  0.1738
 1211ERGO   ROH16075  15.465  18.622   6.153 -0.1262 -0.2861 -0.1625
 1211ERGO    R116076  15.412  18.522   6.413  0.0362 -0.3017 -0.1373
 1211ERGO    R216077  15.573  18.334   6.535  0.3872  0.0509 -0.0605
 1211ERGO    R316078  15.583  18.519   6.735  0.0086  0.1353 -0.1084
 1211ERGO    R416079  15.620  18.261   6.870  0.7539  0.2198 -0.0674
 1211ERGO    R516080  15.471  18.414   6.919  0.3620 -0.1375 -0.0271
 1211ERGO    C116081  15.656  18.392   7.252  0.6119  0.3973 -0.1165
 1211ERGO    C216082  15.852  18.286   7.543 -0.0490  0.0491  0.0836
 1212ERGO   ROH16083  15.259  15.180   6.377  0.0485 -0.0696 -0.0151
 1212ERGO    R116084  15.386  15.144   6.627  0.0175 -0.1214 -0.0067
 1212ERGO    R216085  15.251  15.169   6.867  0.0217 -0.0188 -0.0148
 1212ERGO    R316086  15.351  14.920   6.912 -0.1269 -0.0748  0.0135
 1212ERGO    R416087  15.244  15.005   7.171  0.0081  0.0605  0.0278
 1212ERGO    R516088  15.446  14.933   7.131 -0.0497 -0.0821 -0.0185
 1212ERGO    C116089  15.335  14.676   7.390 -0.1394  0.0540  0.0793
 1212ERGO    C216090  15.295  14.540   7.777  0.1133 -0.3656  0.1501
 1213ERGO   ROH16091  16.511   4.138   5.718 -0.2505  0.1589 -0.0323
 1213ERGO    R116092  16.512   4.319   5.935 -0.2589  0.1004  0.0139
 1213ERGO    R216093  16.307   4.330   6.121 -0.1918 -0.0473  0.0831
 1213ERGO    R316094  16.511   4.297   6.299 -0.1167  0.0096  0.0119
 1213ERGO    R416095  16.307   4.449   6.446 -0.1836 -0.1651  0.1289
 1213ERGO    R516096  16.517   4.503   6.420 -0.2151 -0.0227  0.0864
 1213ERGO    C116097  16.498   4.487   6.801 -0.1083 -0.1802  0.0888
 1213ERGO    C216098  16.627   4.503   7.108  0.1924 -0.1420 -0.2756
 1214ERGO   ROH16099   8.603   2.243   6.749  0.0264 -0.0512 -0.0461
 1214ERGO    R116100   8.524   1.980   6.818 -0.0803 -0.0038  0.0172
 1214ERGO    R216101   8.688   1.808   6.960 -0.0883 -0.0895 -0.0722
 1214ERGO    R316102   8.472   1.791   7.125  0.0023  0.0453  0.0608
 1214ERGO    R416103   8.665   1.600   7.235 -0.0529 -0.0751 -0.0589
 1214ERGO    R516104   8.458   1.559   7.182 -0.1111  0.0556  0.0689
 1214ERGO    C116105   8.450   1.464   7.551  0.0527  0.0598  0.0736
 1214ERGO    C216106   8.339   1.380   7.944  0.4118 -0.0703  0.1769
 1215ERGO   ROH16107   2.007   9.885   5.892  0.0895 -0.1947 -0.1315
 1215ERGO    R116108   1.948   9.941   6.164  0.0077 -0.1734 -0.1562
 1215ERGO    R216109   1.938   9.744   6.357  0.0826 -0.1323 -0.1296
 1215ERGO    R316110   2.117   9.905   6.484 -0.0364 -0.0091 -0.1088
 1215ERGO    R416111   2.007   9.734   6.696  0.3047 -0.3652 -0.1773
 1215ERGO    R516112   2.015   9.952   6.696  0.0219 -0.3348  0.0094
 1215ERGO    C116113   2.216   9.878   7.011  0.3224 -0.3848 -0.1855
 1215ERGO    C216114   2.341   9.996   7.288 -0.3732  0.1338  0.1796
 1216ERGO   ROH16115   4.333  16.071   6.020 -0.2618 -0.0671  0.0946
 1216ERGO    R116116   4.464  15.960   6.245 -0.1415 -0.0385  0.0375
 1216ERGO    R216117   4.563  16.116   6.450 -0.1274 -0.0231  0.0111
 1216ERGO    R316118   4.411  15.952   6.605 -0.0077 -0.0931  0.0583
 1216ERGO    R416119   4.642  16.020   6.773 -0.0520  0.1410  0.0434
 1216ERGO    R516120   4.571  15.819   6.725  0.0996  0.0648  0.1020
 1216ERGO    C116121   4.546  15.810   7.106  0.1043  0.1709  0.1065
 1216ERGO    C216122   4.748  15.724   7.514  0.4262  0.1362 -0.0485
 1217ERGO   ROH16123  14.369   9.833   6.106 -0.0643 -0.1594  0.0508
 1217ERGO    R116124  14.431   9.968   6.346  0.1635 -0.0410 -0.0703
 1217ERGO    R216125  14.351   9.876   6.594 -0.1068  0.3761  0.0138
 1217ERGO    R316126  14.616   9.895   6.651 -0.0693 -0.1367  0.0485
 1217ERGO    R416127  14.495   9.784   6.894 -0.3478  0.3019  0.1084
 1217ERGO    R516128  14.623   9.961   6.881  0.0272  0.0271 -0.0044
 1217ERGO    C116129  14.828   9.749   7.123 -0.4528 -0.2226  0.1960
 1217ERGO    C216130  14.938   9.625   7.419  0.1787  0.0428 -0.0034
 1218ERGO   ROH16131   9.604  15.800   6.654 -0.0123 -0.0514  0.1062
 1218ERGO    R116132   9.471  15.988   6.817  0.0550 -0.0241  0.1302
 1218ERGO    R216133   9.320  15.915   7.037  0.0255  0.0017  0.1194
 1218ERGO    R316134   9.483  16.090   7.166  0.0892 -0.0752  0.1440
 1218ERGO    R416135   9.257  16.052   7.348 -0.1338  0.3003 -0.0407
 1218ERGO    R516136   9.333  16.242   7.275  0.1408  0.1679 -0.1128
 1218ERGO    C116137   9.373  16.297   7.650 -0.1665  0.4023 -0.1108
 1218ERGO    C216138   9.324  16.200   7.988  0.1518 -0.1611 -0.0372
 1219ERGO   ROH16139  17.002  17.966   5.964 -0.3367  0.0709  0.0502
 1219ERGO    R116140  16.926  17.997   6.235 -0.1984 -0.0600  0.1057
 1219ERGO    R216141  16.904  17.783   6.409 -0.2142 -0.1577 -0.0149
 1219ERGO    R316142  17.074  17.931   6.561 -0.0770 -0.3273 -0.0002
 1219ERGO    R416143  16.929  17.764   6.753 -0.3735 -0.0767  0.0021
 1219ERGO    R516144  16.949  17.981   6.759 -0.0917 -0.0967 -0.0643
 1219ERGO    C116145  17.103  17.891   7.096 -0.3375 -0.1887  0.0258
 1219ERGO    C216146  17.329  17.930   7.349 -0.0858  0.4242  0.2201
 1220ERGO   ROH16147   1.819  17.883   5.947  0.2683 -0.0178 -0.0567
 1220ERGO    R116148   1.923  17.951   6.201  0.1866  0.0920 -0.0520
 1220ERGO    R216149   1.820  18.158   6.353 -0.0353 -0.0098 -0.0583
 1220ERGO    R316150   1.798  17.964   6.543  0.1545 -0.0338 -0.0586
 1220ERGO    R416151   1.683  18.204   6.667 -0.0531 -0.1390 -0.0467
 1220ERGO    R516152   1.841  18.078   6.749  0.0679  0.0026 -0.0606
 1220ERGO    C116153   1.583  18.048   7.028  0.1147 -0.2368 -0.0402
 1220ERGO    C216154   1.519  18.130   7.370  0.2150  0.1408 -0.1399
 1221ERGO   ROH16155   9.187   6.286   6.318  0.3209  0.1732 -0.0223
 1221ERGO    R116156   9.183   6.265   6.600  0.2789  0.1927 -0.0217
 1221ERGO    R216157   9.118   6.478   6.765  0.0962  0.1606 -0.0523
 1221ERGO    R316158   8.935   6.303   6.864  0.1980  0.0398 -0.0738
 1221ERGO    R416159   8.963   6.507   7.072 -0.3366  0.3427 -0.2790
 1221ERGO    R516160   8.984   6.292   7.098 -0.0807  0.3954  0.0103
 1221ERGO    C116161   8.701   6.361   7.345 -0.4930  0.3352 -0.4311
 1221ERGO    C216162   8.537   6.646   7.571  0.1807 -0.3475  0.0083
 1222ERGO   ROH16163  15.947  17.575   6.166 -0.1427  0.2739  0.1387
 1222ERGO    R116164  15.777  17.442   6.349 -0.1502  0.2892  0.1451
 1222ERGO    R216165  15.838  17.194   6.455 -0.2808  0.1659 -0.0371
 1222ERGO    R316166  15.800  17.322   6.692 -0.0534  0.0612  0.0578
 1222ERGO    R416167  15.648  17.072   6.717 -0.3203  0.2317 -0.0362
 1222ERGO    R516168  15.573  17.274   6.749 -0.0796  0.2890  0.1166
 1222ERGO    C116169  15.502  17.122   7.092 -0.1299  0.1716  0.0535
 1222ERGO    C216170  15.465  16.919   7.423 -0.1397  0.1580 -0.0686
 1223ERGO   ROH16171   7.853   6.778   6.028  0.1721 -0.0779  0.0297
 1223ERGO    R116172   7.806   6.832   6.301  0.0982 -0.0466  0.0102
 1223ERGO    R216173   7.667   7.055   6.387  0.0474 -0.0576 -0.0564
 1223ERGO    R316174   7.515   6.870   6.517  0.0410 -0.0580 -0.0623
 1223ERGO    R416175   7.584   7.067   6.723  0.0624 -0.0659 -0.0517
 1223ERGO    R516176   7.615   6.852   6.733  0.0522 -0.0730 -0.0649
 1223ERGO    C116177   7.393   6.901   7.039  0.0651 -0.0711 -0.0544
 1223ERGO    C216178   7.211   6.692   7.215  0.2352 -0.0318  0.0662
 1224ERGO   ROH16179   6.820  10.120   6.324  0.0056  0.1475  0.1108
 1224ERGO    R116180   6.726  10.006   6.566 -0.0961 -0.0412 -0.0171
 1224ERGO    R216181   6.754  10.132   6.810  0.0471 -0.3543  0.1243
 1224ERGO    R316182   6.485  10.094   6.823  0.0052 -0.0989  0.1022
 1224ERGO    R416183   6.565  10.151   7.099  0.1264 -0.6186  0.1978
 1224ERGO    R516184   6.451   9.978   7.030 -0.0688 -0.4034 -0.0661
 1224ERGO    C116185   6.203  10.126   7.280  0.1333 -0.5328  0.2200
 1224ERGO    C216186   6.010  10.054   7.651 -0.1897 -0.0062  0.2763
 1225ERGO   ROH16187   7.557   4.927   6.132 -0.1419 -0.1962 -0.0081
 1225ERGO    R116188   7.698   4.970   6.373 -0.0379 -0.5065 -0.0092
 1225ERGO    R216189   7.631   5.171   6.551  0.5318 -0.2053 -0.1107
 1225ERGO    R316190   7.621   4.965   6.729 -0.1148 -0.1125 -0.0163
 1225ERGO    R416191   7.629   5.206   6.895  0.4612 -0.0412 -0.1268
 1225ERGO    R516192   7.762   5.034   6.909 -0.0024 -0.4120  0.0156
 1225ERGO    C116193   7.618   5.033   7.262 -0.1869  0.1415 -0.0474
 1225ERGO    C216194   7.638   5.026   7.698  0.1593  0.1441 -0.0591
 1226ERGO   ROH16195  10.839   2.956   6.327  0.1243  0.1791  0.0188
 1226ERGO    R116196  10.891   3.017   6.598  0.0330  0.2041  0.0314
 1226ERGO    R216197  10.697   3.005   6.793 -0.0170  0.1510 -0.0194
 1226ERGO    R316198  10.876   2.841   6.916  0.0007  0.2089  0.0320
 1226ERGO    R416199  10.694   2.926   7.130 -0.0566  0.1861 -0.0115
 1226ERGO    R516200  10.911   2.942   7.131 -0.0623  0.2395  0.0267
 1226ERGO    C116201  10.860   2.727   7.441 -0.0631  0.2609  0.0412
 1226ERGO    C216202  11.028   2.623   7.685  0.1347  0.1190  0.1979
 1227ERGO   ROH16203   1.361  11.005   7.743  0.1745 -0.0834 -0.0958
 1227ERGO    R116204   1.565  11.177   7.650  0.1238 -0.0148 -0.0782
 1227ERGO    R216205   1.586  11.254   7.385  0.1290 -0.0210 -0.0759
 1227ERGO    R316206   1.583  11.504   7.491  0.0292 -0.0147 -0.0916
 1227ERGO    R416207   1.697  11.538   7.223  0.0528  0.0032 -0.0867
 1227ERGO    R516208   1.784  11.605   7.411  0.0083  0.0468 -0.0764
 1227ERGO    C116209   1.758  11.939   7.228 -0.0852  0.0231 -0.1079
 1227ERGO    C216210   1.617  12.222   7.096  0.0442  0.0022 -0.0128
 1228ERGO   ROH16211  14.834  16.181   6.984 -0.1137 -0.1002 -0.1145
 1228ERGO    R116212  15.012  16.112   7.193 -0.0783  0.0660 -0.0881
 1228ERGO    R216213  14.954  16.159   7.459 -0.1921 -0.0472 -0.0920
 1228ERGO    R316214  15.006  15.893   7.483  0.1084  0.0040 -0.1292
 1228ERGO    R416215  15.083  16.007   7.741 -0.2726  0.0236 -0.0163
 1228ERGO    R516216  15.207  15.882   7.612  0.0038  0.2104  0.0585
 1228ERGO    C116217  15.207  15.668   7.928 -0.0374  0.1130 -0.0072
 1228ERGO    C216218  15.320  15.537   8.232  0.0680 -0.1077 -0.0140
 1229ERGO   ROH16219   5.270   7.762   6.185  0.0842 -0.2110 -0.0471
 1229ERGO    R116220   5.322   7.940   6.399  0.1911 -0.1841 -0.0955
 1229ERGO    R216221   5.135   7.998   6.593  0.1574  0.1319 -0.2204
 1229ERGO    R316222   5.334   7.921   6.762 -0.0276 -0.0435 -0.0784
 1229ERGO    R416223   5.188   8.128   6.909  0.2430  0.3396 -0.3182
 1229ERGO    R516224   5.402   8.123   6.870  0.2596 -0.0461 -0.2390
 1229ERGO    C116225   5.404   8.131   7.252  0.1192  0.2959 -0.2418
 1229ERGO    C216226   5.217   8.128   7.624  0.2063 -0.0661  0.1328
 1230ERGO   ROH16227   5.128  16.709   5.970 -0.0105  0.0283 -0.0170
 1230ERGO    R116228   5.339  16.731   6.158 -0.0104  0.0323 -0.0184
 1230ERGO    R216229   5.470  16.969   6.207 -0.0099  0.0323 -0.0262
 1230ERGO    R316230   5.401  16.916   6.464 -0.0087  0.0403 -0.0235
 1230ERGO    R416231   5.593  17.137   6.483  0.0118  0.0212 -0.0284
 1230ERGO    R516232   5.604  16.946   6.587 -0.0034  0.0213 -0.0277
 1230ERGO    C116233   5.601  17.185   6.885  0.0258  0.0224 -0.0271
 1230ERGO    C216234   5.693  17.328   7.165 -0.0289  0.0827 -0.0527
 1231ERGO   ROH16235   8.354   3.439   6.402  0.3146 -0.0056 -0.0758
 1231ERGO    R116236   8.370   3.622   6.617  0.3472  0.0881 -0.1584
 1231ERGO    R216237   8.206   3.606   6.839  0.2050  0.3415 -0.2496
 1231ERGO    R316238   8.442   3.604   6.974  0.1245  0.2070 -0.1042
 1231ERGO    R416239   8.236   3.608   7.183 -0.0156  0.3408 -0.2277
 1231ERGO    R516240   8.403   3.747   7.163  0.0862  0.2448 -0.1341
 1231ERGO    C116241   8.475   3.607   7.510 -0.2197  0.2141 -0.0786
 1231ERGO    C216242   8.518   3.629   7.981  0.3708 -0.0949  0.1333
 1232ERGO   ROH16243  13.636   0.862   6.447  0.3419 -0.1152  0.0110
 1232ERGO    R116244  13.603   0.908   6.724  0.2479 -0.0307 -0.0142
 1232ERGO    R216245  13.571   0.703   6.906  0.2276  0.0263  0.0394
 1232ERGO    R316246  13.782   0.823   7.029  0.1666  0.1011  0.0737
 1232ERGO    R416247  13.655   0.663   7.239 -0.0952  0.4101  0.1751
 1232ERGO    R516248  13.701   0.876   7.248 -0.0197  0.4139 -0.0580
 1232ERGO    C116249  13.901   0.752   7.548 -0.3404  0.7038  0.2864
 1232ERGO    C216250  13.782   0.576   7.834  0.2057 -0.1468 -0.1403
 1233ERGO   ROH16251   9.336  10.746   6.383  0.0770 -0.1527  0.0735
 1233ERGO    R116252   9.289  10.937   6.587  0.2057 -0.0776  0.0346
 1233ERGO    R216253   9.109  10.893   6.792  0.0903  0.1322 -0.0194
 1233ERGO    R316254   9.323  10.951   6.949  0.0998 -0.0710  0.0450
 1233ERGO    R416255   9.093  11.063   7.092  0.1666  0.2050 -0.0564
 1233ERGO    R516256   9.276  11.169   7.036  0.3032 -0.0012 -0.0126
 1233ERGO    C116257   9.286  11.216   7.415  0.2198  0.0566 -0.0175
 1233ERGO    C216258   9.395  11.403   7.803 -0.0792  0.2421 -0.0756
 1234ERGO   ROH16259   4.326  10.278   6.157 -0.0762  0.1797 -0.0786
 1234ERGO    R116260   4.333  10.324   6.437 -0.0327  0.0349 -0.0558
 1234ERGO    R216261   4.192  10.529   6.557  0.0705  0.0333  0.0563
 1234ERGO    R316262   4.093  10.327   6.710 -0.0073  0.0028 -0.0307
 1234ERGO    R416263   4.055  10.569   6.872  0.0268 -0.0304  0.0468
 1234ERGO    R516264   4.157  10.386   6.934 -0.0265 -0.0833  0.0033
 1234ERGO    C116265   3.883  10.404   7.199 -0.0717 -0.0963 -0.0406
 1234ERGO    C216266   3.834  10.592   7.457 -0.2468  0.0270  0.0312
 1235ERGO   ROH16267   7.177   3.491   5.906 -0.1510 -0.0167 -0.1561
 1235ERGO    R116268   7.132   3.498   6.186 -0.1529 -0.0697 -0.1554
 1235ERGO    R216269   7.113   3.269   6.339  0.0738 -0.0948 -0.1632
 1235ERGO    R316270   7.308   3.389   6.485 -0.0392  0.0926 -0.1617
 1235ERGO    R416271   7.123   3.282   6.684  0.0825 -0.1252 -0.1617
 1235ERGO    R516272   7.193   3.488   6.670 -0.1312 -0.0478 -0.1423
 1235ERGO    C116273   7.312   3.403   7.022 -0.0185  0.0330 -0.1595
 1235ERGO    C216274   7.160   3.481   7.339 -0.1873  0.0778  0.0241
 1236ERGO   ROH16275   0.296   6.698   5.540  0.3158 -0.0894  0.0041
 1236ERGO    R116276   0.172   6.578   5.763  0.1555  0.0061 -0.0327
 1236ERGO    R216277   0.240   6.326   5.854  0.0528  0.0227  0.0900
 1236ERGO    R316278   0.275   6.456   6.090 -0.0685  0.0907  0.0720
 1236ERGO    R416279   0.136   6.207   6.161  0.0410  0.0331  0.0905
 1236ERGO    R516280   0.074   6.410   6.213 -0.0752  0.0139  0.0341
 1236ERGO    C116281   0.108   6.259   6.562 -0.0798  0.1030  0.0738
 1236ERGO    C216282   0.204   6.111   6.950 -0.0427 -0.1231  0.2645
 1237ERGO   ROH16283   7.383   1.937   6.789  0.0410 -0.0929 -0.0823
 1237ERGO    R116284   7.338   1.871   7.060  0.1477 -0.3712 -0.1300
 1237ERGO    R216285   7.103   1.932   7.191  0.3402 -0.1710  0.1223
 1237ERGO    R316286   7.102   1.666   7.247 -0.0280 -0.2506 -0.2147
 1237ERGO    R416287   6.867   1.773   7.387  0.2848 -0.0249  0.1765
 1237ERGO    R516288   7.027   1.654   7.474  0.1984 -0.4053 -0.1413
 1237ERGO    C116289   6.728   1.431   7.553 -0.0931 -0.0146 -0.1083
 1237ERGO    C216290   6.466   1.212   7.680 -0.0967  0.4011 -0.1840
 1238ERGO   ROH16291   4.800   0.494   7.623 -0.0774 -0.0552  0.0924
 1238ERGO    R116292   4.944   0.594   7.845  0.0998  0.0271 -0.0572
 1238ERGO    R216293   5.185   0.728   7.818 -0.0115  0.1875 -0.3122
 1238ERGO    R316294   5.057   0.920   7.962  0.0145  0.0955 -0.1652
 1238ERGO    R416295   5.342   0.968   8.011  0.0204  0.0852 -0.2100
 1238ERGO    R516296   5.187   0.941   8.162  0.0630 -0.0127 -0.1864
 1238ERGO    C116297   5.313   1.288   8.258  0.0634 -0.0608 -0.0124
 1238ERGO    C216298   5.242   1.642   8.470 -0.0403  0.2167 -0.1470
 1239ERGO   ROH16299  10.918  17.061   6.035  0.1208  0.2680 -0.0890
 1239ERGO    R116300  11.066  17.025   6.273 -0.0421 -0.0410 -0.0278
 1239ERGO    R216301  11.123  17.233   6.446  0.3119 -0.1480  0.0030
 1239ERGO    R316302  11.008  17.068   6.630 -0.1055  0.0689 -0.0527
 1239ERGO    R416303  11.172  17.252   6.788  0.2410 -0.3044  0.0218
 1239ERGO    R516304  11.179  17.035   6.795 -0.2296 -0.3227 -0.0005
 1239ERGO    C116305  11.093  17.109   7.159 -0.1921 -0.1917 -0.0195
 1239ERGO    C216306  10.978  17.329   7.457 -0.3398 -0.0716 -0.2395
 1240ERGO   ROH16307   3.582   7.481   5.788 -0.1019  0.1469 -0.2223
 1240ERGO    R116308   3.363   7.496   5.967 -0.0704  0.0705 -0.1777
 1240ERGO    R216309   3.279   7.279   6.117  0.1004  0.0689 -0.0845
 1240ERGO    R316310   3.311   7.452   6.325  0.0382  0.1603 -0.1498
 1240ERGO    R416311   3.136   7.241   6.429  0.1670  0.0983 -0.0498
 1240ERGO    R516312   3.097   7.456   6.432  0.0501  0.0804 -0.1198
 1240ERGO    C116313   3.082   7.381   6.806  0.1474  0.2012 -0.0909
 1240ERGO    C216314   3.044   7.159   7.004 -0.0347  0.0480  0.1945
 1241ERGO   ROH16315   5.846  12.495   6.215  0.2254  0.1100  0.0721
 1241ERGO    R116316   5.706  12.359   6.420  0.0985  0.1040 -0.0183
 1241ERGO    R216317   5.815  12.146   6.559 -0.0418  0.0084 -0.0549
 1241ERGO    R316318   5.750  12.297   6.775 -0.0430 -0.0366 -0.0234
 1241ERGO    R416319   5.667  12.026   6.847 -0.0096 -0.0609 -0.0669
 1241ERGO    R516320   5.544  12.205   6.853 -0.0290 -0.0736 -0.0265
 1241ERGO    C116321   5.520  12.097   7.218  0.0080 -0.1433 -0.0444
 1241ERGO    C216322   5.559  12.156   7.624  0.0162  0.1530  0.1775
 1242ERGO   ROH16323  14.675  12.257   5.737  0.1399  0.0077 -0.0500
 1242ERGO    R116324  14.709  12.331   6.008  0.0109  0.0263 -0.0380
 1242ERGO    R216325  14.569  12.211   6.214  0.0286 -0.0709 -0.0813
 1242ERGO    R316326  14.818  12.168   6.315  0.0285  0.0922 -0.0092
 1242ERGO    R416327  14.653  12.233   6.548 -0.1219 -0.1859 -0.0349
 1242ERGO    R516328  14.839  12.330   6.490 -0.1830  0.0133  0.0924
 1242ERGO    C116329  14.935  12.206   6.838 -0.2096 -0.0997  0.0598
 1242ERGO    C216330  14.886  12.108   7.233  0.0497  0.0983  0.3030
 1243ERGO   ROH16331  15.361   1.717   6.106  0.0490  0.0671  0.0989
 1243ERGO    R116332  15.353   1.920   6.302  0.0951  0.1621  0.0026
 1243ERGO    R216333  15.259   1.876   6.558 -0.0026  0.3281 -0.0064
 1243ERGO    R316334  15.501   1.977   6.630  0.0276  0.2391  0.0208
 1243ERGO    R416335  15.356   1.943   6.883 -0.0611  0.3972 -0.0024
 1243ERGO    R516336  15.452   2.126   6.811  0.0462  0.3291 -0.0443
 1243ERGO    C116337  15.640   2.077   7.139 -0.0670  0.3538  0.0255
 1243ERGO    C216338  15.843   2.226   7.373  0.0817  0.2607  0.0201
 1244ERGO   ROH16339  13.064   8.845   6.089  0.0447  0.1604  0.0284
 1244ERGO    R116340  13.177   8.737   6.325  0.0191  0.0854  0.0074
 1244ERGO    R216341  13.221   8.888   6.552  0.2170  0.0731 -0.0165
 1244ERGO    R316342  13.074   8.694   6.671  0.0774  0.2120  0.0396
 1244ERGO    R416343  13.262   8.782   6.878  0.2533  0.0117 -0.0414
 1244ERGO    R516344  13.231   8.578   6.810  0.0206  0.0482 -0.0367
 1244ERGO    C116345  13.148   8.538   7.181  0.1436  0.1063 -0.0031
 1244ERGO    C216346  13.028   8.304   7.535 -0.1961  0.1326 -0.0459
 1245ERGO   ROH16347   7.135  15.971   6.319  0.0074 -0.1639  0.1450
 1245ERGO    R116348   7.251  16.135   6.519 -0.0328 -0.1007  0.1171
 1245ERGO    R216349   7.104  16.246   6.725 -0.0600 -0.1032  0.0996
 1245ERGO    R316350   7.290  16.123   6.880 -0.0281 -0.0306  0.1188
 1245ERGO    R416351   7.220  16.367   7.026 -0.0860 -0.0245  0.0781
 1245ERGO    R516352   7.421  16.303   6.970 -0.0714  0.0157  0.0874
 1245ERGO    C116353   7.463  16.323   7.348 -0.0713  0.0897  0.0835
 1245ERGO    C216354   7.654  16.516   7.540 -0.0368  0.1035  0.0906
 1246ERGO   ROH16355   6.234  11.759   6.654 -0.0353  0.0663 -0.0629
 1246ERGO    R116356   6.024  11.687   6.830 -0.1110  0.0655 -0.1534
 1246ERGO    R216357   5.881  11.452   6.803  0.0457 -0.0385 -0.0863
 1246ERGO    R316358   5.954  11.416   7.062 -0.1053  0.1859 -0.0099
 1246ERGO    R416359   5.718  11.245   7.027  0.0598 -0.0336 -0.0714
 1246ERGO    R516360   5.746  11.398   7.180 -0.1749  0.0887 -0.1451
 1246ERGO    C116361   5.691  11.091   7.401 -0.0737  0.1799  0.0091
 1246ERGO    C216362   5.566  10.822   7.566 -0.0300 -0.0820 -0.0530
 1247ERGO   ROH16363   3.576  11.340   5.837 -0.0185  0.0463  0.0778
 1247ERGO    R116364   3.407  11.330   6.064  0.0090 -0.1504  0.0914
 1247ERGO    R216365   3.478  11.198   6.295  0.2307  0.0217  0.1262
 1247ERGO    R316366   3.424  11.438   6.411 -0.1336 -0.0233  0.0595
 1247ERGO    R416367   3.464  11.253   6.636  0.3394  0.1330  0.1127
 1247ERGO    R516368   3.291  11.382   6.603  0.0805 -0.1898  0.1629
 1247ERGO    C116369   3.406  11.511   6.944  0.0607  0.1557  0.0424
 1247ERGO    C216370   3.542  11.580   7.345  0.0676 -0.3258 -0.2381
 1248ERGO   ROH16371  16.436  10.551   5.829  0.1630 -0.0399  0.0234
 1248ERGO    R116372  16.420  10.513   6.109  0.1050 -0.0105  0.0244
 1248ERGO    R216373  16.279  10.305   6.222  0.0867 -0.0039  0.0179
 1248ERGO    R316374  16.516  10.256   6.347  0.0629  0.0177  0.0713
 1248ERGO    R416375  16.313  10.217   6.555  0.0152 -0.0954  0.0010
 1248ERGO    R516376  16.487  10.347   6.567 -0.0214 -0.0562  0.0903
 1248ERGO    C116377  16.554  10.120   6.866 -0.0490 -0.1284  0.0413
 1248ERGO    C216378  16.648  10.030   7.194  0.1013  0.0906 -0.1079
 1249ERGO   ROH16379   2.941   9.627   5.765 -0.0581  0.5818 -0.1144
 1249ERGO    R116380   2.925   9.753   6.018 -0.0511  0.3450  0.0062
 1249ERGO    R216381   2.840   9.621   6.245  0.0179  0.1136 -0.1033
 1249ERGO    R316382   3.077   9.708   6.345  0.0102  0.0816 -0.0551
 1249ERGO    R416383   2.938   9.589   6.575 -0.0399  0.0609 -0.0904
 1249ERGO    R516384   3.022   9.790   6.564 -0.0205  0.0582 -0.0516
 1249ERGO    C116385   3.218   9.654   6.861 -0.0806  0.0001 -0.0376
 1249ERGO    C216386   3.185   9.747   7.244  0.1694 -0.0631  0.1367
 1250ERGO   ROH16387  18.257  15.479   5.920  0.2420  0.0274 -0.0734
 1250ERGO    R116388  18.329  15.453   6.193  0.2546  0.0176 -0.0774
 1250ERGO    R216389  18.389  15.671   6.352  0.1963  0.0191 -0.0533
 1250ERGO    R316390  18.196  15.565   6.513  0.2275 -0.0545 -0.0642
 1250ERGO    R416391  18.364  15.725   6.692 -0.0115  0.2344 -0.1001
 1250ERGO    R516392  18.310  15.515   6.717  0.1832  0.2007  0.0236
 1250ERGO    C116393  18.169  15.658   7.041 -0.1034  0.2907 -0.1376
 1250ERGO    C216394  18.001  15.685   7.336 -0.1584 -0.1534 -0.2813
 1251ERGO   ROH16395   7.072  16.958   6.034 -0.0736  0.2409  0.0643
 1251ERGO    R116396   7.052  17.094   6.281 -0.1305  0.1904  0.0878
 1251ERGO    R216397   6.893  17.319   6.315 -0.0655  0.2437  0.0713
 1251ERGO    R316398   6.787  17.173   6.518 -0.2062  0.2290 -0.0112
 1251ERGO    R416399   6.736  17.451   6.592 -0.2251  0.2119 -0.0023
 1251ERGO    R516400   6.835  17.300   6.714 -0.3182  0.1906  0.0364
 1251ERGO    C116401   6.545  17.391   6.945 -0.4500  0.1797 -0.1226
 1251ERGO    C216402   6.301  17.284   7.238 -0.0905 -0.5649 -0.2089
 1252ERGO   ROH16403  14.662   7.231   5.885 -0.1151  0.4260  0.0401
 1252ERGO    R116404  14.912   7.226   6.017 -0.1123  0.0563  0.0321
 1252ERGO    R216405  14.996   7.430   6.183  0.2184 -0.0380 -0.0143
 1252ERGO    R316406  15.029   7.227   6.361 -0.0961 -0.0573  0.0277
 1252ERGO    R416407  15.200   7.444   6.462  0.1627 -0.2592  0.0395
 1252ERGO    R516408  15.261   7.238   6.421 -0.0934 -0.3500  0.0894
 1252ERGO    C116409  15.350   7.262   6.792 -0.1648 -0.4063  0.1103
 1252ERGO    C216410  15.571   7.290   7.140 -0.2199  0.1500 -0.0992
 1253ERGO   ROH16411  15.923  15.929   6.101  0.0000 -0.1695  0.0001
 1253ERGO    R116412  16.043  15.771   6.302  0.0410 -0.1349  0.0032
 1253ERGO    R216413  16.260  15.606   6.253  0.1707  0.0223  0.0369
 1253ERGO    R316414  16.370  15.745   6.459  0.0075  0.0521  0.1057
 1253ERGO    R416415  16.502  15.483   6.467  0.1626  0.1306  0.1093
 1253ERGO    R516416  16.399  15.582   6.632  0.0388  0.0391  0.0871
 1253ERGO    C116417  16.746  15.541   6.784  0.0047  0.2216  0.2161
 1253ERGO    C216418  16.851  15.493   7.075 -0.2764  0.0371 -0.1594
 1254ERGO   ROH16419   2.562  17.140   6.090 -0.0225  0.1608  0.1859
 1254ERGO    R116420   2.689  17.204   6.335  0.1248  0.1095  0.1248
 1254ERGO    R216421   2.562  17.180   6.579  0.1585  0.3665  0.1730
 1254ERGO    R316422   2.779  17.028   6.640 -0.0081  0.1234  0.1719
 1254ERGO    R416423   2.672  17.113   6.900  0.0733  0.2164  0.1715
 1254ERGO    R516424   2.877  17.138   6.829  0.1039 -0.0007  0.1850
 1254ERGO    C116425   2.940  16.931   7.144 -0.1326 -0.0990  0.1697
 1254ERGO    C216426   2.984  16.604   7.348 -0.3546  0.1374  0.0982
 1255ERGO   ROH16427   8.707   0.127   6.761 -0.1697  0.1324 -0.1406
 1255ERGO    R116428   8.705   0.159   7.042 -0.1822 -0.0235 -0.1208
 1255ERGO    R216429   8.585   0.374   7.168  0.0520  0.0593 -0.0143
 1255ERGO    R316430   8.452   0.180   7.304 -0.2072  0.1353 -0.1613
 1255ERGO    R416431   8.463   0.407   7.489  0.1953 -0.0606  0.0514
 1255ERGO    R516432   8.529   0.203   7.530 -0.1087 -0.1984 -0.1616
 1255ERGO    C116433   8.269   0.243   7.805  0.0353 -0.0590 -0.0484
 1255ERGO    C216434   8.246   0.437   7.944  0.2140  0.0256  0.2405
 1256ERGO   ROH16435   3.010   0.237   6.213 -0.1225 -0.1403 -0.1837
 1256ERGO    R116436   3.134   0.206   6.466 -0.0181 -0.3261 -0.2563
 1256ERGO    R216437   3.012   0.283   6.702  0.2820 -0.0180 -0.1962
 1256ERGO    R316438   3.064   0.026   6.774 -0.1857 -0.1144 -0.1673
 1256ERGO    R416439   2.970   0.155   7.020  0.1552  0.1265 -0.1529
 1256ERGO    R516440   3.156   0.044   6.995 -0.0612 -0.2439 -0.2057
 1256ERGO    C116441   2.995  -0.161   7.273 -0.3577  0.1200 -0.1006
 1256ERGO    C216442   2.938  -0.297   7.580  0.1506  0.0479 -0.0543
 1257ERGO   ROH16443   8.918  13.806   5.916  0.1375 -0.1965 -0.1140
 1257ERGO    R116444   8.986  13.618   6.116  0.1403 -0.1328 -0.0545
 1257ERGO    R216445   9.182  13.665   6.305  0.0795 -0.0342 -0.0129
 1257ERGO    R316446   8.983  13.606   6.480  0.0497 -0.0513 -0.0525
 1257ERGO    R416447   9.225  13.619   6.645  0.0178 -0.0713 -0.0098
 1257ERGO    R516448   9.083  13.454   6.635  0.0195 -0.0678 -0.0512
 1257ERGO    C116449   9.063  13.537   7.007 -0.0461 -0.1089 -0.0453
 1257ERGO    C216450   9.088  13.548   7.432  0.1105 -0.3883 -0.1516
 1258ERGO   ROH16451  18.290  12.196   5.839 -0.0411 -0.0023 -0.0656
 1258ERGO    R116452  18.301  12.459   5.944 -0.0995 -0.0553  0.0768
 1258ERGO    R216453  18.361  12.513   6.208  0.0875 -0.1769  0.0606
 1258ERGO    R316454  18.552  12.672   6.099 -0.0860 -0.0098 -0.0060
 1258ERGO    R416455  18.517  12.774   6.372  0.2007 -0.2966  0.1457
 1258ERGO    R516456  18.506  12.889   6.188 -0.0504 -0.1102  0.2714
 1258ERGO    C116457  18.788  13.075   6.364  0.1040 -0.2094  0.1326
 1258ERGO    C216458  18.982  13.189   6.614 -0.2385  0.1579  0.0147
 1259ERGO   ROH16459   2.740  16.640   6.156  0.1997 -0.0823 -0.0231
 1259ERGO    R116460   2.836  16.585   6.417  0.1921  0.0144 -0.0003
 1259ERGO    R216461   3.094  16.502   6.466  0.1313 -0.1571  0.0177
 1259ERGO    R316462   3.097  16.714   6.635  0.3251 -0.0470 -0.1200
 1259ERGO    R416463   3.287  16.523   6.752 -0.0206 -0.2573  0.1292
 1259ERGO    R516464   3.117  16.616   6.853  0.0399  0.0568 -0.0398
 1259ERGO    C116465   3.402  16.735   7.077  0.0728 -0.2123  0.0650
 1259ERGO    C216466   3.631  16.736   7.289  0.3010 -0.1596  0.2553
 1260ERGO   ROH16467  16.894  16.825   6.244  0.0181  0.1233 -0.0397
 1260ERGO    R116468  16.682  16.788   6.428 -0.0115  0.0767 -0.0842
 1260ERGO    R216469  16.693  16.603   6.633 -0.0182  0.0718 -0.0933
 1260ERGO    R316470  16.636  16.819   6.788 -0.0917  0.0524 -0.0913
 1260ERGO    R416471  16.604  16.589   6.966  0.1750  0.0460 -0.0405
 1260ERGO    R516472  16.457  16.745   6.929  0.0361 -0.0636  0.0174
 1260ERGO    C116473  16.498  16.783   7.306  0.2185  0.0130 -0.0077
 1260ERGO    C216474  16.408  16.957   7.702 -0.1443 -0.0898 -0.0955
 1261ERGO   ROH16475  12.590   1.211   6.680  0.0878  0.0729  0.0227
 1261ERGO    R116476  12.690   1.155   6.939 -0.0154  0.2767  0.1096
 1261ERGO    R216477  12.562   1.239   7.169 -0.3553  0.0735  0.0060
 1261ERGO    R316478  12.576   0.975   7.233  0.0663  0.0958  0.0304
 1261ERGO    R416479  12.576   1.114   7.491 -0.3581  0.1113  0.0201
 1261ERGO    R516480  12.722   0.968   7.423 -0.0499  0.3625  0.1304
 1261ERGO    C116481  12.597   0.794   7.739  0.0361  0.1543  0.0512
 1261ERGO    C216482  12.615   0.673   8.079  0.2322 -0.0520  0.2264
 1262ERGO   ROH16483   1.880   3.126   5.928 -0.1225  0.2312 -0.0570
 1262ERGO    R116484   1.965   3.366   6.053 -0.2082  0.3334 -0.1951
 1262ERGO    R216485   1.794   3.580   6.095 -0.4539  0.0666  0.2221
 1262ERGO    R316486   1.876   3.553   6.352  0.1626  0.1324  0.0489
 1262ERGO    R416487   1.770   3.826   6.336 -0.4710 -0.0726  0.3644
 1262ERGO    R516488   1.967   3.767   6.408 -0.1708  0.3160 -0.0750
 1262ERGO    C116489   1.834   3.943   6.719  0.0977 -0.0919  0.2846
 1262ERGO    C216490   1.828   4.117   7.061  0.0470 -0.0033  0.0435
 1263ERGO   ROH16491  13.165  15.401   6.614 -0.3315 -0.1627  0.0593
 1263ERGO    R116492  13.271  15.345   6.870 -0.1603  0.0134  0.0315
 1263ERGO    R216493  13.146  15.424   7.103 -0.0745  0.0627  0.0683
 1263ERGO    R316494  13.165  15.160   7.165  0.0919  0.1000  0.1780
 1263ERGO    R416495  13.106  15.292   7.420 -0.0876  0.1507  0.1023
 1263ERGO    R516496  13.272  15.156   7.380  0.0192  0.2545  0.2134
 1263ERGO    C116497  13.100  14.967   7.663  0.0611  0.2370  0.2251
 1263ERGO    C216498  13.057  15.058   8.108  0.2616  0.3687  0.1333
 1264ERGO   ROH16499  13.828   2.913   6.363 -0.4181  0.2441 -0.0694
 1264ERGO    R116500  13.932   2.977   6.618 -0.2275  0.0167 -0.0873
 1264ERGO    R216501  13.853   3.201   6.759  0.0298  0.0007  0.0801
 1264ERGO    R316502  13.799   3.020   6.955 -0.0093 -0.0634  0.0125
 1264ERGO    R416503  13.782   3.283   7.087 -0.0990 -0.0924  0.0771
 1264ERGO    R516504  13.904   3.113   7.150 -0.0893 -0.0932  0.0750
 1264ERGO    C116505  13.690   3.161   7.462 -0.2105 -0.2069  0.0117
 1264ERGO    C216506  13.715   3.261   7.853 -0.2788 -0.0030  0.3920
 1265ERGO   ROH16507   4.096   8.093   6.607  0.3774  0.1676  0.0573
 1265ERGO    R116508   4.102   7.979   6.866  0.1941  0.1621  0.0572
 1265ERGO    R216509   3.972   8.094   7.082 -0.0796  0.0725 -0.0730
 1265ERGO    R316510   3.859   7.848   7.103  0.0452  0.0009 -0.1749
 1265ERGO    R416511   3.910   7.930   7.380 -0.0750 -0.0248 -0.1221
 1265ERGO    R516512   3.975   7.745   7.285  0.0598  0.0222 -0.1582
 1265ERGO    C116513   3.768   7.604   7.573  0.0447 -0.1487 -0.2463
 1265ERGO    C216514   3.558   7.266   7.780 -0.1954 -0.0645 -0.0402
 1266ERGO   ROH16515   0.612   8.535   5.833  0.1412  0.1606  0.0537
 1266ERGO    R116516   0.569   8.408   6.082  0.1646  0.0065 -0.0198
 1266ERGO    R216517   0.766   8.264   6.211  0.2472  0.1144 -0.0197
 1266ERGO    R316518   0.708   8.430   6.418  0.0313 -0.0287  0.0372
 1266ERGO    R416519   0.845   8.202   6.542  0.2816  0.0885 -0.0327
 1266ERGO    R516520   0.650   8.283   6.598  0.1827 -0.1595 -0.0225
 1266ERGO    C116521   0.837   8.323   6.929  0.0989 -0.0609  0.0131
 1266ERGO    C216522   1.076   8.427   7.195  0.2594  0.1686 -0.3344
 1267ERGO   ROH16523   4.281   9.054   5.750 -0.1487  0.1306 -0.0701
 1267ERGO    R116524   4.213   9.057   6.024 -0.1758  0.0330 -0.0751
 1267ERGO    R216525   4.391   8.983   6.223 -0.1532  0.0869 -0.0752
 1267ERGO    R316526   4.329   9.228   6.324 -0.2966  0.0315 -0.0265
 1267ERGO    R416527   4.308   9.046   6.552 -0.1475 -0.0228 -0.0528
 1267ERGO    R516528   4.155   9.185   6.483 -0.2478 -0.1081 -0.0089
 1267ERGO    C116529   4.202   9.312   6.839 -0.2789 -0.1384  0.0058
 1267ERGO    C216530   4.052   9.397   7.147 -0.0843 -0.1298 -0.6012
 1268ERGO   ROH16531   5.988   0.371   6.083  0.2532 -0.1329  0.0033
 1268ERGO    R116532   6.012   0.455   6.352  0.2209 -0.0599 -0.0160
 1268ERGO    R216533   5.888   0.683   6.449  0.1051 -0.1000 -0.0602
 1268ERGO    R316534   5.788   0.510   6.634  0.2025 -0.1145 -0.0211
 1268ERGO    R416535   5.789   0.772   6.767 -0.0588 -0.0674 -0.1198
 1268ERGO    R516536   5.879   0.587   6.842  0.0783  0.0404 -0.0255
 1268ERGO    C116537   5.637   0.662   7.127 -0.0627 -0.0620 -0.1177
 1268ERGO    C216538   5.611   0.703   7.545 -0.2372 -0.0968  0.0062
 1269ERGO   ROH16539  15.416  17.135   6.267 -0.1492 -0.1853 -0.0465
 1269ERGO    R116540  15.204  17.151   6.453 -0.0479 -0.0836  0.0650
 1269ERGO    R216541  15.200  17.004   6.687 -0.0221 -0.1248  0.0485
 1269ERGO    R316542  15.164  17.248   6.802  0.1944 -0.1180  0.1017
 1269ERGO    R416543  15.078  17.056   7.006 -0.1590 -0.0723 -0.0134
 1269ERGO    R516544  14.963  17.225   6.929  0.0898  0.0853 -0.0313
 1269ERGO    C116545  14.973  17.316   7.299 -0.0355 -0.0353  0.0005
 1269ERGO    C216546  15.101  17.343   7.662 -0.2294 -0.3114 -0.3281
 1270ERGO   ROH16547   0.322  17.864   7.712  0.4346  0.0113 -0.1763
 1270ERGO    R116548   0.170  17.626   7.701  0.3137  0.0900 -0.2459
 1270ERGO    R216549   0.194  17.443   7.496  0.4686 -0.0247 -0.1296
 1270ERGO    R316550   0.238  17.268   7.700  0.1220  0.0490  0.0159
 1270ERGO    R416551   0.157  17.100   7.474  0.1883 -0.0072  0.0361
 1270ERGO    R516552   0.069  17.102   7.674 -0.0011  0.1832 -0.0469
 1270ERGO    C116553   0.177  16.736   7.654 -0.3002  0.0719  0.2692
 1270ERGO    C216554   0.373  16.466   7.474 -0.1159  0.0733 -0.1901
 1271ERGO   ROH16555   1.492   3.375   5.852 -0.0820  0.1281  0.0615
 1271ERGO    R116556   1.454   3.272   6.113 -0.0685  0.1045  0.0507
 1271ERGO    R216557   1.568   3.034   6.198 -0.0351  0.1330  0.0290
 1271ERGO    R316558   1.665   3.190   6.398 -0.0671  0.1187  0.0606
 1271ERGO    R416559   1.686   2.917   6.501  0.3907  0.0274 -0.1676
 1271ERGO    R516560   1.588   3.084   6.599  0.2368 -0.1608  0.0550
 1271ERGO    C116561   1.846   2.995   6.865  0.6087 -0.0476 -0.2525
 1271ERGO    C216562   1.897   3.058   7.184  0.0967 -0.2792  0.0349
 1272ERGO   ROH16563  12.951  14.961   6.581 -0.0330 -0.0109 -0.0728
 1272ERGO    R116564  12.957  14.916   6.861  0.0757 -0.1165 -0.0901
 1272ERGO    R216565  12.763  15.015   7.032  0.3247  0.1252  0.0711
 1272ERGO    R316566  12.743  14.755   7.107 -0.0225  0.1222 -0.0190
 1272ERGO    R416567  12.757  14.904   7.359 -0.2720  0.0304  0.0374
 1272ERGO    R516568  12.884  14.737   7.300 -0.3317 -0.0620  0.1927
 1272ERGO    C116569  12.734  14.595   7.620 -0.9453 -0.0277 -0.0667
 1272ERGO    C216570  12.615  14.722   7.921  0.0714  0.4049 -0.2784
 1273ERGO   ROH16571   9.937  11.896   6.084  0.0027  0.3634 -0.0733
 1273ERGO    R116572   9.839  11.948   6.344  0.0693  0.4581 -0.0675
 1273ERGO    R216573   9.872  11.770   6.553 -0.1966  0.3698 -0.1028
 1273ERGO    R316574   9.982  11.985   6.677  0.1162  0.1890 -0.0536
 1273ERGO    R416575   9.945  11.788   6.891 -0.4229  0.2729 -0.0463
 1273ERGO    R516576   9.873  11.994   6.890 -0.0418  0.4193 -0.1359
 1273ERGO    C116577  10.091  12.001   7.203 -0.2610  0.0470  0.0328
 1273ERGO    C216578  10.117  12.124   7.538  0.2027 -0.2844  0.2892
 1274ERGO   ROH16579  10.703  14.229   6.536  0.2048 -0.1578 -0.0604
 1274ERGO    R116580  10.598  14.085   6.756 -0.0521 -0.0071 -0.0804
 1274ERGO    R216581  10.742  14.045   6.989 -0.1419 -0.2463 -0.0658
 1274ERGO    R316582  10.522  14.155   7.105  0.0127  0.0963 -0.0858
 1274ERGO    R416583  10.613  13.952   7.296 -0.4793 -0.2615 -0.2073
 1274ERGO    R516584  10.412  13.971   7.212 -0.4110  0.2107 -0.2967
 1274ERGO    C116585  10.332  14.001   7.584 -0.5306  0.0513 -0.3085
 1274ERGO    C216586  10.120  14.115   7.870  0.1073  0.0081  0.0395
 1275ERGO   ROH16587  13.747  12.753   6.483 -0.2656 -0.3614  0.0099
 1275ERGO    R116588  13.902  12.790   6.717 -0.0632 -0.2851 -0.1334
 1275ERGO    R216589  13.792  12.870   6.958  0.1787  0.0471 -0.1214
 1275ERGO    R316590  13.916  12.647   7.051  0.0335  0.0135 -0.0074
 1275ERGO    R416591  13.845  12.798   7.292  0.0745  0.1387 -0.0847
 1275ERGO    R516592  14.042  12.723   7.240  0.0382  0.0081 -0.0137
 1275ERGO    C116593  13.992  12.546   7.574 -0.1224  0.1605  0.0438
 1275ERGO    C216594  14.013  12.467   7.807 -0.0352 -0.4255  0.2917
 1276ERGO   ROH16595   1.400   5.645   5.469  0.2025  0.1476 -0.0752
 1276ERGO    R116596   1.480   5.583   5.733  0.1690  0.0538 -0.0867
 1276ERGO    R216597   1.579   5.774   5.907  0.1947 -0.0180 -0.0236
 1276ERGO    R316598   1.381   5.682   6.069  0.1637 -0.0241 -0.0647
 1276ERGO    R416599   1.564   5.824   6.249 -0.0121  0.2130 -0.0633
 1276ERGO    R516600   1.493   5.619   6.271  0.0990  0.1829  0.0407
 1276ERGO    C116601   1.369   5.766   6.600 -0.1617  0.3418 -0.1250
 1276ERGO    C216602   1.240   5.865   6.865 -0.3467  0.0983  0.2301
 1277ERGO   ROH16603  15.333   5.162   9.252 -0.0564  0.0240  0.2283
 1277ERGO    R116604  15.216   5.124   8.997 -0.0264  0.0401  0.2121
 1277ERGO    R216605  14.985   5.253   8.919 -0.0250  0.0328  0.1989
 1277ERGO    R316606  15.138   5.331   8.708 -0.0080  0.0613  0.2218
 1277ERGO    R416607  14.862   5.364   8.615 -0.0041  0.0139  0.1836
 1277ERGO    R516608  15.020   5.252   8.516  0.0311  0.0413  0.2045
 1277ERGO    C116609  14.934   5.502   8.241  0.0240  0.0297  0.1963
 1277ERGO    C216610  14.878   5.632   7.979  0.1468  0.2449  0.3642
 1278ERGO   ROH16611  12.442  17.877   6.568  0.1350 -0.1203  0.1027
 1278ERGO    R116612  12.617  17.866   6.790  0.1309 -0.1393  0.1047
 1278ERGO    R216613  12.528  17.894   7.051  0.1256 -0.1721  0.1043
 1278ERGO    R316614  12.657  17.657   7.085  0.1343 -0.1710  0.0827
 1278ERGO    R416615  12.532  17.712   7.344  0.1967 -0.1543  0.1145
 1278ERGO    R516616  12.743  17.668   7.308  0.1904 -0.1569  0.0628
 1278ERGO    C116617  12.656  17.384   7.548  0.2464 -0.1428  0.1003
 1278ERGO    C216618  12.652  17.051   7.560  0.1336 -0.1916 -0.1723
 1279ERGO   ROH16619  16.974   3.957   5.650  0.0651 -0.1894 -0.0134
 1279ERGO    R116620  16.983   4.015   5.927 -0.1604 -0.1414 -0.0157
 1279ERGO    R216621  16.770   3.964   6.096 -0.1725 -0.4303 -0.1231
 1279ERGO    R316622  16.958   3.827   6.238 -0.0425 -0.1401 -0.0027
 1279ERGO    R416623  16.789   3.954   6.441 -0.2213 -0.1759 -0.1098
 1279ERGO    R516624  17.006   3.968   6.425 -0.2243  0.0464 -0.0854
 1279ERGO    C116625  16.976   3.819   6.775 -0.1276  0.2447  0.0110
 1279ERGO    C216626  17.116   3.945   7.116  0.1141 -0.1742  0.0539
 1280ERGO   ROH16627   0.494   3.113   6.105 -0.1200 -0.0018  0.0858
 1280ERGO    R116628   0.477   3.217   6.368 -0.1416  0.1570  0.0213
 1280ERGO    R216629   0.609   3.103   6.582 -0.2762  0.2027  0.1227
 1280ERGO    R316630   0.708   3.354   6.613 -0.1401  0.1644  0.0182
 1280ERGO    R416631   0.814   3.204   6.841 -0.3883  0.2386  0.1992
 1280ERGO    R516632   0.703   3.391   6.850 -0.2816  0.3213 -0.0026
 1280ERGO    C116633   1.026   3.498   7.022 -0.3258  0.2236  0.1456
 1280ERGO    C216634   1.248   3.607   7.344  0.1429 -0.2003  0.1943
 1281ERGO   ROH16635   5.523   4.532   5.876  0.0598 -0.0720 -0.0751
 1281ERGO    R116636   5.510   4.346   6.088 -0.1565  0.0355  0.0072
 1281ERGO    R216637   5.733   4.221   6.190 -0.3131 -0.2605 -0.0158
 1281ERGO    R316638   5.642   4.320   6.426 -0.0872 -0.0243 -0.0222
 1281ERGO    R416639   5.835   4.113   6.503 -0.3217 -0.2608 -0.0126
 1281ERGO    R516640   5.628   4.129   6.570 -0.2842  0.0485  0.0682
 1281ERGO    C116641   5.808   4.144   6.906 -0.1148 -0.0393 -0.0167
 1281ERGO    C216642   6.081   3.919   7.101 -0.3686  0.0980  0.0661
 1282ERGO   ROH16643   8.057  18.020   6.724  0.0022 -0.0023  0.2169
 1282ERGO    R116644   8.089  18.007   7.005  0.0318  0.0856  0.2177
 1282ERGO    R216645   8.245  17.815   7.129 -0.0738  0.0327  0.2702
 1282ERGO    R316646   8.365  18.031   7.241  0.0798  0.0004  0.1704
 1282ERGO    R416647   8.462  17.802   7.397 -0.1448  0.0105  0.3272
 1282ERGO    R516648   8.368  17.982   7.476 -0.0144  0.1362  0.2004
 1282ERGO    C116649   8.703  17.997   7.658 -0.0418 -0.0328  0.2667
 1282ERGO    C216650   8.833  18.094   7.908 -0.3964 -0.2147  0.0231
 1283ERGO   ROH16651   5.660   6.314   5.989 -0.3064  0.0596 -0.0133
 1283ERGO    R116652   5.564   6.363   6.250 -0.3177  0.0257 -0.0117
 1283ERGO    R216653   5.327   6.256   6.344 -0.2013 -0.1797  0.0425
 1283ERGO    R316654   5.485   6.164   6.545 -0.0882  0.0158  0.0468
 1283ERGO    R416655   5.239   6.256   6.678 -0.2227 -0.2887  0.0373
 1283ERGO    R516656   5.444   6.316   6.726 -0.2910 -0.0286  0.0459
 1283ERGO    C116657   5.336   6.169   7.062 -0.1290 -0.1687  0.0383
 1283ERGO    C216658   5.148   6.056   7.384  0.1660  0.0102  0.0012
 1284ERGO   ROH16659   6.368  16.054   6.092 -0.1399  0.0224  0.1071
 1284ERGO    R116660   6.411  15.928   6.341 -0.0566 -0.0980  0.0338
 1284ERGO    R216661   6.662  15.848   6.427 -0.0096 -0.0391 -0.0395
 1284ERGO    R316662   6.601  15.999   6.644 -0.0508 -0.1825  0.0492
 1284ERGO    R416663   6.845  15.856   6.719  0.0280 -0.0978 -0.0617
 1284ERGO    R516664   6.658  15.861   6.831  0.0451 -0.2484 -0.0311
 1284ERGO    C116665   6.895  16.003   7.094  0.0111 -0.2667  0.0087
 1284ERGO    C216666   7.060  15.953   7.334 -0.0930 -0.0608 -0.1733
 1285ERGO   ROH16667   6.584   8.763   6.025 -0.0644  0.1160 -0.1032
 1285ERGO    R116668   6.561   8.596   6.252 -0.1043  0.0512 -0.1551
 1285ERGO    R216669   6.642   8.675   6.504  0.0410 -0.0952 -0.1553
 1285ERGO    R316670   6.388   8.606   6.572  0.0142  0.0616 -0.0905
 1285ERGO    R416671   6.512   8.693   6.824  0.1143  0.0405 -0.1317
 1285ERGO    R516672   6.410   8.504   6.787 -0.0010  0.0901 -0.0749
 1285ERGO    C116673   6.197   8.639   7.073  0.1319  0.2668 -0.0571
 1285ERGO    C216674   5.907   8.798   7.145 -0.1398  0.1306 -0.0883
 1286ERGO   ROH16675   4.983  11.532   5.967 -0.0465  0.1165  0.0111
 1286ERGO    R116676   5.039  11.451   6.233  0.0199 -0.0585 -0.0546
 1286ERGO    R216677   4.886  11.533   6.449  0.2405  0.0309  0.0698
 1286ERGO    R316678   4.867  11.266   6.495 -0.0409  0.0304 -0.0305
 1286ERGO    R416679   4.840  11.389   6.759  0.1065 -0.0374  0.0190
 1286ERGO    R516680   4.981  11.233   6.702 -0.0605 -0.1688 -0.0485
 1286ERGO    C116681   4.795  11.054   6.983 -0.2357 -0.0777 -0.1048
 1286ERGO    C216682   4.687  11.091   7.276  0.0626 -0.0910 -0.0835
 1287ERGO   ROH16683   1.324  15.502   6.298  0.1913 -0.2615  0.0459
 1287ERGO    R116684   1.216  15.340   6.503  0.3476 -0.1801  0.1952
 1287ERGO    R216685   1.296  15.361   6.767  0.1922  0.2801  0.2164
 1287ERGO    R316686   1.030  15.394   6.812  0.1107 -0.0814  0.0388
 1287ERGO    R416687   1.152  15.400   7.078 -0.0590  0.1842  0.1145
 1287ERGO    R516688   0.988  15.272   7.014  0.1595 -0.0739  0.0542
 1287ERGO    C116689   0.818  15.455   7.302 -0.2817 -0.2109 -0.1115
 1287ERGO    C216690   0.548  15.472   7.447  0.1405  0.1969  0.0063
 1288ERGO   ROH16691   2.982  17.994   5.934  0.0108 -0.0339  0.0641
 1288ERGO    R116692   2.829  17.975   6.171  0.0245  0.1495  0.0887
 1288ERGO    R216693   2.743  17.734   6.274 -0.2120  0.2465  0.1260
 1288ERGO    R316694   2.867  17.823   6.500 -0.0856  0.1423  0.0984
 1288ERGO    R416695   2.710  17.591   6.587 -0.4357  0.3962  0.1734
 1288ERGO    R516696   2.704  17.791   6.673 -0.1428  0.4392  0.1052
 1288ERGO    C116697   2.807  17.591   6.981 -0.4473  0.3855  0.1751
 1288ERGO    C216698   2.906  17.403   7.266  0.1726  0.0582 -0.0437
 1289ERGO   ROH16699   9.435   0.985   6.436 -0.0752  0.2945 -0.2023
 1289ERGO    R116700   9.311   1.132   6.643  0.0019  0.2421 -0.1168
 1289ERGO    R216701   9.211   1.013   6.871 -0.1452  0.1481 -0.2201
 1289ERGO    R316702   9.371   1.193   6.997 -0.0157 -0.0760 -0.0593
 1289ERGO    R416703   9.242   1.043   7.214 -0.2063 -0.0779 -0.1931
 1289ERGO    R516704   9.245   1.260   7.189  0.0012 -0.0727 -0.0582
 1289ERGO    C116705   9.411   1.230   7.532 -0.1204 -0.4198 -0.0264
 1289ERGO    C216706   9.648   1.170   7.824 -0.0155 -0.0882 -0.3388
 1290ERGO   ROH16707   4.650  11.889   6.644  0.1127  0.3001 -0.0170
 1290ERGO    R116708   4.456  12.039   6.786  0.0481  0.2077 -0.0040
 1290ERGO    R216709   4.280  11.924   6.966  0.0862  0.1156 -0.0167
 1290ERGO    R316710   4.381  12.110   7.135  0.0142  0.1360  0.0018
 1290ERGO    R416711   4.104  12.075   7.221  0.0203  0.0689 -0.0355
 1290ERGO    R516712   4.201  12.263   7.171 -0.0228  0.0897 -0.0155
 1290ERGO    C116713   4.096  12.339   7.530 -0.0857  0.0610 -0.0291
 1290ERGO    C216714   3.877  12.248   7.720  0.0126 -0.0266  0.4315
 1291ERGO   ROH16715  17.487  11.403   5.930 -0.2352  0.0517  0.1125
 1291ERGO    R116716  17.478  11.437   6.211 -0.1803 -0.0477  0.1266
 1291ERGO    R216717  17.467  11.224   6.386 -0.1161 -0.1100  0.0541
 1291ERGO    R316718  17.686  11.344   6.495 -0.1088 -0.1211  0.0514
 1291ERGO    R416719  17.553  11.210   6.721 -0.2672  0.1131  0.1047
 1291ERGO    R516720  17.610  11.421   6.710 -0.1687  0.0820 -0.0385
 1291ERGO    C116721  17.808  11.314   7.018 -0.3483  0.2326  0.1315
 1291ERGO    C216722  18.000  11.212   7.220 -0.1413 -0.3654  0.0309
 1292ERGO   ROH16723   7.286  14.014   6.306 -0.2784 -0.0433  0.0109
 1292ERGO    R116724   7.202  13.883   6.543  0.0124 -0.1620  0.0523
 1292ERGO    R216725   7.367  13.852   6.762  0.1381  0.1407  0.0061
 1292ERGO    R316726   7.162  13.972   6.893 -0.0297 -0.1875  0.0538
 1292ERGO    R416727   7.349  13.890   7.105  0.2944  0.3540 -0.0072
 1292ERGO    R516728   7.136  13.842   7.093  0.3773 -0.1013  0.1707
 1292ERGO    C116729   7.145  14.025   7.428  0.2279  0.1701  0.0298
 1292ERGO    C216730   7.225  14.296   7.629  0.0553  0.0461 -0.1335
 1293ERGO   ROH16731   8.234  14.420   6.168  0.0230  0.4205  0.0259
 1293ERGO    R116732   8.105  14.509   6.404 -0.0237  0.0406  0.1505
 1293ERGO    R216733   8.043  14.339   6.613  0.3669 -0.2150  0.0685
 1293ERGO    R316734   8.183  14.520   6.760  0.1267 -0.0684  0.1224
 1293ERGO    R416735   8.001  14.393   6.952  0.1914 -0.2704  0.0569
 1293ERGO    R516736   8.023  14.607   6.915 -0.0226 -0.2425  0.0715
 1293ERGO    C116737   8.109  14.594   7.287 -0.1362 -0.1651  0.1007
 1293ERGO    C216738   7.995  14.743   7.598  0.0536 -0.0898  0.0635
 1294ERGO   ROH16739   0.550   9.819   5.847  0.0230  0.1580  0.0732
 1294ERGO    R116740   0.489   9.698   6.096  0.3234  0.1646  0.1543
 1294ERGO    R216741   0.589   9.793   6.335  0.1037  0.5754  0.0968
 1294ERGO    R316742   0.326   9.798   6.406  0.0761 -0.0234  0.0871
 1294ERGO    R416743   0.473   9.857   6.655 -0.0631  0.5504  0.0415
 1294ERGO    R516744   0.323   9.700   6.625  0.3209  0.1422  0.1663
 1294ERGO    C116745   0.159   9.899   6.907 -0.1862 -0.0264  0.0002
 1294ERGO    C216746   0.060  10.010   7.232  0.0690 -0.2781  0.1915
 1295ERGO   ROH16747   5.026   7.080   6.274 -0.2024 -0.2018 -0.2194
 1295ERGO    R116748   4.868   6.990   6.491 -0.0194 -0.2241 -0.0927
 1295ERGO    R216749   4.915   7.068   6.751  0.0308 -0.0298 -0.1581
 1295ERGO    R316750   4.653   7.141   6.742 -0.0429 -0.2767 -0.0810
 1295ERGO    R416751   4.689   7.024   7.009  0.2181  0.0042  0.0134
 1295ERGO    R516752   4.539   6.967   6.862  0.1827 -0.2727  0.1494
 1295ERGO    C116753   4.312   7.067   7.151  0.2580 -0.2077  0.1856
 1295ERGO    C216754   3.999   7.198   7.422  0.0849 -0.3830  0.0563
 1296ERGO   ROH16755   3.599   4.602   5.878 -0.1879  0.0972 -0.1041
 1296ERGO    R116756   3.501   4.606   6.143 -0.1739  0.1522 -0.1001
 1296ERGO    R216757   3.596   4.437   6.340 -0.4195 -0.0637 -0.1618
 1296ERGO    R316758   3.638   4.670   6.475 -0.0638 -0.1679 -0.0812
 1296ERGO    R416759   3.629   4.462   6.683 -0.2972 -0.2361 -0.1597
 1296ERGO    R516760   3.509   4.644   6.676 -0.0487 -0.0655 -0.0592
 1296ERGO    C116761   3.688   4.694   7.010  0.1079 -0.4344 -0.0828
 1296ERGO    C216762   3.660   4.551   7.289 -0.3343  0.0608  0.3041
 1297ERGO   ROH16763  10.234  17.711   6.570  0.1263 -0.0410 -0.1039
 1297ERGO    R116764  10.435  17.789   6.753  0.0212 -0.0767  0.0285
 1297ERGO    R216765  10.474  18.052   6.828  0.0833 -0.0713 -0.0256
 1297ERGO    R316766  10.449  17.950   7.079 -0.1577  0.0199 -0.0105
 1297ERGO    R416767  10.502  18.236   7.119  0.0741 -0.0131 -0.0613
 1297ERGO    R516768  10.611  18.070   7.208 -0.1260 -0.0883  0.0522
 1297ERGO    C116769  10.494  18.249   7.524 -0.1577  0.1068 -0.0679
 1297ERGO    C216770  10.486  18.316   7.967 -0.1574  0.1615  0.2844
 1298ERGO   ROH16771  16.442  11.176   5.918 -0.1786 -0.1424  0.1174
 1298ERGO    R116772  16.579  11.092   6.151 -0.0589 -0.2225  0.0198
 1298ERGO    R216773  16.484  11.143   6.405  0.2186 -0.0480  0.0948
 1298ERGO    R316774  16.510  10.873   6.433 -0.0446 -0.0709  0.1413
 1298ERGO    R416775  16.541  10.979   6.704  0.0475 -0.0587  0.1225
 1298ERGO    R516776  16.679  10.847   6.600 -0.0774 -0.2105  0.1511
 1298ERGO    C116777  16.599  10.631   6.905 -0.2993 -0.0865  0.1824
 1298ERGO    C216778  16.564  10.505   7.247 -0.1846 -0.1160  0.0212
 1299ERGO   ROH16779  10.548  13.237   6.127  0.0279 -0.2952 -0.0665
 1299ERGO    R116780  10.563  13.178   6.404 -0.1187 -0.0429 -0.0020
 1299ERGO    R216781  10.353  13.223   6.578 -0.3288 -0.1849 -0.2151
 1299ERGO    R316782  10.390  12.960   6.638 -0.0139 -0.0901  0.0326
 1299ERGO    R416783  10.277  13.077   6.882 -0.3695 -0.0344 -0.1517
 1299ERGO    R516784  10.461  12.961   6.867 -0.1930  0.2002  0.0929
 1299ERGO    C116785  10.268  12.746   7.115 -0.0978  0.1422  0.1178
 1299ERGO    C216786  10.059  12.584   7.360 -0.1526 -0.0611  0.0387
 1300ERGO   ROH16787  10.016  17.154   6.505  0.3559 -0.1416 -0.0418
 1300ERGO    R116788  10.097  17.168   6.775  0.1279 -0.1143  0.0276
 1300ERGO    R216789  10.170  17.406   6.896  0.3082 -0.1413 -0.0209
 1300ERGO    R316790   9.981  17.334   7.078  0.0488  0.1724 -0.1571
 1300ERGO    R416791  10.180  17.485   7.232  0.1411 -0.0897 -0.0272
 1300ERGO    R516792  10.106  17.285   7.277 -0.1898  0.0280 -0.0426
 1300ERGO    C116793  10.008  17.464   7.599 -0.1997  0.2351 -0.1587
 1300ERGO    C216794   9.905  17.309   7.909  0.1153 -0.0979  0.2254
 1301ERGO   ROH16795   6.692  18.352   6.653  0.0560  0.0861 -0.1597
 1301ERGO    R116796   6.429  18.289   6.736  0.0326  0.0859 -0.2327
 1301ERGO    R216797   6.370  18.208   6.994  0.0011 -0.1751 -0.3185
 1301ERGO    R316798   6.193  18.413   6.983  0.0733 -0.0990 -0.0984
 1301ERGO    R416799   6.078  18.226   7.177  0.0911 -0.1863 -0.1726
 1301ERGO    R516800   5.979  18.308   7.001  0.0414 -0.0292 -0.0727
 1301ERGO    C116801   5.741  18.430   7.274  0.2112 -0.1213  0.1189
 1301ERGO    C216802   5.636  18.626   7.472  0.0422 -0.0617 -0.2461
 1302ERGO   ROH16803   1.221  16.970   6.020 -0.0248  0.0793  0.0964
 1302ERGO    R116804   1.157  16.996   6.295  0.0177  0.1011  0.1047
 1302ERGO    R216805   1.155  17.241   6.425  0.0475  0.1121  0.0896
 1302ERGO    R316806   0.902  17.166   6.491  0.0545  0.1259  0.1296
 1302ERGO    R416807   0.976  17.365   6.693  0.0780  0.1481  0.0929
 1302ERGO    R516808   0.902  17.164   6.731  0.0796  0.1573  0.1281
 1302ERGO    C116809   0.635  17.366   6.912  0.1022  0.1822  0.1325
 1302ERGO    C216810   0.405  17.300   7.099 -0.0931  0.0062 -0.0013
 1303ERGO   ROH16811  17.209   7.483   5.629  0.1624  0.0416  0.1537
 1303ERGO    R116812  17.222   7.465   5.912  0.0589  0.0382  0.1581
 1303ERGO    R216813  16.997   7.437   6.070  0.0078 -0.0209  0.0691
 1303ERGO    R316814  17.131   7.221   6.166  0.0232  0.0103  0.1204
 1303ERGO    R416815  16.946   7.296   6.381 -0.1494 -0.0810  0.0178
 1303ERGO    R516816  17.162   7.269   6.398 -0.1448 -0.0085  0.1519
 1303ERGO    C116817  17.042   7.011   6.653 -0.2267 -0.0867  0.0360
 1303ERGO    C216818  16.886   6.830   6.906  0.1483  0.3919 -0.2420
 1304ERGO   ROH16819  12.203  12.976   6.473  0.1536  0.1555  0.1009
 1304ERGO    R116820  12.415  13.057   6.641  0.1729 -0.0659  0.1869
 1304ERGO    R216821  12.454  13.321   6.715  0.5131 -0.0780  0.0676
 1304ERGO    R316822  12.448  13.218   6.966  0.2053  0.0603  0.1220
 1304ERGO    R416823  12.600  13.467   6.992  0.5397 -0.1336  0.0833
 1304ERGO    R516824  12.664  13.269   7.057  0.2231 -0.1930  0.2324
 1304ERGO    C116825  12.680  13.456   7.389  0.2662 -0.0362  0.1434
 1304ERGO    C216826  12.854  13.677   7.681 -0.0383 -0.2975  0.3500
 1305ERGO   ROH16827  10.528   8.270   6.141  0.2520  0.0535 -0.0027
 1305ERGO    R116828  10.518   8.447   6.362  0.1787 -0.0250  0.0554
 1305ERGO    R216829  10.280   8.546   6.462  0.1477 -0.0838  0.0252
 1305ERGO    R316830  10.373   8.444   6.696  0.0933 -0.1519  0.0195
 1305ERGO    R416831  10.224   8.685   6.774 -0.1406 -0.3066  0.0782
 1305ERGO    R516832  10.430   8.637   6.826 -0.1287 -0.1786  0.1673
 1305ERGO    C116833  10.278   8.670   7.175 -0.3595 -0.5001  0.1037
 1305ERGO    C216834  10.191   8.833   7.433 -0.0996  0.1869 -0.0620
 1306ERGO   ROH16835  11.771   3.673   6.533  0.0020 -0.0578  0.0728
 1306ERGO    R116836  11.953   3.760   6.731  0.0091 -0.1690  0.1145
 1306ERGO    R216837  11.903   3.978   6.894  0.1347 -0.0979  0.0505
 1306ERGO    R316838  11.951   3.800   7.093 -0.0749 -0.0952  0.1078
 1306ERGO    R416839  11.926   4.058   7.229  0.2779  0.0001  0.0193
 1306ERGO    R516840  12.092   3.918   7.246  0.1034 -0.2175  0.0478
 1306ERGO    C116841  11.984   3.938   7.612  0.1644  0.0598  0.0549
 1306ERGO    C216842  11.788   4.077   7.932  0.0188 -0.1068  0.3530
 1307ERGO   ROH16843   7.314  11.780   6.338 -0.0685 -0.3541  0.0168
 1307ERGO    R116844   7.336  11.901   6.594 -0.1864 -0.1890 -0.0489
 1307ERGO    R216845   7.181  11.822   6.809 -0.0620 -0.2727  0.0141
 1307ERGO    R316846   7.422  11.793   6.930 -0.0043  0.0963 -0.0019
 1307ERGO    R416847   7.258  11.940   7.124 -0.2358 -0.2024  0.0311
 1307ERGO    R516848   7.454  11.999   7.049 -0.3312  0.1300  0.0335
 1307ERGO    C116849   7.530  11.981   7.422 -0.2829  0.1849  0.0259
 1307ERGO    C216850   7.585  12.189   7.735 -0.1143  0.3468  0.2394
 1308ERGO   ROH16851   2.813   1.317   6.118 -0.2567 -0.0304 -0.1413
 1308ERGO    R116852   2.865   1.572   6.228 -0.4656  0.0081 -0.1269
 1308ERGO    R216853   2.692   1.696   6.405 -0.3508 -0.3519  0.2540
 1308ERGO    R316854   2.915   1.711   6.561 -0.0739 -0.0681 -0.1485
 1308ERGO    R416855   2.727   1.902   6.680 -0.1442 -0.3639  0.2384
 1308ERGO    R516856   2.931   1.943   6.618 -0.3072 -0.0520 -0.1348
 1308ERGO    C116857   2.955   2.037   6.987  0.2360 -0.1045 -0.1486
 1308ERGO    C216858   2.938   2.158   7.275 -0.1123 -0.2238  0.0995
 1309ERGO   ROH16859   9.348  16.772   6.183 -0.0695 -0.1584  0.0367
 1309ERGO    R116860   9.528  16.813   6.397 -0.1089 -0.2105  0.0795
 1309ERGO    R216861   9.547  17.053   6.532  0.0713 -0.1512 -0.0518
 1309ERGO    R316862   9.504  16.898   6.751 -0.1588  0.0132  0.0246
 1309ERGO    R416863   9.640  17.136   6.855  0.0812 -0.0742 -0.0738
 1309ERGO    R516864   9.700  16.929   6.885 -0.1551 -0.1291  0.0557
 1309ERGO    C116865   9.653  17.038   7.248 -0.1290  0.1250 -0.0149
 1309ERGO    C216866   9.684  17.163   7.449  0.0311 -0.0307 -0.0318
 1310ERGO   ROH16867  11.424  10.824   6.488  0.2839  0.0921  0.1115
 1310ERGO    R116868  11.233  10.722   6.671  0.2925  0.1900  0.1768
 1310ERGO    R216869  11.103  10.482   6.631 -0.0816  0.4013  0.0576
 1310ERGO    R316870  11.199  10.426   6.879  0.0585  0.0385 -0.0726
 1310ERGO    R416871  10.931  10.305   6.874 -0.0671  0.3190  0.0080
 1310ERGO    R516872  11.008  10.445   7.022  0.1927  0.0833  0.0995
 1310ERGO    C116873  10.921  10.150   7.248  0.0728 -0.0695 -0.1431
 1310ERGO    C216874  10.801  10.054   7.512 -0.0522 -0.0681  0.0218
 1311ERGO   ROH16875  17.875  16.956   6.190  0.0435 -0.0805  0.1796
 1311ERGO    R116876  17.867  16.919   6.471  0.0455 -0.0368  0.1859
 1311ERGO    R216877  17.778  17.114   6.644 -0.1580 -0.0863  0.1415
 1311ERGO    R316878  17.612  16.916   6.730  0.0154 -0.2268  0.1554
 1311ERGO    R416879  17.629  17.102   6.956 -0.1872 -0.1703  0.1243
 1311ERGO    R516880  17.669  16.888   6.961  0.0128 -0.1332  0.1669
 1311ERGO    C116881  17.388  16.909   7.219 -0.0412 -0.3508  0.1272
 1311ERGO    C216882  17.355  16.856   7.496  0.0102 -0.1408  0.1088
 1312ERGO   ROH16883  11.450  17.570   6.607  0.0741  0.0436 -0.0572
 1312ERGO    R116884  11.436  17.629   6.884  0.1048  0.0129 -0.0497
 1312ERGO    R216885  11.406  17.434   7.077  0.0096  0.0037 -0.0790
 1312ERGO    R316886  11.629  17.548   7.182  0.0658 -0.1214 -0.0589
 1312ERGO    R416887  11.488  17.433   7.412 -0.0785  0.0382 -0.0565
 1312ERGO    R516888  11.555  17.639   7.391  0.0724 -0.0096 -0.1007
 1312ERGO    C116889  11.745  17.539   7.706 -0.0772 -0.0588 -0.0245
 1312ERGO    C216890  11.822  17.312   7.935  0.0072 -0.1991  0.2022
 1313ERGO   ROH16891   4.476   9.482   5.946 -0.2762  0.0944 -0.1082
 1313ERGO    R116892   4.448   9.637   6.181 -0.1731 -0.0398 -0.0057
 1313ERGO    R216893   4.235   9.808   6.223 -0.0234  0.1310  0.0731
 1313ERGO    R316894   4.207   9.666   6.452 -0.1948 -0.0025 -0.0287
 1313ERGO    R416895   4.064   9.917   6.502  0.0521  0.1146  0.1257
 1313ERGO    R516896   4.221   9.830   6.626 -0.0479 -0.1329  0.0871
 1313ERGO    C116897   3.937   9.846   6.881 -0.0649 -0.0202  0.0608
 1313ERGO    C216898   3.753   9.956   7.177  0.1210  0.4654 -0.2543
 1314ERGO   ROH16899  17.972   7.729   5.367  0.2605  0.3409  0.1764
 1314ERGO    R116900  18.113   7.635   5.594  0.0940  0.0629  0.1689
 1314ERGO    R216901  18.039   7.700   5.852  0.0352 -0.0747  0.1853
 1314ERGO    R316902  18.038   7.431   5.886 -0.1839 -0.1021 -0.0124
 1314ERGO    R416903  18.086   7.539   6.154  0.1383 -0.3345  0.0336
 1314ERGO    R516904  18.208   7.390   6.050 -0.0800 -0.3757 -0.1770
 1314ERGO    C116905  18.113   7.191   6.361 -0.0072 -0.5114 -0.2403
 1314ERGO    C216906  17.996   6.871   6.566 -0.0156 -0.1915 -0.1589
 1315ERGO   ROH16907   9.461  15.148   6.295  0.0063  0.1626  0.0412
 1315ERGO    R116908   9.404  15.304   6.523  0.0050  0.0823  0.0963
 1315ERGO    R216909   9.323  15.193   6.764 -0.0256 -0.0006  0.0484
 1315ERGO    R316910   9.534  15.334   6.862 -0.0181 -0.0596  0.1183
 1315ERGO    R416911   9.316  15.390   7.048 -0.0622 -0.0044  0.0500
 1315ERGO    R516912   9.437  15.537   6.944  0.0108 -0.0351  0.0917
 1315ERGO    C116913   9.509  15.637   7.306 -0.0764 -0.0619  0.1166
 1315ERGO    C216914   9.467  15.685   7.700  0.0697  0.1584  0.0225
 1316ERGO   ROH16915   5.771   8.557   8.128  0.1494 -0.0556 -0.3334
 1316ERGO    R116916   5.999   8.701   8.214  0.1697 -0.1310 -0.2606
 1316ERGO    R216917   6.218   8.745   8.051  0.0617  0.1530 -0.3332
 1316ERGO    R316918   6.173   9.005   8.115  0.0438  0.0565  0.0746
 1316ERGO    R416919   6.449   8.999   8.016 -0.0634  0.2766 -0.2707
 1316ERGO    R516920   6.381   9.080   8.207  0.1327 -0.0019 -0.0705
 1316ERGO    C116921   6.542   9.391   8.056 -0.1531  0.2581  0.1484
 1316ERGO    C216922   6.881   9.481   7.920 -0.3083  0.1110  0.0856
 1317ERGO   ROH16923  14.504   1.122   6.170  0.2224  0.0211 -0.1447
 1317ERGO    R116924  14.543   1.011   6.427  0.1886  0.0521 -0.1260
 1317ERGO    R216925  14.779   1.041   6.568  0.1744  0.0626 -0.1010
 1317ERGO    R316926  14.614   1.137   6.761  0.1529  0.0931 -0.1345
 1317ERGO    R416927  14.874   1.105   6.894  0.1076  0.0200 -0.0731
 1317ERGO    R516928  14.683   1.022   6.960  0.0729  0.0659 -0.1245
 1317ERGO    C116929  14.774   1.232   7.266  0.0485  0.0237 -0.0883
 1317ERGO    C216930  14.729   1.459   7.657 -0.0494 -0.2822  0.3836
 1318ERGO   ROH16931  11.745  18.571   6.383 -0.0216  0.0873  0.1191
 1318ERGO    R116932  11.649  18.514   6.643  0.0158  0.0246  0.1207
 1318ERGO    R216933  11.818  18.461   6.856  0.0499 -0.0334  0.0880
 1318ERGO    R316934  11.678  18.662   6.974  0.0724 -0.0560  0.1502
 1318ERGO    R416935  11.729  18.471   7.190  0.0120 -0.1358  0.0803
 1318ERGO    R516936  11.535  18.551   7.131  0.0380 -0.0832  0.0926
 1318ERGO    C116937  11.546  18.665   7.495  0.0112 -0.2166  0.1342
 1318ERGO    C216938  11.511  18.686   7.870 -0.2924  0.1357 -0.1163
 1319ERGO   ROH16939  16.395   6.825   5.530 -0.1128 -0.0689 -0.0480
 1319ERGO    R116940  16.358   6.900   5.800  0.1372 -0.2434  0.0391
 1319ERGO    R216941  16.107   6.922   5.915  0.2097  0.2004  0.1319
 1319ERGO    R316942  16.211   6.751   6.099 -0.1043 -0.2183 -0.0649
 1319ERGO    R416943  15.982   6.875   6.233  0.3366  0.3437  0.2042
 1319ERGO    R516944  16.187   6.866   6.307  0.3884 -0.2755  0.0350
 1319ERGO    C116945  16.006   6.687   6.591  0.1155  0.0340  0.0616
 1319ERGO    C216946  15.840   6.484   6.776 -0.2785 -0.1198  0.1124
 1320ERGO   ROH16947   0.555   1.037   6.012  0.0495  0.3937 -0.1636
 1320ERGO    R116948   0.552   1.152   6.271 -0.2598  0.2058 -0.0790
 1320ERGO    R216949   0.366   1.081   6.463 -0.1412 -0.3609 -0.1573
 1320ERGO    R316950   0.587   1.034   6.613 -0.0498  0.0346 -0.1571
 1320ERGO    R416951   0.365   1.020   6.803 -0.0337 -0.3592 -0.1560
 1320ERGO    R516952   0.543   1.144   6.821 -0.2480 -0.0369 -0.1585
 1320ERGO    C116953   0.572   0.940   7.142  0.1148  0.0130 -0.1550
 1320ERGO    C216954   0.447   0.626   7.404  0.2793 -0.1208  0.3856
 1321ERGO   ROH16955  11.444   4.610   6.088 -0.0373  0.0234 -0.0838
 1321ERGO    R116956  11.291   4.692   6.312 -0.0086  0.0547 -0.0764
 1321ERGO    R216957  11.139   4.517   6.461  0.0450  0.0698 -0.0088
 1321ERGO    R316958  11.283   4.617   6.668  0.0646  0.1397 -0.0554
 1321ERGO    R416959  11.029   4.534   6.788  0.0576  0.2060 -0.0107
 1321ERGO    R516960  11.122   4.730   6.804  0.0767  0.2077 -0.0929
 1321ERGO    C116961  11.101   4.638   7.173  0.0834  0.3510 -0.0555
 1321ERGO    C216962  11.143   4.446   7.361 -0.1396 -0.3213 -0.2834
 1322ERGO   ROH16963  16.858   1.930   6.220  0.1330  0.1988 -0.0138
 1322ERGO    R116964  16.891   1.982   6.496 -0.0043  0.2577 -0.0081
 1322ERGO    R216965  16.691   2.091   6.652 -0.1741  0.0441 -0.0742
 1322ERGO    R316966  16.735   1.872   6.806  0.0301  0.1044 -0.0441
 1322ERGO    R416967  16.602   2.062   6.985 -0.1681  0.0004 -0.0760
 1322ERGO    R516968  16.792   1.961   7.021 -0.0691  0.1878 -0.0511
 1322ERGO    C116969  16.593   1.840   7.324  0.0270  0.0317 -0.0487
 1322ERGO    C216970  16.433   1.691   7.675  0.1725 -0.0243  0.1437
 1323ERGO   ROH16971  10.531   5.926   6.086 -0.0236 -0.1162 -0.1353
 1323ERGO    R116972  10.417   5.974   6.341  0.1045 -0.0134 -0.0965
 1323ERGO    R216973  10.172   5.870   6.417  0.0593  0.1608  0.0055
 1323ERGO    R316974  10.315   5.773   6.627  0.0743  0.0829 -0.0402
 1323ERGO    R416975  10.041   5.801   6.729  0.1211  0.1993  0.0405
 1323ERGO    R516976  10.222   5.884   6.818  0.1818  0.1107 -0.0061
 1323ERGO    C116977  10.099   5.670   7.108  0.1712  0.1485  0.0179
 1323ERGO    C216978   9.945   5.566   7.382 -0.3104 -0.1476  0.4137
 1324ERGO   ROH16979   3.066  15.430   6.543  0.3269 -0.0625 -0.1740
 1324ERGO    R116980   3.080  15.210   6.720  0.0224 -0.0739 -0.1616
 1324ERGO    R216981   3.168  15.233   6.981  0.1708 -0.1990 -0.2055
 1324ERGO    R316982   2.930  15.116   7.038 -0.0102  0.2068 -0.0897
 1324ERGO    R416983   3.096  15.066   7.275  0.1283 -0.2929 -0.2677
 1324ERGO    R516984   2.988  14.917   7.158 -0.2683 -0.0082 -0.2990
 1324ERGO    C116985   2.829  14.859   7.500 -0.0664  0.0332 -0.1952
 1324ERGO    C216986   2.773  14.680   7.849  0.0040 -0.1820  0.0074
 1325ERGO   ROH16987   1.532   9.912   5.864  0.1144 -0.0192 -0.0520
 1325ERGO    R116988   1.436   9.950   6.127  0.0178 -0.1315 -0.0705
 1325ERGO    R216989   1.459   9.756   6.322  0.2059 -0.1074 -0.0667
 1325ERGO    R316990   1.578   9.957   6.463 -0.0545  0.0342 -0.0425
 1325ERGO    R416991   1.535   9.742   6.659  0.2672 -0.0698 -0.0790
 1325ERGO    R516992   1.470   9.950   6.677 -0.0222 -0.1592 -0.0299
 1325ERGO    C116993   1.691   9.923   6.987  0.0585  0.0849 -0.0633
 1325ERGO    C216994   1.821   9.913   7.328 -0.2470 -0.1046  0.1638
 1326ERGO   ROH16995   2.597  10.969   5.894  0.0350  0.0764  0.0236
 1326ERGO    R116996   2.516  11.008   6.162 -0.0185  0.0764  0.0085
 1326ERGO    R216997   2.529  10.807   6.352 -0.0414  0.0781  0.0179
 1326ERGO    R316998   2.672  10.992   6.490 -0.0774  0.0914  0.0360
 1326ERGO    R416999   2.526  10.841   6.696 -0.1051  0.1024  0.0145
 1326ERGO    R517000   2.527  11.058   6.669 -0.1096  0.0966  0.0036
 1326ERGO    C117001   2.659  11.034   7.026 -0.1759  0.1290  0.0295
 1326ERGO    C217002   2.569  11.204   7.316  0.0621 -0.0052  0.0326
 1327ERGO   ROH17003  12.867   3.662   6.416 -0.1719  0.0477  0.0076
 1327ERGO    R117004  12.986   3.691   6.671 -0.1915  0.0522  0.0157
 1327ERGO    R217005  13.119   3.921   6.748 -0.0570 -0.0080 -0.0387
 1327ERGO    R317006  12.946   3.911   6.958 -0.0944  0.1689 -0.0586
 1327ERGO    R417007  13.191   4.027   7.069  0.0406 -0.1483 -0.0131
 1327ERGO    R517008  13.083   3.853   7.146 -0.1820 -0.0320 -0.0527
 1327ERGO    C117009  13.071   4.079   7.453  0.0622 -0.0640 -0.0170
 1327ERGO    C217010  12.880   4.344   7.580 -0.0437 -0.0076  0.0181
 1328ERGO   ROH17011  10.019   0.154   6.449 -0.2597 -0.2595 -0.0979
 1328ERGO    R117012  10.073   0.306   6.682 -0.1103 -0.2475 -0.1383
 1328ERGO    R217013   9.873   0.401   6.848 -0.0275  0.0575 -0.1991
 1328ERGO    R317014  10.015   0.272   7.040 -0.2172 -0.0627 -0.1377
 1328ERGO    R417015   9.922   0.517   7.170 -0.0571  0.0121 -0.1789
 1328ERGO    R517016  10.128   0.446   7.158 -0.1158 -0.1630 -0.0920
 1328ERGO    C117017  10.085   0.463   7.537 -0.2524 -0.1272 -0.1095
 1328ERGO    C217018  10.210   0.495   7.858  0.0724 -0.2906 -0.2966
 1329ERGO   ROH17019   3.510   2.516   5.893 -0.1133 -0.2872  0.2914
 1329ERGO    R117020   3.434   2.616   6.147 -0.1755 -0.1286  0.2115
 1329ERGO    R217021   3.591   2.791   6.291 -0.1003 -0.2210  0.2446
 1329ERGO    R317022   3.366   2.943   6.292  0.0347 -0.0127  0.0546
 1329ERGO    R417023   3.477   2.971   6.562 -0.2390 -0.2332  0.1943
 1329ERGO    R517024   3.274   2.910   6.511 -0.2421 -0.0242 -0.0602
 1329ERGO    C117025   3.198   3.219   6.722 -0.1931 -0.0446 -0.0133
 1329ERGO    C217026   3.398   3.351   6.970 -0.0168  0.0094 -0.0909
 1330ERGO   ROH17027  15.332  11.040   5.854 -0.0520 -0.1038  0.0463
 1330ERGO    R117028  15.387  11.254   6.031  0.0040 -0.0913  0.0136
 1330ERGO    R217029  15.248  11.292   6.267  0.1049 -0.0974  0.0733
 1330ERGO    R317030  15.496  11.290   6.377  0.1541 -0.0654 -0.0355
 1330ERGO    R417031  15.322  11.390   6.590  0.2318 -0.0891  0.0422
 1330ERGO    R517032  15.503  11.486   6.514  0.1873 -0.0643 -0.0370
 1330ERGO    C117033  15.599  11.445   6.881  0.3518 -0.0542 -0.0780
 1330ERGO    C217034  15.599  11.531   7.162 -0.1435 -0.0743 -0.0495
 1331ERGO   ROH17035  13.861  14.702   6.357  0.0101  0.2886 -0.1177
 1331ERGO    R117036  13.994  14.699   6.607  0.0793  0.2024 -0.1549
 1331ERGO    R217037  14.168  14.898   6.686  0.1259  0.1599 -0.1468
 1331ERGO    R317038  14.006  14.910   6.903  0.1867  0.1186 -0.0989
 1331ERGO    R417039  14.277  14.923   7.013  0.2220 -0.1610 -0.1514
 1331ERGO    R517040  14.120  14.783   7.071  0.1340 -0.0895 -0.2187
 1331ERGO    C117041  14.188  14.948   7.408  0.3352 -0.3867 -0.1091
 1331ERGO    C217042  14.210  14.952   7.712  0.1437 -0.0766  0.1613
 1332ERGO   ROH17043   5.685   9.218   6.331  0.1504  0.4820 -0.0627
 1332ERGO    R117044   5.787   9.286   6.586  0.1645  0.1984  0.0089
 1332ERGO    R217045   5.630   9.392   6.787  0.2216  0.1799  0.0573
 1332ERGO    R317046   5.729   9.183   6.931  0.0179 -0.0156 -0.0765
 1332ERGO    R417047   5.578   9.342   7.125  0.1107 -0.0270  0.0131
 1332ERGO    R517048   5.785   9.279   7.143  0.0583 -0.2176  0.0093
 1332ERGO    C117049   5.640   9.118   7.457 -0.1451 -0.3310 -0.1383
 1332ERGO    C217050   5.693   9.096   7.835  0.3089  0.2291 -0.1364
 1333ERGO   ROH17051   6.643   7.819   6.075 -0.0545 -0.0712 -0.0398
 1333ERGO    R117052   6.515   7.702   6.299 -0.0258 -0.0683 -0.0217
 1333ERGO    R217053   6.604   7.468   6.417  0.1267  0.0535  0.1123
 1333ERGO    R317054   6.605   7.620   6.642 -0.0549  0.1618  0.0423
 1333ERGO    R417055   6.607   7.345   6.740  0.2079  0.2078  0.1716
 1333ERGO    R517056   6.467   7.501   6.796  0.0437  0.0951  0.0792
 1333ERGO    C117057   6.610   7.415   7.139  0.0848  0.3993  0.1405
 1333ERGO    C217058   6.673   7.298   7.475  0.1191 -0.0219  0.2955
 1334ERGO   ROH17059  18.644   2.237   6.027  0.0823  0.0558 -0.0170
 1334ERGO    R117060  18.651   2.082   6.264  0.0707 -0.0065 -0.0568
 1334ERGO    R217061  18.867   2.085   6.436  0.0025  0.0612  0.0296
 1334ERGO    R317062  18.678   2.147   6.621 -0.1051 -0.0907 -0.0275
 1334ERGO    R417063  18.908   2.056   6.778 -0.0521  0.1634  0.0451
 1334ERGO    R517064  18.703   1.981   6.791  0.0174 -0.0354  0.0086
 1334ERGO    C117065  18.753   2.097   7.151 -0.1848  0.0803  0.0004
 1334ERGO    C217066  18.910   2.120   7.461  0.1575  0.1117  0.0233
 1335ERGO   ROH17067  10.125   6.933   6.030  0.2488  0.2318  0.0607
 1335ERGO    R117068  10.217   6.980   6.293  0.1051  0.1694  0.1226
 1335ERGO    R217069  10.052   6.960   6.514  0.0079  0.0205  0.0362
 1335ERGO    R317070  10.244   6.788   6.602  0.0348  0.0641  0.0646
 1335ERGO    R417071  10.179   6.954   6.835 -0.1250 -0.0274  0.0891
 1335ERGO    R517072  10.378   6.920   6.751 -0.0753  0.0706  0.1607
 1335ERGO    C117073  10.433   6.790   7.105 -0.1771 -0.0146  0.1466
 1335ERGO    C217074  10.540   6.842   7.398  0.1519  0.1333  0.0110
 1336ERGO   ROH17075  12.803  12.045   6.324  0.3522 -0.0055  0.0463
 1336ERGO    R117076  12.697  11.889   6.536  0.4437 -0.0685  0.0467
 1336ERGO    R217077  12.804  11.893   6.790  0.3093  0.1660  0.1052
 1336ERGO    R317078  12.549  11.953   6.862  0.1875 -0.1393 -0.0544
 1336ERGO    R417079  12.673  11.850   7.107  0.2158  0.1900  0.0700
 1336ERGO    R517080  12.488  11.779   7.016  0.3543 -0.1257  0.0264
 1336ERGO    C117081  12.358  11.882   7.360  0.0470 -0.0829 -0.1003
 1336ERGO    C217082  12.241  11.656   7.649 -0.0788 -0.0111 -0.0607
 1337ERGO   ROH17083   7.837  10.277   5.906 -0.1817  0.2107  0.0552
 1337ERGO    R117084   8.051  10.435   6.003 -0.0873  0.1418 -0.0389
 1337ERGO    R217085   8.013  10.681   6.123  0.0376  0.1150  0.0585
 1337ERGO    R317086   8.156  10.569   6.325  0.1495  0.0290 -0.0672
 1337ERGO    R417087   8.201  10.857   6.353  0.1544  0.0177  0.0384
 1337ERGO    R517088   8.354  10.703   6.339  0.1524  0.0290 -0.1122
 1337ERGO    C117089   8.446  10.854   6.677  0.3275 -0.1198 -0.0912
 1337ERGO    C217090   8.599  11.044   6.939 -0.1262  0.1753  0.3316
 1338ERGO   ROH17091   9.573  14.676   6.224  0.0206  0.0220  0.1117
 1338ERGO    R117092   9.463  14.646   6.483 -0.0220  0.0311  0.0947
 1338ERGO    R217093   9.239  14.785   6.566 -0.0888 -0.0331  0.0231
 1338ERGO    R317094   9.146  14.536   6.625 -0.0124 -0.0554  0.0502
 1338ERGO    R417095   9.043  14.707   6.840 -0.1824 -0.0353 -0.0439
 1338ERGO    R517096   9.159  14.524   6.864 -0.1160  0.0183  0.0606
 1338ERGO    C117097   8.842  14.429   7.055 -0.1652 -0.0576 -0.0575
 1338ERGO    C217098   8.578  14.441   7.330 -0.1114 -0.2287 -0.4497
 1339ERGO   ROH17099   8.264   1.284   6.886 -0.1276  0.1623 -0.0012
 1339ERGO    R117100   8.103   1.332   7.114 -0.0195  0.1641  0.0765
 1339ERGO    R217101   7.927   1.143   7.215 -0.1609  0.2494  0.0030
 1339ERGO    R317102   8.064   1.186   7.445 -0.0456 -0.0168 -0.0039
 1339ERGO    R417103   7.799   1.101   7.533  0.0250 -0.1994  0.0285
 1339ERGO    R517104   7.903   1.282   7.594  0.0099 -0.2477  0.2127
 1339ERGO    C117105   7.853   1.117   7.934  0.2414 -0.7107  0.0368
 1339ERGO    C217106   7.864   0.837   8.104 -0.1145  0.1891 -0.0975
 1340ERGO   ROH17107  18.453  14.393   5.892  0.0294 -0.1528 -0.0314
 1340ERGO    R117108  18.506  14.487   6.154  0.1583 -0.1485 -0.0573
 1340ERGO    R217109  18.306  14.531   6.339  0.2182  0.1272 -0.0480
 1340ERGO    R317110  18.457  14.366   6.493  0.0428 -0.0131 -0.0262
 1340ERGO    R417111  18.314  14.536   6.685  0.2827  0.2105 -0.0509
 1340ERGO    R517112  18.529  14.503   6.675  0.2403 -0.0532 -0.0767
 1340ERGO    C117113  18.459  14.383   7.030  0.1556  0.1271 -0.0321
 1340ERGO    C217114  18.420  14.312   7.255  0.2029 -0.1208 -0.3351
 1341ERGO   ROH17115   7.182   9.961   6.141  0.0685  0.0543  0.0063
 1341ERGO    R117116   7.333   9.870   6.363  0.1543  0.1648 -0.0050
 1341ERGO    R217117   7.494  10.037   6.513 -0.2238  0.3658  0.1956
 1341ERGO    R317118   7.347   9.941   6.720 -0.1346 -0.0844  0.0599
 1341ERGO    R417119   7.619   9.963   6.827 -0.2068  0.2995  0.1730
 1341ERGO    R517120   7.492   9.785   6.830  0.1007  0.0683 -0.0314
 1341ERGO    C117121   7.553   9.829   7.204 -0.1131 -0.1618  0.0325
 1341ERGO    C217122   7.785   9.864   7.409 -0.1631  0.1500  0.1258
 1342ERGO   ROH17123  11.648  15.768   6.610  0.2160 -0.0353  0.1871
 1342ERGO    R117124  11.490  15.948   6.760  0.0900 -0.0283  0.0472
 1342ERGO    R217125  11.219  15.980   6.717  0.0900 -0.1696 -0.0536
 1342ERGO    R317126  11.204  15.927   6.984  0.0304 -0.0407 -0.0297
 1342ERGO    R417127  10.948  16.055   6.918 -0.0211 -0.2179 -0.1830
 1342ERGO    R517128  11.087  16.115   7.075 -0.1072 -0.0577 -0.1655
 1342ERGO    C117129  10.775  16.048   7.285 -0.1417 -0.1252 -0.2358
 1342ERGO    C217130  10.517  16.085   7.548 -0.0715 -0.0029  0.2018
 1343ERGO   ROH17131  14.920   3.798   6.223  0.0624  0.2130 -0.1752
 1343ERGO    R117132  15.092   3.721   6.434 -0.0288  0.1017 -0.1390
 1343ERGO    R217133  15.368   3.729   6.413 -0.0123 -0.0407 -0.0699
 1343ERGO    R317134  15.348   3.880   6.638  0.0038 -0.0491 -0.0643
 1343ERGO    R417135  15.632   3.809   6.622 -0.0060 -0.0351 -0.0811
 1343ERGO    R517136  15.500   3.778   6.792  0.0132 -0.0421 -0.0775
 1343ERGO    C117137  15.767   3.997   6.954  0.0127 -0.0397 -0.0823
 1343ERGO    C217138  16.055   3.956   7.048  0.0928 -0.0951  0.1655
 1344ERGO   ROH17139   9.182  17.875   6.479  0.0702  0.0417 -0.0490
 1344ERGO    R117140   9.145  17.970   6.744  0.0275  0.0405 -0.0544
 1344ERGO    R217141   8.956  17.863   6.915  0.0245  0.0145 -0.0727
 1344ERGO    R317142   9.170  17.833   7.080  0.0118  0.0493 -0.0498
 1344ERGO    R417143   8.940  17.851   7.260 -0.0017  0.0715 -0.0719
 1344ERGO    R517144   9.121  17.973   7.268 -0.0072  0.0784 -0.0772
 1344ERGO    C117145   9.131  17.816   7.616 -0.0289  0.1372 -0.0499
 1344ERGO    C217146   9.263  17.711   8.038 -0.1057 -0.0959 -0.0657
 1345ERGO   ROH17147   6.934  15.453   6.601 -0.3045  0.0320  0.0015
 1345ERGO    R117148   6.872  15.379   6.867 -0.0529  0.1083  0.0860
 1345ERGO    R217149   6.889  15.555   7.080 -0.1460  0.2633 -0.0216
 1345ERGO    R317150   6.632  15.480   7.121 -0.0320 -0.0391  0.1615
 1345ERGO    R417151   6.693  15.657   7.345 -0.2013  0.3061 -0.0798
 1345ERGO    R517152   6.614  15.455   7.358  0.0793  0.2178  0.1914
 1345ERGO    C117153   6.337  15.646   7.539 -0.1265  0.0473  0.0582
 1345ERGO    C217154   6.133  15.476   7.787 -0.3841 -0.3289  0.2908
 1346W        W17155   0.733  17.747   5.206  0.0929  0.2059  0.2115
 1347W        W17156   7.640   5.772   3.454  0.3675 -0.0553 -0.3323
 1348W        W17157  10.903  11.982  15.268 -0.2591  0.1469  0.0938
 1349W        W17158   5.820  11.059  13.989 -0.2449  0.1647 -0.0419
 1350W        W17159   9.195   5.099  15.445 -0.2115 -0.2617 -0.1465
 1351W        W17160  14.039   7.118  14.712 -0.0069  0.1103  0.1501
 1352W        W17161   2.104   7.364   3.207 -0.1957  0.2609 -0.2095
 1353W        W17162  15.313   8.193  11.728 -0.1877  0.1364 -0.0122
 1354W        W17163   8.791   5.396  12.958 -0.0183 -0.0772 -0.1252
 1355W        W17164  13.890   0.130   3.104 -0.0081  0.0444 -0.1290
 1356W        W17165   7.599   1.212   1.865 -0.1160 -0.0215  0.3156
 1357W        W17166   1.287   8.552  15.389 -0.0208 -0.1682 -0.0044
 1358W        W17167  10.589  12.478   3.052  0.2268 -0.1038  0.0211
 1359W        W17168  16.016  13.502   1.360  0.1432  0.1799  0.1256
 1360W        W17169   0.400  11.911   2.032  0.0785 -0.2277 -0.1965
 1361W        W17170  10.051  12.890   2.395  0.0974  0.0219  0.2447
 1362W        W17171   5.515  18.427   1.027 -0.0951 -0.2283 -0.1599
 1363W        W17172   9.825   5.719   0.425  0.0747 -0.2217 -0.0340
 1364W        W17173   9.462  14.175  15.355 -0.1207  0.0188 -0.0729
 1365W        W17174   1.356  14.754   5.584 -0.3688  0.3431  0.0158
 1366W        W17175  16.861   4.928  14.035  0.1998  0.0633 -0.2449
 1367W        W17176   6.198   2.606  15.011 -0.1684  0.3039  0.1887
 1368W        W17177  18.045  18.304   3.282 -0.0735  0.0544 -0.3664
 1369W        W17178  12.189   7.365  11.576  0.0667  0.3337  0.0559
 1370W        W17179  15.982  11.565   4.245 -0.2370 -0.4338  0.2897
 1371W        W17180   3.463   8.812  12.325 -0.4793 -0.1342  0.0188
 1372W        W17181  10.858  13.984   5.538 -0.0095 -0.0001 -0.0717
 1373W        W17182   6.603  11.427   4.420  0.2699 -0.3469 -0.0218
 1374W        W17183   3.789   9.121   0.397 -0.2481  0.0552 -0.1622
 1375W        W17184   0.007  16.283  14.268  0.0261  0.2091  0.3364
 1376W        W17185   7.245   5.422   2.795  0.3485 -0.3377  0.1174
 1377W        W17186   8.541   5.957   3.021  0.1466  0.0023  0.2253
 1378W        W17187  10.321  11.012  14.896  0.1239  0.1108 -0.2835
 1379W        W17188   0.221   7.137   4.632 -0.1613  0.1368  0.2453
 1380W        W17189   8.592  16.756  12.030 -0.0883  0.3718  0.3360
 1381W        W17190  15.769  17.233  14.492 -0.0032  0.3341  0.2401
 1382W        W17191  18.548  12.454  12.274  0.0469  0.2941 -0.1692
 1383W        W17192   1.232   1.814  13.257  0.3662  0.2671  0.1484
 1384W        W17193   2.995  16.924  14.325 -0.4581 -0.2072  0.1354
 1385W        W17194  13.841  17.367  13.019  0.1102 -0.2378 -0.1966
 1386W        W17195  11.489   0.334  14.011  0.2533 -0.0171  0.0901
 1387W        W17196   6.839   6.019  14.801  0.1223  0.2192  0.1064
 1388W        W17197  11.608   0.323   0.905 -0.1359 -0.1188  0.2114
 1389W        W17198  16.469   3.366   2.231  0.2873 -0.0099 -0.3712
 1390W        W17199   2.687   1.658  14.743 -0.1261  0.1352  0.1416
 1391W        W17200   3.494   4.354   4.693  0.1289  0.0588 -0.1117
 1392W        W17201   5.961   1.612   1.029 -0.0437 -0.1975  0.1845
 1393W        W17202   3.744   7.933  14.595  0.0498 -0.2335  0.1620
 1394W        W17203   4.212  12.780   1.678  0.0957 -0.4959 -0.1044
 1395W        W17204  17.126  18.585  10.638  0.2856 -0.1600 -0.1534
 1396W        W17205  17.724  11.379   0.600 -0.0730 -0.1182  0.3589
 1397W        W17206   5.552  15.854  12.199  0.0081  0.0807  0.0140
 1398W        W17207   0.566  18.618  12.911  0.0851 -0.5456  0.4661
 1399W        W17208   4.527   6.498  11.812 -0.3498 -0.1715 -0.0082
 1400W        W17209  16.834   8.989  12.030 -0.1015  0.2388  0.1182
 1401W        W17210   9.224  12.311   0.705 -0.2430  0.2173  0.1150
 1402W        W17211  17.234   8.925   2.127 -0.1254  0.1950 -0.1289
 1403W        W17212  14.999  11.465  13.542 -0.3538 -0.2089  0.3364
 1404W        W17213  15.714   3.615  15.267 -0.0477  0.1706 -0.0588
 1405W        W17214   3.706  14.656  13.296 -0.3055  0.3531  0.2535
 1406W        W17215   9.217  13.259  12.416 -0.2817  0.1399  0.1012
 1407W        W17216  17.572   4.622  13.086  0.0119 -0.0001  0.0538
 1408W        W17217   5.894   2.098  12.502  0.2945 -0.2116 -0.0363
 1409W        W17218  11.843   6.629   4.124  0.0916 -0.0259  0.1454
 1410W        W17219  16.633   3.680  12.304 -0.0112 -0.1423 -0.1991
 1411W        W17220  16.943   9.369  14.853  0.1100  0.1061 -0.1287
 1412W        W17221   3.452   8.433  11.944 -0.0512 -0.2213 -0.1104
 1413W        W17222  17.324  12.927   4.325 -0.1770  0.2861 -0.0079
 1414W        W17223   6.255   6.695   4.688 -0.2053 -0.2189 -0.0817
 1415W        W17224   9.091   7.668  14.935 -0.2780 -0.1628  0.4057
 1416W        W17225   9.610  11.371   2.064 -0.2742 -0.1305  0.1822
 1417W        W17226   7.156  11.231   3.237 -0.1674  0.1249  0.2641
 1418W        W17227  11.655  16.655  15.397 -0.2302 -0.1150  0.1617
 1419W        W17228  18.287  18.660   9.835 -0.0991  0.1884  0.2115
 1420W        W17229  18.063   5.993  14.279 -0.1714  0.0854  0.3180
 1421W        W17230  18.348  11.602   3.256 -0.0935 -0.0299 -0.2992
 1422W        W17231   2.805   6.312   3.689  0.0013 -0.2478  0.3200
 1423W        W17232   8.007  16.586  14.536  0.1401  0.0777 -0.0258
 1424W        W17233  18.562   9.920   0.971  0.1056 -0.2793  0.0579
 1425W        W17234   4.950  17.714   0.367  0.0466 -0.2545  0.2548
 1426W        W17235  18.599   4.120  14.915  0.1057 -0.1417 -0.1081
 1427W        W17236   1.155   7.185  14.300  0.0538 -0.1005  0.1263
 1428W        W17237   0.531   2.104   3.541  0.1010  0.0624 -0.1113
 1429W        W17238  15.775   2.293  15.137 -0.0843  0.0383  0.2113
 1430W        W17239   5.118  14.984   2.328 -0.2757  0.1909  0.1125
 1431W        W17240  17.111   2.039   2.030  0.1789 -0.2368  0.3262
 1432W        W17241   2.015  10.924  13.867 -0.0209  0.1585  0.5237
 1433W        W17242  18.398   0.017   1.390  0.1500  0.0812 -0.1331
 1434W        W17243  10.295   7.064   0.932  0.2278  0.0862  0.0796
 1435W        W17244   2.568   8.118  15.035 -0.0174 -0.0845  0.1827
 1436W        W17245  11.917   1.555  10.050 -0.1406 -0.3205  0.0358
 1437W        W17246   1.928  17.267  10.531  0.0236 -0.0489 -0.1981
 1438W        W17247   5.013   0.198  10.030  0.2293 -0.0628  0.1359
 1439W        W17248   5.474   8.290  12.363  0.2075  0.0469  0.1252
 1440W        W17249   2.357  16.561   0.015 -0.0104 -0.0937  0.0199
 1441W        W17250   5.365  11.919  11.029 -0.2364  0.1111 -0.3511
 1442W        W17251  13.583  12.014   5.878 -0.1513  0.2765  0.2330
 1443W        W17252  14.183  16.173  14.584 -0.1486  0.4949 -0.2916
 1444W        W17253  14.959   2.106  12.904  0.1313  0.1030 -0.0915
 1445W        W17254   7.954   1.906  10.840  0.0892  0.0085 -0.0731
 1446W        W17255   8.071   8.024   1.143 -0.2856  0.0813  0.0257
 1447W        W17256   0.208   8.647  12.256  0.1948 -0.2469 -0.4173
 1448W        W17257   7.110   8.663   1.496 -0.0577 -0.2052  0.1578
 1449W        W17258   7.696  17.472  14.882 -0.3991  0.2273 -0.0286
 1450W        W17259  12.386   5.667   1.618  0.2926  0.3032  0.1207
 1451W        W17260  11.291   8.519   2.938  0.1850  0.2511  0.3476
 1452W        W17261  10.812  11.366   2.566 -0.2047 -0.3085 -0.4149
 1453W        W17262   7.657   3.136   4.471 -0.1983 -0.0589 -0.4628
 1454W        W17263   2.731   7.275  14.041  0.0362  0.1769 -0.1688
 1455W        W17264   0.302   2.148  13.196  0.2987 -0.3885  0.1434
 1456W        W17265  17.131  15.940   5.255  0.1514 -0.2139  0.0174
 1457W        W17266   0.902   0.999  14.422 -0.2482  0.1493  0.0454
 1458W        W17267  13.500  16.258   4.792  0.0417 -0.1401  0.1343
 1459W        W17268   2.344   1.931   3.425  0.3662  0.0107 -0.1757
 1460W        W17269  11.269   7.372   2.808  0.1542  0.2038 -0.0554
 1461W        W17270  14.957   3.324   1.585 -0.1205  0.0765  0.4406
 1462W        W17271   0.323  11.859  12.662  0.1041 -0.4324 -0.2023
 1463W        W17272   3.686  13.957   4.311  0.2506 -0.0308 -0.1660
 1464W        W17273  18.378   6.082  14.804 -0.0405 -0.1064 -0.4418
 1465W        W17274   4.338  10.306   2.027 -0.0274  0.0859 -0.3521
 1466W        W17275   1.693  17.090  12.421  0.1936 -0.1897  0.1343
 1467W        W17276  14.526  18.405  11.146 -0.1394  0.0106  0.0213
 1468W        W17277   2.944  12.067   3.063 -0.0709  0.2451 -0.0640
 1469W        W17278  14.952   7.431  14.273  0.3379  0.0843 -0.0699
 1470W        W17279   7.720  10.517   0.835  0.3482  0.0733 -0.1549
 1471W        W17280   1.671   6.200  10.651  0.2405 -0.1855 -0.2083
 1472W        W17281   6.700   3.966   0.898  0.1483  0.2356 -0.1537
 1473W        W17282  11.038  11.638   6.046 -0.0400 -0.2690 -0.0930
 1474W        W17283  10.108  11.636   2.439 -0.0267  0.0006  0.0793
 1475W        W17284  13.386  16.168  12.009 -0.2607  0.2195 -0.2075
 1476W        W17285  14.681  17.552   3.592 -0.0523 -0.0848  0.1753
 1477W        W17286   5.569   5.832   0.160  0.2639  0.3071 -0.3048
 1478W        W17287  16.514   0.983   0.106 -0.2467 -0.2858 -0.2100
 1479W        W17288  16.610  15.722  12.365  0.0794 -0.0069 -0.3851
 1480W        W17289  13.249   7.209   4.582  0.1326  0.0654  0.1785
 1481W        W17290  17.880   5.365   4.107  0.2169 -0.2337 -0.1371
 1482W        W17291   3.096   1.304  14.643 -0.1060 -0.1600  0.0656
 1483W        W17292  13.757   2.677  12.305 -0.2782 -0.3364 -0.1817
 1484W        W17293  10.846  16.823   0.657 -0.1417 -0.0706  0.0414
 1485W        W17294   9.119   6.841  14.301 -0.0806 -0.2683  0.0205
 1486W        W17295  14.074   5.126  14.415 -0.0154  0.2050 -0.2595
 1487W        W17296  13.097  10.475  14.657  0.2420 -0.1099 -0.2423
 1488W        W17297  18.140   4.311   2.965 -0.0004  0.1689  0.0223
 1489W        W17298  16.165   7.704  11.307  0.0029 -0.1864  0.1244
 1490W        W17299  16.429   8.949   4.610 -0.4940 -0.1535 -0.3272
 1491W        W17300  10.995  16.109   3.569  0.2714 -0.0002 -0.3037
 1492W        W17301   0.055   8.590  12.833  0.1095  0.0640 -0.0360
 1493W        W17302  12.803   1.353   1.560  0.0493  0.1916 -0.2527
 1494W        W17303  14.709   7.565   5.065 -0.1062 -0.2500 -0.1327
 1495W        W17304  13.943   9.413  13.314 -0.0632 -0.0533 -0.0522
 1496W        W17305  17.004  15.756   3.052 -0.1463  0.0258  0.0494
 1497W        W17306  14.888   4.293   2.309  0.0617 -0.0824  0.0324
 1498W        W17307  11.291   1.845   0.347  0.1453  0.1199  0.1158
 1499W        W17308   9.213   4.371  14.854 -0.1564  0.1191 -0.2284
 1500W        W17309  17.994   5.175   3.073  0.2978  0.0384  0.0269
 1501W        W17310   6.374  15.027  11.366  0.1045  0.1271  0.0735
 1502W        W17311   6.256  17.682  14.705  0.2581 -0.1208  0.1286
 1503W        W17312   1.823  17.641   3.301 -0.1158 -0.0854 -0.2436
 1504W        W17313  17.669   8.224   4.087 -0.1300 -0.3777 -0.1532
 1505W        W17314   9.632  13.490   5.055  0.1525 -0.2837  0.0181
 1506W        W17315  16.371   4.372   1.499  0.0403  0.2616  0.0984
 1507W        W17316  18.160  17.482   2.567 -0.0720  0.0114 -0.0755
 1508W        W17317   3.997  11.382  13.985  0.0048  0.1652  0.2860
 1509W        W17318  14.312  17.743  15.166 -0.1521 -0.0781  0.0313
 1510W        W17319   5.967  10.036   0.846 -0.1429 -0.0078 -0.0296
 1511W        W17320  15.571   9.889   0.172  0.1836 -0.4213  0.1901
 1512W        W17321  10.897  16.809   2.216 -0.0185  0.0561 -0.1371
 1513W        W17322   4.111   0.951   1.592  0.1827 -0.1010 -0.0554
 1514W        W17323  16.724   7.035  13.559 -0.0950 -0.1692  0.1604
 1515W        W17324   8.710   4.095   1.076 -0.2059  0.2196  0.4597
 1516W        W17325  18.529   9.888  14.676  0.0550  0.2105 -0.2437
 1517W        W17326  14.385  17.330  11.875 -0.1767 -0.1039  0.0218
 1518W        W17327  15.758   5.457  10.811  0.3129 -0.0942 -0.1222
 1519W        W17328   3.540   7.149   0.715 -0.1059  0.1795  0.2757
 1520W        W17329  18.121  13.196   0.724 -0.3243 -0.0886 -0.0784
 1521W        W17330  18.203  18.497   4.772 -0.1996 -0.1219 -0.0310
 1522W        W17331  16.695   9.952   5.128  0.1457  0.0953  0.1240
 1523W        W17332   0.459   0.682   0.513 -0.0529 -0.1068 -0.3406
 1524W        W17333   0.644   7.364   3.401 -0.3017  0.0576  0.1388
 1525W        W17334   7.008   9.413  12.856 -0.0912  0.2595 -0.1571
 1526W        W17335  11.730   0.463   3.181  0.1648  0.1643  0.0529
 1527W        W17336   8.963  11.716  14.374  0.0164 -0.1241 -0.0179
 1528W        W17337   6.649  11.565  11.520  0.1652  0.0081 -0.3330
 1529W        W17338   6.090  12.618   1.841  0.1161  0.0929  0.0286
 1530W        W17339  10.727   5.309   4.073 -0.1656  0.0350 -0.2810
 1531W        W17340   2.641  18.462  13.433  0.0703  0.0804  0.0348
 1532W        W17341   2.500  12.677   0.910  0.0765  0.1919 -0.1563
 1533W        W17342   3.061   2.915   0.726 -0.1591 -0.2155 -0.1333
 1534W        W17343  17.578   5.792   9.115  0.3373  0.0203  0.0103
 1535W        W17344  14.465  16.014  15.363  0.2152  0.0126 -0.1340
 1536W        W17345  15.558  16.589  13.787 -0.2315 -0.0027 -0.0838
 1537W        W17346  12.244   7.288  13.019  0.0430 -0.0490 -0.0041
 1538W        W17347   7.144   6.712   4.066 -0.0837 -0.1174  0.1636
 1539W        W17348  15.386   7.362  13.383 -0.0674 -0.2606 -0.1037
 1540W        W17349  12.200   9.589  12.204 -0.1530  0.4733 -0.0585
 1541W        W17350  16.779   9.099  10.662  0.0048 -0.1791 -0.0532
 1542W        W17351  16.595   2.859  11.349  0.2098 -0.3342 -0.0127
 1543W        W17352  12.738   6.305   5.592  0.1448 -0.0197  0.0640
 1544W        W17353   8.637   4.862   2.188  0.0731 -0.0102  0.1291
 1545W        W17354   9.517  18.487  11.046 -0.2686 -0.0984  0.1265
 1546W        W17355  18.631  16.874  13.212 -0.1711 -0.1350  0.0799
 1547W        W17356   4.411   2.834   5.628  0.0372 -0.3020 -0.0443
 1548W        W17357  12.348  15.677  10.596 -0.1265  0.0950 -0.2500
 1549W        W17358   1.097   9.971   9.663  0.2888 -0.1283 -0.1529
 1550W        W17359  11.532   9.192   4.686 -0.1256  0.0599  0.0033
 1551W        W17360   5.092  15.827  12.753 -0.0189  0.1283  0.1637
 1552W        W17361   9.962   4.558  11.509  0.5094  0.3571  0.3878
 1553W        W17362   1.524   0.112   3.699 -0.0712 -0.1679 -0.1485
 1554W        W17363  13.546   4.827  13.984 -0.1417 -0.0773  0.2540
 1555W        W17364  12.456  11.548   0.864  0.0501 -0.2216  0.2824
 1556W        W17365  10.236  18.427   0.557  0.0437 -0.0933  0.0201
 1557W        W17366   2.161  17.113   2.114  0.1009 -0.0616 -0.1682
 1558W        W17367   8.564   1.305   3.621 -0.2474 -0.1519 -0.0299
 1559W        W17368   5.411   6.481  12.959  0.0172  0.1636  0.3074
 1560W        W17369  16.711   0.770  12.687  0.0529 -0.3392  0.2192
 1561W        W17370   9.654  16.180   3.513 -0.3445  0.2561  0.0165
 1562W        W17371   2.951   5.266   3.403 -0.0712  0.2016  0.1202
 1563W        W17372   7.683   5.438   3.018  0.2665  0.2671 -0.3060
 1564W        W17373  18.117   1.305   2.262 -0.0583  0.2157  0.2875
 1565W        W17374  13.937  15.002   4.707  0.1128 -0.3701  0.0296
 1566W        W17375   2.090  15.780  14.837  0.2908 -0.1808 -0.0085
 1567W        W17376  13.936   7.895  11.744  0.3414 -0.0214  0.0421
 1568W        W17377   0.143  12.287   1.286  0.3379  0.0188 -0.0512
 1569W        W17378   5.999  14.851   1.303  0.4075 -0.0238  0.0663
 1570W        W17379   6.288   3.966  11.106  0.0604  0.1786 -0.0494
 1571W        W17380   6.239  17.693   0.269  0.0767  0.1336 -0.2169
 1572W        W17381  11.390  13.050  14.525  0.1470  0.1725 -0.0932
 1573W        W17382   1.633  15.053   2.804 -0.0733 -0.1054 -0.1888
 1574W        W17383   1.199   3.702   6.116 -0.1385  0.4331  0.2650
 1575W        W17384   2.199   8.485  14.909 -0.3644 -0.2027  0.1789
 1576W        W17385   0.778   2.176  13.377 -0.1077  0.0004  0.0974
 1577W        W17386  15.007   9.277   4.098  0.0061  0.2985 -0.2611
 1578W        W17387   1.374   4.456  11.853  0.1994 -0.2770 -0.1393
 1579W        W17388   8.800   4.746  15.411 -0.0831  0.2411  0.3323
 1580W        W17389  11.732  15.524  12.921 -0.0864 -0.3187 -0.0223
 1581W        W17390   8.618  13.934   9.819 -0.2965  0.0891 -0.0737
 1582W        W17391   9.774  12.887   2.977  0.1675 -0.0406  0.0688
 1583W        W17392   0.208  14.306  13.176 -0.2322 -0.0733  0.0866
 1584W        W17393  14.819  17.966  11.392  0.0559  0.0382 -0.2341
 1585W        W17394  18.366  10.228   1.807 -0.1154  0.0689  0.2617
 1586W        W17395  11.916  15.846   2.970  0.1369  0.1193 -0.0173
 1587W        W17396   0.194   4.838  15.506  0.1616 -0.0818 -0.2254
 1588W        W17397   2.650   0.577   1.683 -0.0308 -0.0843 -0.0302
 1589W        W17398  14.105  13.138   3.985 -0.1871  0.2033 -0.1613
 1590W        W17399  17.295  14.376   0.437  0.1248 -0.1566  0.0978
 1591W        W17400  11.779   2.166   5.594 -0.0046 -0.1394 -0.2761
 1592W        W17401  10.137  18.117  13.720  0.0104 -0.3598 -0.0768
 1593W        W17402  12.691   9.465   0.350  0.0689  0.0268 -0.0246
 1594W        W17403   3.509   5.599   5.338 -0.1978  0.0157 -0.3891
 1595W        W17404   1.687   9.603  13.550  0.2616  0.0413  0.0063
 1596W        W17405  11.023   0.473   4.101  0.0964 -0.0717 -0.2257
 1597W        W17406  17.079  16.810   1.015 -0.1219  0.1229 -0.2258
 1598W        W17407   7.886   3.619   3.843  0.0684  0.2932  0.2604
 1599W        W17408  11.836   5.123   0.431  0.3909  0.2930  0.3422
 1600W        W17409   1.130   9.679   2.669 -0.2381  0.1100  0.2244
 1601W        W17410  14.066  15.843  14.119 -0.1130  0.5128  0.1469
 1602W        W17411   5.249  10.847   1.810 -0.0651  0.2721 -0.1376
 1603W        W17412  15.663  10.132  12.021 -0.0417 -0.2090 -0.0689
 1604W        W17413   0.868   1.470  11.676 -0.0489  0.3044 -0.0222
 1605W        W17414   8.059   1.039  11.518 -0.0718  0.3470 -0.1269
 1606W        W17415   7.234   8.270   2.632  0.2242  0.0492  0.1553
 1607W        W17416  13.616  12.195  14.262 -0.0205  0.2432  0.0750
 1608W        W17417  14.759  14.276  14.682  0.0770 -0.0119  0.1909
 1609W        W17418   0.631  11.866  12.097 -0.3378 -0.0107 -0.2113
 1610W        W17419   4.126   9.574   0.478 -0.0854 -0.0964 -0.0060
 1611W        W17420  16.402  13.933  15.166 -0.2540 -0.0493 -0.0433
 1612W        W17421   5.997   6.504  10.877 -0.0215  0.0928  0.2444
 1613W        W17422  12.632   8.758   5.791 -0.1579 -0.0144 -0.1334
 1614W        W17423  14.983  18.380   6.198  0.2644 -0.1836 -0.3850
 1615W        W17424  15.962  13.793  14.934  0.0950  0.2926  0.0922
 1616W        W17425   6.199  16.571   5.255  0.0090 -0.0572 -0.0148
 1617W        W17426  18.205  10.955  11.146 -0.2190  0.1814 -0.2925
 1618W        W17427  16.182  17.150   1.411 -0.3059 -0.0502 -0.2522
 1619W        W17428   8.758   4.734  11.696  0.1320  0.0200 -0.1540
 1620W        W17429   9.534   4.355  14.434 -0.4060 -0.0623 -0.2583
 1621W        W17430  12.645   7.268  12.346  0.0745 -0.1405  0.2459
 1622W        W17431  12.374   9.020   4.854  0.3889  0.0917 -0.1383
 1623W        W17432   2.538  16.090  14.997  0.3649 -0.2951 -0.0075
 1624W        W17433  14.463   3.494   1.911  0.0252 -0.0223 -0.0242
 1625W        W17434   3.546   0.257   3.274  0.0166  0.0601 -0.0753
 1626W        W17435   7.324   4.354  12.683 -0.1733  0.0626  0.1315
 1627W        W17436  11.018   6.356  13.777  0.2640  0.4042  0.1960
 1628W        W17437   3.828  10.768  13.676  0.1463  0.4061  0.0892
 1629W        W17438  12.991  13.679   1.054  0.0829  0.2280  0.2843
 1630W        W17439  17.007   4.202  12.365  0.0615 -0.0733 -0.0431
 1631W        W17440   2.729  11.175   1.097 -0.2089  0.0379 -0.0343
 1632W        W17441  14.526   6.802  11.012 -0.1084 -0.1119 -0.0673
 1633W        W17442  16.895   7.185   0.805 -0.1829  0.3961  0.0503
 1634W        W17443   9.734   6.637   5.835  0.4136 -0.1152 -0.0572
 1635W        W17444   3.050   2.545  10.568  0.0273 -0.0182 -0.2944
 1636W        W17445   5.508  17.920  12.806 -0.1554  0.4465  0.2360
 1637W        W17446   4.560   4.355  12.423  0.0216  0.0843  0.0599
 1638W        W17447   6.841  10.501  11.910 -0.0954  0.0282  0.0241
 1639W        W17448   0.244   9.124  11.771 -0.1252 -0.1223 -0.1580
 1640W        W17449   3.905   1.892  11.941  0.0041 -0.0015  0.2625
 1641W        W17450   4.803  11.841  14.228 -0.1040 -0.2707 -0.1918
 1642W        W17451   0.571  13.406   3.069  0.0110  0.2124  0.3029
 1643W        W17452  13.334  11.139   0.645  0.1558  0.0522 -0.0977
 1644W        W17453  17.713   8.739   4.899 -0.0004 -0.2881 -0.0942
 1645W        W17454   8.425  16.526   4.779 -0.2981 -0.1121  0.0522
 1646W        W17455   2.638  18.407  15.414  0.4459  0.1296  0.3050
 1647W        W17456   2.562  18.612   2.192 -0.2712  0.1511 -0.0559
 1648W        W17457  18.201  16.559   4.083  0.1127 -0.0696 -0.1266
 1649W        W17458  12.000  17.474  14.039  0.2008  0.2182 -0.0610
 1650W        W17459   8.478  16.606   5.294 -0.1204 -0.1639  0.2436
 1651W        W17460   9.888   7.256  12.409 -0.0032  0.3443  0.1141
 1652W        W17461   0.268   7.489   2.527 -0.0724  0.3214 -0.0810
 1653W        W17462  13.998  13.785  10.408  0.0000  0.0433  0.0312
 1654W        W17463  15.977   1.060   3.112 -0.2916 -0.0227 -0.0370
 1655W        W17464  17.720   6.806   3.885  0.1093 -0.1051 -0.1253
 1656W        W17465   0.133  11.105  10.000 -0.0423  0.0849  0.0282
 1657W        W17466  10.059  14.435  11.189 -0.0769  0.0577 -0.0007
 1658W        W17467   3.898  14.256   0.762 -0.1911 -0.0078  0.0299
 1659W        W17468   3.649   6.079   3.485 -0.3488  0.2872  0.1740
 1660W        W17469   2.831   7.050   5.120 -0.0007 -0.1122 -0.1855
 1661W        W17470   6.141   9.385  12.493  0.0381  0.0342 -0.0818
 1662W        W17471   2.529   6.774  12.226 -0.1138 -0.0533  0.1100
 1663W        W17472  10.413  18.395  11.309  0.3866 -0.2248  0.3034
 1664W        W17473   3.759  10.505   9.540  0.1882 -0.1355  0.4286
 1665W        W17474  10.669  16.166  10.567  0.0751 -0.0156  0.2310
 1666W        W17475  10.584  10.842   4.888  0.0823 -0.4134 -0.0627
 1667W        W17476  10.507  17.080  11.093 -0.3660 -0.0761  0.0566
 1668W        W17477  13.595  13.542   2.210  0.1524  0.0141 -0.0961
 1669W        W17478  12.411  18.433  10.491  0.3256  0.0398  0.1785
 1670W        W17479   5.389   7.409  12.625  0.3490 -0.0296 -0.1155
 1671W        W17480  11.277   5.437   0.425 -0.3096 -0.0374  0.3933
 1672W        W17481   3.314   8.693  14.282 -0.3514 -0.0663 -0.0703
 1673W        W17482   2.351  17.559   3.729  0.2109  0.0388  0.0321
 1674W        W17483   9.749  18.229   2.186 -0.2665 -0.0599 -0.2069
 1675W        W17484  14.245   6.451   0.394 -0.1242 -0.1487  0.1140
 1676W        W17485   6.581   7.954  11.101  0.0542  0.0756  0.1233
 1677W        W17486   0.543   3.006  11.568 -0.0716  0.1670  0.4043
 1678W        W17487  10.846  16.180   0.205  0.1198 -0.0435 -0.0568
 1679W        W17488   6.773   5.319  11.301 -0.0638  0.2340 -0.0102
 1680W        W17489   5.821  17.450   0.613  0.2583 -0.2603  0.1390
 1681W        W17490  10.091   1.998   2.750  0.0932  0.0718 -0.2711
 1682W        W17491   4.090   7.035   3.590 -0.0499 -0.1649 -0.0571
 1683W        W17492   7.751  12.023   2.236  0.0779 -0.0757  0.2199
 1684W        W17493   8.099  18.217  11.323 -0.1428  0.1277 -0.1329
 1685W        W17494  17.988  14.758  15.594 -0.0681  0.0122 -0.1097
 1686W        W17495  15.193  10.633  14.751 -0.0109 -0.0987 -0.2200
 1687W        W17496  11.875  18.264   4.548 -0.1450  0.0879 -0.3428
 1688W        W17497   2.593  17.808  14.001  0.0550 -0.0860  0.2876
 1689W        W17498   0.987  11.384   4.322  0.3403  0.1453  0.0270
 1690W        W17499   8.762   0.090   4.511  0.0336 -0.0401 -0.1673
 1691W        W17500   6.887   8.072  12.869  0.1654  0.0560 -0.3042
 1692W        W17501   8.553  17.821   4.809 -0.0719  0.1569  0.2927
 1693W        W17502  12.698  11.504  15.446  0.0026  0.1481 -0.3190
 1694W        W17503   4.090   2.802  12.189  0.0129 -0.0378  0.1248
 1695W        W17504  15.691   0.211   2.632  0.1270 -0.1426 -0.1414
 1696W        W17505   4.220  18.471  13.615  0.1648  0.1075 -0.1185
 1697W        W17506  17.322   0.722  15.503  0.2317 -0.1260 -0.1115
 1698W        W17507   9.197  15.460  11.206  0.3181  0.0550 -0.1221
 1699W        W17508  10.524   8.066  12.725 -0.0174  0.2045 -0.0608
 1700W        W17509   9.199  16.210  15.197  0.3567  0.1836 -0.0816
 1701W        W17510   1.338   1.966   5.606  0.1391 -0.0367  0.0661
 1702W        W17511  10.758  12.913  14.159  0.1986  0.2388 -0.1801
 1703W        W17512   4.150   7.479   2.803  0.0428 -0.1081  0.0210
 1704W        W17513  18.133   1.225  12.366 -0.0076  0.0531 -0.0777
 1705W        W17514   3.796   4.855  14.541 -0.0086 -0.2559 -0.0966
 1706W        W17515   6.690  17.269  13.488 -0.3129 -0.0070  0.1600
 1707W        W17516   9.387  16.387  12.822 -0.2306  0.1453 -0.1630
 1708W        W17517   6.546   4.841   1.479  0.1812  0.1797 -0.1229
 1709W        W17518  13.839   3.658   2.001  0.0970  0.2432  0.1136
 1710W        W17519   5.314   1.851   5.073  0.1304 -0.1562 -0.1344
 1711W        W17520  15.257   4.717   0.156  0.0881  0.1171 -0.4142
 1712W        W17521   1.105  16.265   3.548  0.0374  0.1314 -0.1948
 1713W        W17522  12.948  15.182  13.717  0.1969  0.1661  0.0640
 1714W        W17523   6.306  13.529  12.006  0.3010 -0.1668 -0.0441
 1715W        W17524  14.197   1.523   4.479  0.4662  0.2452 -0.1376
 1716W        W17525  11.285  16.588   9.917 -0.1067 -0.2100  0.0291
 1717W        W17526  13.065   5.268  14.621  0.0497 -0.1538  0.2044
 1718W        W17527   3.460  10.470   1.670  0.3409  0.1336  0.2412
 1719W        W17528   8.386  16.175  12.699  0.1259  0.1745  0.0127
 1720W        W17529  12.847   2.230  12.632  0.0667 -0.1930  0.0926
 1721W        W17530   8.966  14.032  15.400 -0.0509 -0.0724  0.0291
 1722W        W17531   5.531  11.026   6.008  0.3631 -0.2346  0.1474
 1723W        W17532   8.369  11.742   4.617  0.0317 -0.2499  0.2336
 1724W        W17533   3.843   2.196   0.287 -0.1192  0.2604 -0.0509
 1725W        W17534   7.409  14.881  11.889 -0.0173 -0.1655 -0.0282
 1726W        W17535   2.007   6.453   1.942 -0.2227 -0.1015 -0.3070
 1727W        W17536  14.393   4.567   4.278 -0.1008  0.0543  0.1432
 1728W        W17537   0.439  11.501  11.707 -0.0951 -0.0698 -0.0810
 1729W        W17538  17.453  13.806  12.131 -0.0495  0.1173 -0.0782
 1730W        W17539   3.373  14.377  11.200  0.1134  0.1599  0.0080
 1731W        W17540  14.864   7.078  15.534 -0.2841  0.3824 -0.0138
 1732W        W17541   9.126  13.997  10.916 -0.0218  0.1304 -0.0881
 1733W        W17542   2.264  11.055  12.385  0.0657 -0.1624  0.1145
 1734W        W17543  10.889  14.078   1.522  0.1771  0.4850  0.1525
 1735W        W17544   0.271   3.122  12.630 -0.0812  0.3582 -0.0146
 1736W        W17545  16.938   4.848   1.043  0.0796  0.0146  0.0777
 1737W        W17546  11.594  11.043   4.869 -0.4218 -0.0867 -0.0162
 1738W        W17547  11.088   8.791   6.071 -0.1607  0.0518 -0.1697
 1739W        W17548  14.151   8.178  13.259 -0.0767 -0.1619 -0.0263
 1740W        W17549  16.495   9.298   1.662 -0.3053 -0.0133  0.0331
 1741W        W17550  14.078   3.776  14.584  0.1028  0.1324 -0.2607
 1742W        W17551  13.047  13.975   3.823  0.0417 -0.0888  0.1988
 1743W        W17552   6.833  13.143   0.714  0.0237  0.1470 -0.0034
 1744W        W17553   6.476   5.498   2.201 -0.1424  0.3552 -0.2303
 1745W        W17554   9.030  15.276   5.565  0.1495 -0.0979 -0.1428
 1746W        W17555  11.377  13.855   3.281  0.0220  0.2156 -0.1682
 1747W        W17556   9.894   5.292  13.054 -0.0342 -0.0757 -0.0071
 1748W        W17557   1.529   4.994   0.298 -0.0026  0.3787 -0.1682
 1749W        W17558   1.554  12.089  14.080  0.0224  0.1586  0.0035
 1750W        W17559  17.545   9.084  11.207 -0.1066  0.1831  0.0753
 1751W        W17560   2.238   5.828  14.860  0.0989 -0.0581  0.3090
 1752W        W17561   8.855   8.296   0.286 -0.3710  0.2137 -0.1436
 1753W        W17562  10.900   1.164  11.469 -0.3322  0.2524 -0.5122
 1754W        W17563   0.050  10.141   2.506 -0.0382  0.1695  0.1793
 1755W        W17564   0.997  18.608   0.799 -0.2117  0.0582 -0.2029
 1756W        W17565  11.839  13.634   5.674 -0.0979 -0.2244  0.1600
 1757W        W17566  15.121   5.230   0.939  0.0123 -0.0118 -0.3240
 1758W        W17567   9.206  17.476  13.043  0.0675 -0.0937  0.0382
 1759W        W17568  12.550   3.588   2.082 -0.2038 -0.1479 -0.3570
 1760W        W17569   6.646   1.797  14.542  0.1324 -0.1245  0.0436
 1761W        W17570  13.264  11.467   4.188 -0.0808 -0.0388  0.1236
 1762W        W17571  11.415  17.860   5.298  0.0703 -0.2679  0.1568
 1763W        W17572   9.995  16.808  14.347  0.1548 -0.2796 -0.0209
 1764W        W17573   1.685   0.486  11.254  0.4132 -0.2062  0.1260
 1765W        W17574   2.377   2.369  14.326  0.2151 -0.2453 -0.1299
 1766W        W17575   8.054  13.916   5.039  0.0260 -0.1131 -0.0162
 1767W        W17576  17.779   5.199  10.740  0.0677  0.2011 -0.3477
 1768W        W17577  14.823  10.706  11.211  0.0871  0.0888 -0.1983
 1769W        W17578  11.767   4.249   0.758 -0.1304  0.3176  0.2046
 1770W        W17579   8.094  12.723  11.842  0.0206  0.0465 -0.2362
 1771W        W17580  12.638  17.039  12.240  0.2696 -0.0552  0.1525
 1772W        W17581   9.879   0.913   5.264  0.1966  0.2351 -0.1404
 1773W        W17582  13.050   8.470   5.674  0.0166 -0.0055  0.0692
 1774W        W17583   8.668   7.422  15.024 -0.1932 -0.1533  0.3240
 1775W        W17584   0.125   2.383   0.305 -0.1154  0.1008  0.2004
 1776W        W17585   5.142   3.458   1.322  0.1668 -0.0992  0.2481
 1777W        W17586   3.462  17.019  13.393 -0.0821  0.1881 -0.0359
 1778W        W17587   5.979  16.790   2.526 -0.2965 -0.0979 -0.2551
 1779W        W17588  11.515   1.164   0.942  0.0528 -0.1316  0.1129
 1780W        W17589   0.219   0.774   1.168 -0.0647  0.1954  0.0909
 1781W        W17590  14.975   6.344  11.690 -0.0550  0.2570  0.0701
 1782W        W17591  13.896   9.330   0.785 -0.1064  0.0208  0.0072
 1783W        W17592   0.408   9.454   3.258  0.1110 -0.1064  0.1204
 1784W        W17593   3.596   1.888   2.902  0.2675 -0.2145  0.0579
 1785W        W17594  15.947  17.986  15.272 -0.2218 -0.1345  0.4114
 1786W        W17595   8.797  12.115  10.558 -0.0908  0.1939  0.0739
 1787W        W17596   9.687   7.277   2.274 -0.1885 -0.0151  0.0616
 1788W        W17597  12.213   2.779   4.909 -0.3886 -0.3149  0.1770
 1789W        W17598  13.087   5.363   0.488 -0.2462 -0.0078 -0.0691
 1790W        W17599   8.750  10.141  14.640 -0.1768 -0.2576  0.0546
 1791W        W17600   5.123  10.499   4.646  0.2004 -0.1034  0.2029
 1792W        W17601   4.503  13.194  13.560  0.1447 -0.2138  0.0589
 1793W        W17602   9.039   3.474   3.375 -0.2359 -0.0107 -0.0695
 1794W        W17603   5.466   0.456  10.079  0.0855  0.0576  0.1514
 1795W        W17604   0.917  14.103  14.962  0.0142 -0.0479  0.1039
 1796W        W17605   0.583   7.505   4.580 -0.1648 -0.2047 -0.1872
 1797W        W17606   3.904   1.570  12.974 -0.3608  0.0660 -0.1685
 1798W        W17607  10.768  17.352  13.344 -0.0669 -0.3276  0.0960
 1799W        W17608   3.546   7.161  11.159 -0.1280 -0.2444 -0.2804
 1800W        W17609  17.484  17.301  13.614 -0.3122 -0.2186 -0.1168
 1801W        W17610   2.490   8.784   4.066  0.0750  0.1295  0.3321
 1802W        W17611  17.596   2.112   0.121 -0.1298 -0.0978 -0.2637
 1803W        W17612  16.712   2.841   3.307  0.1342  0.2088 -0.1068
 1804W        W17613  14.718   7.445  13.030 -0.0152  0.0075 -0.0512
 1805W        W17614  14.428  13.885   1.585 -0.3890  0.0150  0.0213
 1806W        W17615  14.753   2.965  14.511  0.0201  0.2125 -0.0175
 1807W        W17616   4.657   0.699  15.117  0.1099 -0.0220  0.2946
 1808W        W17617   6.042   9.034   3.514 -0.2105  0.3252 -0.0546
 1809W        W17618   2.440   9.076   1.123 -0.1109 -0.1679  0.0288
 1810W        W17619   4.955   6.073  12.666 -0.0428 -0.2113  0.3741
 1811W        W17620   1.854  15.906   0.521  0.2961  0.0412 -0.2043
 1812W        W17621  14.657  15.396  13.209 -0.0158 -0.1792 -0.1740
 1813W        W17622  12.129   5.528  15.196 -0.1965 -0.0555 -0.0757
 1814W        W17623  18.142  17.159   4.865  0.2378 -0.2202 -0.1782
 1815W        W17624   8.364  15.053   0.297 -0.0545 -0.1034  0.0697
 1816W        W17625  15.919   6.865  15.252  0.1503  0.1358  0.0347
 1817W        W17626   2.237   2.803   0.335 -0.1880  0.1334 -0.0228
 1818W        W17627  18.547   8.892  13.195  0.1920  0.5050 -0.0586
 1819W        W17628   8.548   9.477   1.101 -0.1663  0.2288  0.2053
 1820W        W17629   1.807   0.830   4.204 -0.0402  0.1570 -0.3253
 1821W        W17630  14.024  10.714   0.053  0.2578  0.3213  0.0860
 1822W        W17631  17.451   5.030  11.045 -0.0749 -0.2221 -0.1439
 1823W        W17632   7.805   3.257  13.775  0.1960  0.0641  0.0999
 1824W        W17633  16.379   3.551   0.589  0.0372 -0.0573 -0.4848
 1825W        W17634  12.013   8.334   3.664 -0.1008 -0.1634 -0.0617
 1826W        W17635  12.081   5.426   5.269 -0.1350 -0.1477 -0.0439
 1827W        W17636   6.281   8.636   2.207  0.0857 -0.1314 -0.3325
 1828W        W17637   7.161   9.251  14.806  0.2776  0.1759  0.2476
 1829W        W17638   7.584  14.959  14.077 -0.0498  0.1641  0.2168
 1830W        W17639  15.628   2.376  14.259  0.1412 -0.1374  0.0663
 1831W        W17640   4.188  15.011  15.298  0.1660 -0.0038 -0.3514
 1832W        W17641  18.648  11.758   0.615 -0.1146  0.3100  0.1099
 1833W        W17642   2.433  12.241  14.401 -0.3075  0.0339 -0.0522
 1834W        W17643   3.340   9.221  10.033 -0.2565  0.0881  0.0032
 1835W        W17644  13.711  10.671   3.467 -0.3432  0.0997 -0.0215
 1836W        W17645   3.947  10.941   9.615 -0.0424  0.0912 -0.1056
 1837W        W17646  12.038  14.319  11.274  0.1657 -0.1189  0.0266
 1838W        W17647  11.768  15.047  10.938 -0.0889 -0.2248 -0.2041
 1839W        W17648   4.190  15.730  12.371  0.0384 -0.2291 -0.2043
 1840W        W17649   1.730   7.141  10.958  0.1973 -0.3135 -0.1451
 1841W        W17650   6.292   6.728   1.443 -0.3706  0.1768  0.0834
 1842W        W17651   3.327  17.043  12.311  0.1376 -0.0964  0.2178
 1843W        W17652   3.193   4.244   0.522 -0.1983 -0.0767 -0.1457
 1844W        W17653  16.425   2.284  12.821 -0.2265 -0.0947 -0.0018
 1845W        W17654   8.485  18.221   5.596  0.1200 -0.0194 -0.1851
 1846W        W17655   1.390   5.498   4.990  0.3706  0.0646 -0.1618
 1847W        W17656  17.061  12.582  14.687 -0.0711  0.0810 -0.2932
 1848W        W17657  12.130   2.384   0.443  0.1501  0.1020 -0.0439
 1849W        W17658   3.072  13.118  13.524  0.2624  0.0165  0.0314
 1850W        W17659   6.004   6.392  15.315 -0.1158  0.0760 -0.0873
 1851W        W17660   5.580   6.526  14.664  0.1557 -0.0792 -0.0023
 1852W        W17661   2.652   8.991   1.597 -0.1491 -0.1420 -0.2307
 1853W        W17662   7.225   4.262  10.876  0.1110 -0.0134  0.0094
 1854W        W17663   4.956  16.545  14.333 -0.1817 -0.0336  0.4834
 1855W        W17664  10.155   6.348  12.295  0.2603  0.0313 -0.0897
 1856W        W17665  13.728   3.953   2.339  0.3074 -0.1943 -0.0235
 1857W        W17666  15.025   1.774   3.822  0.1978 -0.1879  0.0560
 1858W        W17667  12.186  15.963   4.293 -0.0482 -0.3661  0.0192
 1859W        W17668   5.963  10.086   3.794 -0.0024  0.0830 -0.1201
 1860W        W17669  14.769   5.596   2.766 -0.0889 -0.1591  0.0348
 1861W        W17670   8.943  17.381  15.416  0.0689  0.4073 -0.3150
 1862W        W17671   5.235   8.631  10.644 -0.3613  0.1426 -0.1179
 1863W        W17672   9.258  12.631  11.192  0.4633  0.1002 -0.1620
 1864W        W17673   6.602   0.119   3.912 -0.1474 -0.0091 -0.0943
 1865W        W17674   0.500  10.449   2.240  0.2966 -0.1358 -0.3490
 1866W        W17675  14.746   1.386   3.309  0.2769  0.0909 -0.1046
 1867W        W17676   7.923   7.181  11.868 -0.0597 -0.0869 -0.0017
 1868W        W17677   7.716   7.250   4.651  0.1220  0.1704  0.0848
 1869W        W17678   5.799  17.199   4.721  0.1716  0.1705 -0.0060
 1870W        W17679  16.088   5.766   3.365  0.1214  0.0897  0.1286
 1871W        W17680   1.260   7.252  13.726  0.2885  0.0248  0.0973
 1872W        W17681   7.361  17.297   4.705  0.0910  0.1510  0.1661
 1873W        W17682  18.577   0.208  11.543  0.0972 -0.1793  0.0256
 1874W        W17683  18.228   9.766  15.364  0.2369 -0.2004  0.2167
 1875W        W17684   5.490   5.825  15.240  0.0880  0.2232 -0.2061
 1876W        W17685   3.116   4.249   1.573  0.2283  0.3345  0.1052
 1877W        W17686   9.770   1.616   5.340 -0.2127  0.4004 -0.1830
 1878W        W17687   0.757  14.337  12.450 -0.0560  0.0945 -0.1668
 1879W        W17688  14.431   6.958   3.848 -0.1179  0.1577  0.1084
 1880W        W17689   6.717  14.769  13.476  0.0936 -0.0615 -0.3796
 1881W        W17690  15.036   6.517   4.062 -0.1371 -0.0790  0.0904
 1882W        W17691   0.792   9.971  14.942  0.1051 -0.0678 -0.0958
 1883W        W17692   8.670  15.739   2.548 -0.1750  0.0991  0.2231
 1884W        W17693   8.034  11.809   5.026  0.4518  0.0367  0.0463
 1885W        W17694  10.580  14.889   2.186 -0.2321  0.0271  0.0868
 1886W        W17695  15.594  12.037  11.555  0.1615 -0.2285 -0.0016
 1887W        W17696  11.606  13.554  13.375  0.2159 -0.4764 -0.1249
 1888W        W17697   9.539   5.209   2.609  0.1270 -0.0859 -0.0580
 1889W        W17698  17.190  18.556   3.721 -0.1942  0.0267 -0.2017
 1890W        W17699   2.170   4.463  14.367 -0.2208  0.0243 -0.2222
 1891W        W17700   0.336  11.924   3.136  0.0511 -0.3026 -0.0264
 1892W        W17701  12.690  13.837   1.531  0.2398  0.0647  0.4412
 1893W        W17702  11.400  12.066   3.171 -0.0689  0.0196 -0.1869
 1894W        W17703  18.595  14.735   2.065  0.4498  0.1231 -0.1095
 1895W        W17704   3.901  10.019   0.694 -0.3310  0.2686 -0.3504
 1896W        W17705  15.101  14.582  13.957 -0.3204 -0.2364 -0.1089
 1897W        W17706   2.663  11.970  13.954  0.0802 -0.1220 -0.1258
 1898W        W17707   3.341  14.345   1.608 -0.0728 -0.0313 -0.0819
 1899W        W17708   3.892  15.642  10.921  0.1236 -0.3164  0.1163
 1900W        W17709   1.264   9.587  15.409 -0.1142  0.2385  0.0500
 1901W        W17710  11.232   8.845   4.455 -0.2508 -0.0906  0.1930
 1902W        W17711   7.853  12.532   0.754 -0.1143  0.1994 -0.1099
 1903W        W17712   3.670   8.580  10.672 -0.2168 -0.1523  0.0169
 1904W        W17713   3.483   5.294  14.316 -0.0139 -0.0160 -0.0276
 1905W        W17714   0.526   8.576   3.852 -0.2286  0.2561  0.1504
 1906W        W17715  17.577  15.143  13.344 -0.1127  0.0398  0.2153
 1907W        W17716   8.562   5.043   2.711 -0.0721 -0.1813  0.0861
 1908W        W17717  14.232  17.976  11.213 -0.2655  0.3298 -0.1662
 1909W        W17718  12.038  13.769  12.478 -0.1618 -0.1516 -0.0331
 1910W        W17719   4.907   0.247   3.275  0.1558 -0.0862  0.1297
 1911W        W17720   9.010   5.708   3.144 -0.1535  0.2971  0.2081
 1912W        W17721   3.668  12.864  15.075 -0.0870  0.3021 -0.1860
 1913W        W17722  10.968  16.858  11.109 -0.1452  0.1405  0.1535
 1914W        W17723  15.668  14.029  11.775  0.2511 -0.0162  0.2752
 1915W        W17724  17.736  17.866   2.025  0.0450 -0.1421  0.2479
 1916W        W17725   9.918  17.124   4.535 -0.1400  0.0459 -0.1863
 1917W        W17726  14.517  13.620   2.892  0.0959  0.0537  0.2008
 1918W        W17727  14.120  18.673   5.120  0.0049  0.3898 -0.3460
 1919W        W17728   4.195   6.173  15.145  0.2353  0.0948  0.2103
 1920W        W17729  16.293  16.030  12.662 -0.0740 -0.0906  0.1566
 1921W        W17730  12.420   9.368   3.626 -0.2205 -0.1717 -0.0659
 1922W        W17731  18.562   2.536  13.299  0.1951  0.3776  0.2328
 1923W        W17732  10.760  16.202   4.021 -0.1405  0.4094 -0.0959
 1924W        W17733  13.284  13.030   1.597 -0.0571  0.0387  0.2468
 1925W        W17734  10.787   6.566   2.628  0.2274 -0.0613 -0.1054
 1926W        W17735  17.229   8.733   0.401 -0.0615  0.0034 -0.0117
 1927W        W17736   6.850   3.113  13.696  0.0427 -0.2963  0.0653
 1928W        W17737  11.802   7.336   2.515  0.2274  0.3617  0.0732
 1929W        W17738   1.591   9.271   3.972  0.1935  0.1426  0.2735
 1930W        W17739  16.131  10.343  10.793 -0.1511 -0.1007 -0.1302
 1931W        W17740  15.601   8.175  14.639 -0.4333 -0.0185  0.2149
 1932W        W17741   7.945   6.247  13.661  0.2705  0.2738  0.2009
 1933W        W17742   8.048   6.079   3.585 -0.0557 -0.1245  0.0514
 1934W        W17743   2.462   6.902   2.810  0.0412 -0.1275  0.1127
 1935W        W17744   8.374  14.067   2.675 -0.0332  0.0400  0.0914
 1936W        W17745  14.163   1.249   5.872 -0.1275 -0.1923  0.0360
 1937W        W17746  18.262   9.458  14.458  0.0207  0.0359  0.3616
 1938W        W17747  11.563  13.172  11.845  0.3855  0.0197  0.0337
 1939W        W17748   0.664   1.035  11.581 -0.0206  0.1922  0.1782
 1940W        W17749  10.732  10.542   0.119  0.2591  0.2328  0.0396
 1941W        W17750  14.689   9.464  11.048 -0.2428 -0.2550  0.1323
 1942W        W17751   1.268   9.016   1.932  0.2653  0.1020  0.0489
 1943W        W17752   5.056   5.788  14.548 -0.1490 -0.0604 -0.2879
 1944W        W17753  10.867   2.779   4.686  0.0337 -0.0029 -0.0267
 1945W        W17754   8.695   5.174   0.039  0.0428 -0.2101 -0.1073
 1946W        W17755  14.609   1.772  14.521 -0.0214  0.0536 -0.1022
 1947W        W17756  15.744   4.459  13.796  0.3756 -0.1614  0.0566
 1948W        W17757   9.612  18.367   4.091  0.0768 -0.3300 -0.3397
 1949W        W17758   7.851   5.734  12.743  0.1221  0.0773  0.3763
 1950W        W17759  14.734  15.240  12.312 -0.0939 -0.0523  0.0854
 1951W        W17760  13.086   6.858  13.534 -0.1286  0.1666 -0.0282
 1952W        W17761  15.793  11.677   1.573 -0.0855 -0.1781 -0.0720
 1953W        W17762   0.396  18.212  12.698 -0.1312  0.0552  0.2614
 1954W        W17763   0.539   4.227   2.792  0.0747 -0.3525  0.1604
 1955W        W17764  10.338   1.567   2.616 -0.1033  0.1499 -0.0782
 1956W        W17765  16.634   2.625   4.721 -0.2435  0.0174 -0.2136
 1957W        W17766  17.564   9.260   9.511 -0.0591  0.1470  0.1104
 1958W        W17767   2.500  17.354  12.599 -0.1002  0.2013  0.2128
 1959W        W17768   7.968  15.121   4.352 -0.0896  0.0142  0.2941
 1960W        W17769   8.838   9.285   1.490  0.1895 -0.0083 -0.1032
 1961W        W17770   4.209  12.809  15.085  0.1583  0.1787  0.0097
 1962W        W17771  18.285   1.048   3.725 -0.0627 -0.1597 -0.1151
 1963W        W17772   1.613  10.907  10.455 -0.2157  0.0016  0.3580
 1964W        W17773   3.016   3.362   1.931 -0.0321  0.1329  0.1472
 1965W        W17774  17.490   9.222  13.971  0.0421  0.2414 -0.0163
 1966W        W17775   8.215  16.213  13.749  0.1048  0.0265  0.0543
 1967W        W17776  15.598   9.226  13.652  0.0936 -0.1946 -0.0231
 1968W        W17777  10.124   0.627   0.904  0.0700  0.1643  0.1029
 1969W        W17778  11.450  10.952  10.344  0.0589 -0.1079  0.1864
 1970W        W17779  15.289   6.923   3.378 -0.2511 -0.0858 -0.2998
 1971W        W17780   2.434  15.090  14.525 -0.1416 -0.2096  0.3178
 1972W        W17781  11.849   3.796   1.597  0.0100 -0.1989 -0.0220
 1973W        W17782  13.736   6.389  11.153  0.0590 -0.2988  0.1113
 1974W        W17783  15.654   8.859   0.081  0.0932 -0.4237  0.2350
 1975W        W17784   5.020   6.141   3.303  0.1351 -0.1861  0.3852
 1976W        W17785   3.871  10.945  14.955 -0.0494  0.1846  0.4344
 1977W        W17786  13.158   2.563  15.452  0.0526  0.3963 -0.1630
 1978W        W17787  16.874   1.113  11.462  0.0744  0.0065  0.3454
 1979W        W17788  16.810  14.487   0.145  0.0321  0.1647  0.0294
 1980W        W17789   1.961   5.695  12.364 -0.0242  0.1436  0.1218
 1981W        W17790  14.964  14.633   2.183 -0.0947 -0.0770  0.2247
 1982W        W17791  12.141   9.789   3.363 -0.0986  0.0858  0.0803
 1983W        W17792  16.061   5.285  13.104  0.0422  0.1279 -0.2581
 1984W        W17793  16.133   8.756   1.408 -0.1077 -0.0416 -0.0676
 1985W        W17794  15.701  14.341  14.833  0.1184 -0.0082  0.0962
 1986W        W17795  16.849   1.130   4.020  0.2788  0.0035  0.1388
 1987W        W17796  13.098  14.966  14.240 -0.0072  0.0775  0.0685
 1988W        W17797   2.066   4.813   2.909  0.1486 -0.3736  0.0608
 1989W        W17798   4.572   0.425   2.024  0.1121  0.0163 -0.1022
 1990W        W17799  14.491  12.984   1.445  0.1868 -0.0409  0.2992
 1991W        W17800   2.456   5.491  11.927  0.0453  0.0011 -0.1086
 1992W        W17801  10.923   9.838   5.648  0.0376  0.3361 -0.1033
 1993W        W17802   7.114  13.687   4.286  0.0298 -0.0267  0.0909
 1994W        W17803  14.832   3.530  14.631 -0.0927 -0.1167 -0.0696
 1995W        W17804   4.686  11.107   0.014 -0.2041  0.0128 -0.2126
 1996W        W17805   9.224   7.371   2.593 -0.0644  0.3556 -0.3296
 1997W        W17806   9.087  16.975   3.565  0.1547  0.2905 -0.1677
 1998W        W17807   8.263   4.365   0.860  0.0179  0.4091 -0.1685
 1999W        W17808  14.838   4.710  14.252 -0.0259 -0.1369 -0.3979
 2000W        W17809   7.709   5.202  11.183 -0.0817 -0.1881 -0.1487
 2001W        W17810   9.224  16.765  14.642  0.1911 -0.0005  0.0358
 2002W        W17811  10.578   8.103  11.564 -0.0308 -0.0370  0.0556
 2003W        W17812   2.060  14.674  12.943 -0.0471 -0.1204 -0.0768
 2004W        W17813  11.197  14.531   1.772 -0.1934 -0.1101 -0.1792
 2005W        W17814  12.398   2.767   0.629  0.0050  0.1784  0.1487
 2006W        W17815  18.365   0.810   2.887  0.1624  0.0643  0.1744
 2007W        W17816   8.383   0.618   5.664 -0.3866  0.0447 -0.2134
 2008W        W17817  14.660   7.797  14.452  0.2672  0.0256 -0.1091
 2009W        W17818  10.350  10.520  15.119  0.1106 -0.4568  0.2492
 2010W        W17819  14.410   4.459   0.656  0.0328 -0.0242 -0.4288
 2011W        W17820  11.271  12.237   0.397  0.1201  0.3099 -0.2013
 2012W        W17821  17.738   8.000  12.349  0.4964 -0.2278  0.1093
 2013W        W17822   1.281   8.933  14.801 -0.2875  0.2452 -0.1053
 2014W        W17823  17.653  11.888  11.954  0.1204  0.0696 -0.0375
 2015W        W17824  12.835   8.694   3.756 -0.1745 -0.1002 -0.0277
 2016W        W17825   6.204   9.558  10.638 -0.1174  0.0928  0.4747
 2017W        W17826  12.660  13.665  14.036  0.2056  0.0703  0.0433
 2018W        W17827   4.084   5.957   2.574 -0.0150 -0.0377 -0.0154
 2019W        W17828   1.692   9.643  11.099 -0.0499  0.1538 -0.1375
 2020W        W17829  17.222  18.476  14.937 -0.3562  0.0939  0.0487
 2021W        W17830  18.064   6.982   2.733 -0.0180  0.1191 -0.1251
 2022W        W17831  18.528   2.150   2.328  0.0284  0.1208 -0.0274
 2023W        W17832   3.364   4.230  15.563  0.2760 -0.2087 -0.2853
 2024W        W17833  10.827  16.504   4.539  0.2216 -0.1830 -0.1699
 2025W        W17834   4.574  15.609   1.537  0.2713 -0.2336 -0.0301
 2026W        W17835  17.789  16.897   1.082  0.0513 -0.1889 -0.1520
 2027W        W17836  10.274   8.005   1.892 -0.1693 -0.0615 -0.0073
 2028W        W17837   6.182  11.665   2.033 -0.1045 -0.2598 -0.4162
 2029W        W17838  15.145  15.625  13.145  0.4928  0.1239 -0.0755
 2030W        W17839  14.464   1.699  12.123  0.1314  0.0537  0.0395
 2031W        W17840   8.711  16.559   0.433 -0.2258  0.0753 -0.0709
 2032W        W17841   4.212  11.826  13.379 -0.2283 -0.1380  0.0231
 2033W        W17842  11.591   4.594   1.097 -0.0195 -0.0069 -0.0208
 2034W        W17843  15.179   7.945   1.358  0.0413  0.0713  0.2669
 2035W        W17844  11.766  18.042   2.586  0.1953 -0.2606  0.1960
 2036W        W17845   0.659  14.077   4.082  0.6128 -0.2481 -0.0726
 2037W        W17846   7.928   2.015   3.294  0.2669  0.2393 -0.0427
 2038W        W17847   3.201   8.006   3.016  0.1320 -0.2138  0.0196
 2039W        W17848   2.306   7.941  14.045 -0.0481  0.2973 -0.1614
 2040W        W17849  11.611   3.675   0.088 -0.1299 -0.0127  0.0985
 2041W        W17850  18.417   6.517  13.224  0.2586  0.1591 -0.1154
 2042W        W17851   0.049  17.501   2.008  0.0396  0.2473 -0.1670
 2043W        W17852   5.156  13.319  12.353 -0.0167  0.5069 -0.1834
 2044W        W17853   2.918  11.571   1.302 -0.1730  0.0998  0.0715
 2045W        W17854   5.837   2.253   5.739 -0.0512 -0.2215 -0.1469
 2046W        W17855   7.020  15.120  12.049 -0.1760 -0.3879  0.0762
 2047W        W17856   9.383  15.642  13.887 -0.1339  0.0516  0.0135
 2048W        W17857   1.915  10.470  10.676 -0.1918  0.1359  0.2476
 2049W        W17858  17.692  13.158   0.967  0.1024 -0.1129  0.0015
 2050W        W17859   0.662   9.535   1.308  0.0901  0.0254 -0.0616
 2051W        W17860   7.724   6.466   5.260  0.1199 -0.3040  0.0380
 2052W        W17861  12.303   9.963   5.201  0.2524  0.0858 -0.0678
 2053W        W17862   9.460   6.975   2.813  0.0737 -0.1459 -0.0067
 2054W        W17863   2.744   5.874   1.336 -0.0156 -0.0462 -0.1492
 2055W        W17864  16.130   8.995   2.600  0.2406 -0.3317 -0.2226
 2056W        W17865   8.703  10.554   0.034  0.1062  0.5500 -0.1522
 2057W        W17866   6.001   7.925   2.274  0.0667  0.3459  0.3094
 2058W        W17867   4.339  10.086  12.673 -0.0880  0.1230  0.1494
 2059W        W17868   9.027   1.878   5.761 -0.2856 -0.1842 -0.1281
 2060W        W17869  12.427   7.021   1.749 -0.0783  0.4545  0.2340
 2061W        W17870  15.766  17.571  11.201  0.0761 -0.3893 -0.2550
 2062W        W17871  16.661   4.432  14.224  0.0272  0.0216  0.1557
 2063W        W17872  13.295   1.421  11.813  0.0214 -0.0899  0.3184
 2064W        W17873   5.795   2.439   3.465 -0.1022  0.1523 -0.0742
 2065W        W17874  17.920  11.810  11.144  0.0353 -0.0591  0.0680
 2066W        W17875   5.835  12.796  14.198 -0.4006 -0.1481  0.0467
 2067W        W17876   6.467  16.672  12.274  0.2838  0.0019 -0.2766
 2068W        W17877  11.106  18.601  14.848 -0.0206 -0.1840  0.1351
 2069W        W17878  13.095   5.858   3.627  0.0148 -0.0175  0.0709
 2070W        W17879  17.486  13.394   4.399 -0.2581 -0.0653  0.0659
 2071W        W17880  17.356  15.235  14.901  0.0293 -0.1841  0.1063
 2072W        W17881   2.344  17.984  14.403  0.1361  0.2336  0.0244
 2073W        W17882   6.327  13.907   1.530  0.3070 -0.0078 -0.1761
 2074W        W17883   2.856   1.109   4.440  0.1092 -0.2340 -0.0892
 2075W        W17884   0.950  18.286   3.814  0.0432 -0.1780  0.3134
 2076W        W17885  13.731   7.269   1.563  0.1222 -0.2643 -0.0070
 2077W        W17886   3.088  11.515   3.791 -0.0696 -0.0710 -0.1330
 2078W        W17887   5.489  16.727   4.616  0.5596 -0.1764  0.0702
 2079W        W17888  12.175   1.740  14.717 -0.0622  0.0034  0.1054
 2080W        W17889  17.427   2.472  12.379  0.3851 -0.2658 -0.0468
 2081W        W17890  11.243   8.342   4.287 -0.0314  0.0038  0.1805
 2082W        W17891  10.317  15.713   1.177 -0.0124 -0.1641 -0.0274
 2083W        W17892  11.999   0.137   2.857 -0.2266  0.1590  0.0128
 2084W        W17893   8.661   6.858  14.025  0.0355 -0.0905 -0.0617
 2085W        W17894  11.747   5.597   2.410 -0.2044  0.2326 -0.0716
 2086W        W17895   3.048   8.996   2.472 -0.1138  0.0107 -0.1704
 2087W        W17896  12.842   2.301  11.704 -0.2585  0.0086 -0.1647
 2088W        W17897  12.012  12.720   0.358  0.2084  0.2271 -0.1770
 2089W        W17898   8.437  16.345  11.211 -0.1287 -0.0227 -0.7024
 2090W        W17899  13.011   6.982   1.957 -0.2675 -0.0212  0.2078
 2091W        W17900   9.466   4.809  11.441  0.0902 -0.1166 -0.0251
 2092W        W17901   5.390   5.264   5.122  0.1776  0.0998  0.0473
 2093W        W17902   4.557  14.147  15.469 -0.0657 -0.1533 -0.0774
 2094W        W17903  12.146   5.603   4.805  0.2085 -0.2488  0.3024
 2095W        W17904  12.181   0.038  12.289 -0.1828  0.0074 -0.5074
 2096W        W17905  13.499   1.735   5.160  0.2607  0.0719  0.2612
 2097W        W17906   8.719   9.635   5.422 -0.0883  0.0945 -0.0581
 2098W        W17907   0.850   8.366   0.039  0.1603 -0.0681  0.0700
 2099W        W17908  18.164  15.707  12.057 -0.1272  0.0780  0.1653
 2100W        W17909  17.345  15.787   4.555 -0.0219  0.0934  0.0143
 2101W        W17910   1.217  12.546   3.244  0.0295 -0.0900 -0.2501
 2102W        W17911  15.356   3.027   1.414  0.1634  0.0994 -0.0428
 2103W        W17912  13.944   8.654  15.267 -0.1405  0.1788  0.2762
 2104W        W17913   4.343  12.013   0.332 -0.0767  0.1826  0.0578
 2105W        W17914  16.746   0.465   3.817  0.1341  0.0972  0.1066
 2106W        W17915  14.643  15.534   1.659 -0.0094  0.1759 -0.0741
 2107W        W17916  13.906   9.804  15.433  0.0553  0.0132  0.2806
 2108W        W17917   7.133   4.114  13.593 -0.0231  0.0737 -0.0726
 2109W        W17918  17.328   8.938  10.654  0.1959 -0.0122  0.2594
 2110W        W17919   0.778  16.192   2.215 -0.0499 -0.0124 -0.1431
 2111W        W17920  10.110   6.610  12.923  0.1166 -0.3979  0.1519
 2112W        W17921  17.176   3.508   4.547 -0.1638 -0.0122 -0.1499
 2113W        W17922  14.704   0.450  13.786 -0.2119  0.0365 -0.1220
 2114W        W17923  12.170   2.517   2.749  0.0768  0.1599 -0.3054
 2115W        W17924   8.357   4.433   3.711 -0.1310  0.2360  0.2057
 2116W        W17925  15.356   2.912  13.319 -0.1426  0.2818 -0.0357
 2117W        W17926   2.274  13.058   1.111 -0.0018  0.2364  0.0870
 2118W        W17927  15.754   3.697   3.964  0.1770 -0.1222 -0.0639
 2119W        W17928   2.416   4.698   0.877 -0.3195  0.0634 -0.3753
 2120W        W17929  11.944   4.537   5.067  0.0283  0.0761 -0.2666
 2121W        W17930   9.355  14.016  13.026 -0.1511 -0.2771  0.0363
 2122W        W17931   2.367  12.585   2.374 -0.0507 -0.1830 -0.0248
 2123W        W17932  17.023   3.791  14.684  0.2004  0.2711 -0.2064
 2124W        W17933   3.172   5.594  13.523  0.1553  0.0201  0.0407
 2125W        W17934   7.435   8.261  15.028  0.0784  0.1442  0.1135
 2126W        W17935   1.906   1.238  12.501 -0.2857 -0.1229  0.0391
 2127W        W17936   0.476  17.784   2.736 -0.1645  0.1756 -0.3115
 2128W        W17937  11.735  18.650   4.253 -0.0132  0.1954 -0.2528
 2129W        W17938  10.629   5.255   0.905  0.1421 -0.1747 -0.0592
 2130W        W17939   4.223   6.425   4.409  0.0340  0.3038  0.1028
 2131W        W17940   9.771   7.648   3.445  0.0449 -0.0618 -0.2444
 2132W        W17941   7.669   4.005  12.279  0.0366 -0.0162  0.1074
 2133W        W17942   0.300   9.947  10.808 -0.0738  0.0162  0.1380
 2134W        W17943   3.417  15.265   3.548 -0.1128 -0.2454 -0.1273
 2135W        W17944   3.490   8.215  10.300  0.1870 -0.2705  0.5259
 2136W        W17945   0.004  15.501  12.079  0.0913  0.4006 -0.1464
 2137W        W17946  16.912   9.521   1.836  0.1594 -0.3629  0.2222
 2138W        W17947   8.908   6.077  13.648  0.0041  0.1256 -0.1110
 2139W        W17948   1.919  12.356  13.740 -0.0457  0.0708 -0.1083
 2140W        W17949  13.619   5.672   5.450  0.0091 -0.0380 -0.2013
 2141W        W17950   1.416   6.522  12.773 -0.3529  0.0098 -0.0018
 2142W        W17951   2.301  14.620   2.200 -0.1369  0.1139 -0.0164
 2143W        W17952   4.888  13.092   2.222 -0.1810 -0.0317 -0.2347
 2144W        W17953   2.490  18.561  10.892  0.0641  0.0311 -0.0394
 2145W        W17954  14.815  17.329   1.078  0.2251  0.1620  0.1696
 2146W        W17955  11.320   0.743   0.739 -0.0304  0.0799  0.0216
 2147W        W17956   5.839   0.387  15.477 -0.1783 -0.3267  0.3102
 2148W        W17957  11.081   4.386   5.224  0.0956 -0.2183 -0.0984
 2149W        W17958   9.523   6.961  15.469 -0.2152  0.1965 -0.4070
 2150W        W17959   6.528   4.757  10.773  0.0232 -0.0482 -0.2050
 2151W        W17960  13.271  13.548   4.134  0.0600 -0.2472  0.0659
 2152W        W17961   3.138  17.497   3.048  0.2067 -0.0728  0.0687
 2153W        W17962   4.598  17.676  12.140 -0.4328 -0.1299  0.0625
 2154W        W17963  16.075   0.353   3.065  0.2001  0.0484 -0.1552
 2155W        W17964   9.556  11.209  12.316  0.0486 -0.0768  0.0525
 2156W        W17965   0.384   1.052  13.197  0.0495 -0.0020 -0.1530
 2157W        W17966   7.821   0.532   2.941  0.1601  0.0738 -0.0529
 2158W        W17967   3.517   7.727   4.413  0.0701 -0.1446  0.1505
 2159W        W17968  14.674  13.410  12.790 -0.0945  0.1738  0.1985
 2160W        W17969   8.573   7.877  12.169 -0.2881 -0.1124 -0.1274
 2161W        W17970  14.519   8.069  10.930 -0.0637 -0.2396  0.2198
 2162W        W17971   3.972   8.983  11.129 -0.0997 -0.2043  0.0997
 2163W        W17972   4.727  10.669  13.650 -0.0612  0.0090 -0.1741
 2164W        W17973  14.575   6.948  12.848  0.1641 -0.1249 -0.2430
 2165W        W17974  14.370  17.016   1.992 -0.2442  0.1843  0.0494
 2166W        W17975   9.489   0.158   3.812 -0.1443 -0.0513  0.0400
 2167W        W17976   3.757   4.184  12.054  0.1107 -0.1402  0.1496
 2168W        W17977   0.832  17.668   0.267  0.0414  0.0408 -0.0463
 2169W        W17978  16.092   3.259  15.065  0.0731 -0.1867  0.5905
 2170W        W17979  11.625   5.608   0.770  0.1479 -0.2587 -0.0149
 2171W        W17980   5.855   2.716   1.783 -0.2332  0.1730  0.2135
 2172W        W17981   5.190   7.846   4.409 -0.2373 -0.1216  0.0628
 2173W        W17982   8.009   5.129  12.801  0.1256  0.0320  0.0532
 2174W        W17983   7.780   0.440  11.523  0.2429  0.1057 -0.0680
 2175W        W17984  16.041  10.354   0.042  0.1157 -0.1334  0.1667
 2176W        W17985  13.508  10.471   3.844 -0.1185  0.1321  0.1230
 2177W        W17986  12.243  15.351   3.669  0.0714  0.1526  0.1646
 2178W        W17987  15.821   5.628   2.367  0.2006  0.1691  0.1127
 2179W        W17988  11.704   6.675  12.847 -0.0922  0.0318 -0.1517
 2180W        W17989  11.658   6.470   4.570  0.1417 -0.1372 -0.1560
 2181W        W17990  13.207   1.818  14.816 -0.4967  0.0540  0.3212
 2182W        W17991   1.109   1.166   1.892 -0.3686 -0.0071 -0.0724
 2183W        W17992   9.073  11.066   5.572  0.3178 -0.1021 -0.1641
 2184W        W17993   4.650   7.546   1.006 -0.1804 -0.0330  0.1805
 2185W        W17994  12.662   6.806  14.330  0.0922 -0.1506  0.0194
 2186W        W17995   2.345  16.382  13.811 -0.1058 -0.1021 -0.4629
 2187W        W17996   9.604   4.663  14.908 -0.0021 -0.0366 -0.1962
 2188W        W17997  11.231  13.173   2.779 -0.0547  0.1575  0.0197
 2189W        W17998  17.097  15.567   3.520  0.0435  0.0140  0.0790
 2190W        W17999  12.367  18.464  14.998  0.0603  0.0272  0.2370
 2191W        W18000   3.033   5.787   0.851  0.2307  0.4053  0.0259
 2192W        W18001   7.129  12.016   4.924  0.0976  0.0252 -0.4560
 2193W        W18002  13.450   8.909   5.734 -0.0861  0.2945  0.1984
 2194W        W18003   3.436  10.758  15.033  0.0749 -0.1001 -0.2858
 2195W        W18004  12.852  15.965  14.258  0.0362 -0.3619  0.2341
 2196W        W18005   1.288   8.677   4.624  0.2364 -0.3636 -0.1271
 2197W        W18006   3.359   8.526  11.178 -0.2047 -0.1601  0.0238
 2198W        W18007  16.896   9.207  12.504  0.3078  0.4473  0.1411
 2199W        W18008  18.042   3.179  12.754 -0.0980 -0.0414 -0.1420
 2200W        W18009   9.733   2.214   2.284  0.5331 -0.0605  0.1455
 2201W        W18010  13.655   9.450  12.873  0.1972 -0.2504 -0.0646
 2202W        W18011   7.811   9.707   1.015  0.0458  0.0274 -0.0021
 2203W        W18012  10.846   5.082   1.426 -0.1329 -0.0854 -0.0012
 2204W        W18013   0.118   3.504   1.117  0.1871 -0.3055 -0.0543
 2205W        W18014  18.638  16.213   1.753  0.1525 -0.1926 -0.1816
 2206W        W18015  13.745  11.398  13.995 -0.1843  0.1277 -0.2137
 2207W        W18016  17.882   8.354  14.337 -0.1313 -0.3723  0.0523
 2208W        W18017  16.649  14.752   2.589 -0.0681  0.1730 -0.2500
 2209W        W18018  12.736  18.498   2.220  0.3812 -0.1133 -0.0076
 2210W        W18019   2.474  15.056  10.260 -0.0123 -0.1482 -0.0922
 2211W        W18020  12.724   1.773   4.388  0.3422  0.0783 -0.0346
 2212W        W18021  10.217  10.907  11.084 -0.1676 -0.1698 -0.1165
 2213W        W18022  10.677  16.676  12.163 -0.0014  0.1398 -0.0844
 2214W        W18023  11.457   4.953  11.310 -0.2591  0.0282 -0.3509
 2215W        W18024  14.454  15.458   5.986 -0.1245  0.1890  0.2125
 2216W        W18025   8.624   1.887   0.400  0.1084  0.0448 -0.0192
 2217W        W18026  14.515   0.909  14.799 -0.0914 -0.0463  0.0184
 2218W        W18027  10.092   4.599   1.030  0.2080  0.0170 -0.0361
 2219W        W18028  11.505   1.365  13.434  0.1229  0.3547 -0.4521
 2220W        W18029   0.386  12.277  12.234  0.2041 -0.3314  0.0530
 2221W        W18030  13.901   7.087   3.624  0.1688 -0.1078  0.1445
 2222W        W18031  15.014  10.323   5.051  0.0416 -0.0521 -0.0651
 2223W        W18032   6.839   6.880  15.147 -0.2272 -0.0539 -0.0795
 2224W        W18033  12.296   8.591  13.936  0.0432 -0.1414  0.0698
 2225W        W18034   9.534   7.099   1.854  0.1312 -0.2750  0.2352
 2226W        W18035  15.769   1.122  12.566 -0.1262 -0.2553 -0.0712
 2227W        W18036   4.364   2.758   4.100  0.4083  0.0121  0.0682
 2228W        W18037   4.332  14.856  10.087 -0.4019 -0.1805 -0.1435
 2229W        W18038   9.592  15.070   1.586  0.5223 -0.1714  0.2228
 2230W        W18039  14.857  14.878  13.534 -0.4378 -0.0546 -0.2436
 2231W        W18040  17.259   6.001  15.251  0.0185 -0.0844 -0.0274
 2232W        W18041  17.436   1.654  13.644 -0.1982  0.1942  0.2007
 2233W        W18042  13.189   1.386   0.543  0.1902 -0.1295 -0.2752
 2234W        W18043   3.815   4.594   4.419 -0.1990  0.0168 -0.1663
 2235W        W18044  18.553   2.491  10.980  0.0520 -0.0725 -0.1821
 2236W        W18045   4.046   5.076   0.700  0.1408 -0.0232 -0.4848
 2237W        W18046   8.662  18.163   0.033 -0.0477 -0.1250 -0.2911
 2238W        W18047  13.825   2.899  10.648  0.1955  0.2243  0.0965
 2239W        W18048  14.928  18.156  15.621  0.1986  0.0713 -0.1545
 2240W        W18049  15.469   5.550   0.064 -0.1310  0.0315 -0.0307
 2241W        W18050   5.881  11.964  13.810 -0.0496  0.2283 -0.3391
 2242W        W18051   5.024  11.041   3.448 -0.1080 -0.0519 -0.2851
 2243W        W18052  11.835   3.638   2.064  0.0338 -0.0665 -0.2472
 2244W        W18053  14.790   8.122  15.286 -0.1737 -0.2123 -0.3629
 2245W        W18054  13.331  11.158   5.039 -0.1344  0.1133 -0.1481
 2246W        W18055  16.450  11.876  13.039  0.1958 -0.2046 -0.0826
 2247W        W18056  11.489   4.452  11.391  0.0758 -0.3858 -0.1761
 2248W        W18057   3.141   8.592   3.239  0.0909  0.1103  0.0016
 2249W        W18058   6.606   2.093  13.789  0.0616 -0.1029 -0.1236
 2250W        W18059   6.039  15.416   2.398  0.0016  0.1887 -0.0539
 2251W        W18060   4.351   6.875  13.422 -0.0901 -0.0175  0.2374
 2252W        W18061   6.387   5.815   3.039 -0.0304 -0.0035  0.1122
 2253W        W18062  17.522   1.302   3.433 -0.2348  0.1901 -0.1458
 2254W        W18063  16.633   9.088   3.260 -0.1063  0.0838  0.0620
 2255W        W18064  11.620   1.326  11.693  0.1784 -0.0456  0.0303
 2256W        W18065  15.509  10.645  11.921 -0.3595  0.0325 -0.0553
 2257W        W18066   8.742   6.988  13.477  0.0159 -0.0630 -0.1930
 2258W        W18067   6.721  12.223   1.153  0.3187 -0.5934  0.3515
 2259W        W18068   7.020   0.687   3.518  0.1311  0.0665  0.0986
 2260W        W18069  10.126   3.799   3.818  0.1516  0.0256  0.2557
 2261W        W18070   2.037  11.578  14.725  0.0744  0.1137  0.2094
 2262W        W18071   7.662   0.568   4.743  0.0017  0.0259  0.3079
 2263W        W18072   4.522   8.720   5.513  0.1968 -0.0172  0.1440
 2264W        W18073   2.012  17.887  13.929  0.0347 -0.0992 -0.1499
 2265W        W18074  16.816   2.414   1.469 -0.3010 -0.0476  0.2632
 2266W        W18075  10.793  16.031   4.602 -0.2684 -0.2377  0.3732
 2267W        W18076   7.615   9.759   2.072 -0.0909 -0.0162  0.1400
 2268W        W18077   7.260   6.605   3.575  0.0236  0.0413 -0.1087
 2269W        W18078   4.490  11.241   2.200 -0.0767  0.1859  0.1315
 2270W        W18079  11.913   5.919   1.714 -0.0378  0.0465 -0.1448
 2271W        W18080  18.644   6.914  11.008  0.3620  0.2025  0.3465
 2272W        W18081  12.991  11.151   0.203 -0.1459 -0.1150  0.0321
 2273W        W18082  10.050   4.277  13.519  0.0776  0.0755  0.2683
 2274W        W18083   0.724   1.912   1.933 -0.1759  0.4512  0.3290
 2275W        W18084   0.045   5.517  11.444  0.0310  0.2309 -0.1262
 2276W        W18085   7.685  14.556  13.720 -0.1609 -0.0128 -0.0022
 2277W        W18086  14.755   0.939   1.161 -0.3487  0.0023 -0.0073
 2278W        W18087  17.326   1.150   2.064 -0.0091 -0.0510  0.1976
 2279W        W18088   6.922  17.878   0.303  0.0568  0.0372  0.2512
 2280W        W18089  14.034   2.262  12.542  0.1241 -0.1474  0.2822
 2281W        W18090   0.927  10.830   0.402 -0.0063  0.1431 -0.0430
 2282W        W18091   9.470   5.876  15.454 -0.2772 -0.1159  0.1165
 2283W        W18092  12.412  10.760   2.079 -0.0054 -0.2490 -0.0813
 2284W        W18093  14.719  15.919  13.398  0.0401 -0.1301 -0.0679
 2285W        W18094  16.115   7.356   3.676 -0.1104 -0.1941  0.1129
 2286W        W18095   9.157  13.596  12.107  0.3318  0.1105  0.0446
 2287W        W18096  15.443   0.265   0.636  0.0812  0.0683  0.3298
 2288W        W18097  16.915   9.507   2.746 -0.0428  0.0797 -0.0593
 2289W        W18098   1.245   0.516  15.209 -0.0893  0.1045  0.0170
 2290W        W18099  12.502   2.602  12.760 -0.0466  0.0465 -0.0083
 2291W        W18100   7.035  18.160  13.170  0.0911 -0.1461  0.0598
 2292W        W18101   5.427  14.006  14.400  0.0389  0.0115  0.2309
 2293W        W18102  13.029  12.093   1.885  0.1463 -0.1561  0.1167
 2294W        W18103   5.332   5.389   3.896  0.1413 -0.1642 -0.1523
 2295W        W18104  17.933   4.853  13.724 -0.0886  0.0747 -0.1193
 2296W        W18105  12.737   4.197   3.837  0.0956  0.0504 -0.0592
 2297W        W18106   9.564  14.502  12.286  0.1343 -0.3034  0.0918
 2298W        W18107   6.471  12.187  11.002 -0.0717 -0.3486  0.2593
 2299W        W18108   3.029  12.299   0.123  0.1301  0.0380  0.1888
 2300W        W18109  10.796   5.269  10.606  0.3832 -0.1609  0.0521
 2301W        W18110   7.270  18.497  11.828  0.1289 -0.0689 -0.0294
 2302W        W18111   7.891  13.450   5.276 -0.2116  0.3044  0.1256
 2303W        W18112   8.269   9.858  14.496  0.0027 -0.3813  0.2390
 2304W        W18113  17.646  16.647   2.418  0.0744  0.1944  0.1473
 2305W        W18114  13.126   5.561   1.953 -0.3019  0.1071  0.4896
 2306W        W18115  12.145   8.406  15.436 -0.3548  0.2316  0.0351
 2307W        W18116  17.606  15.966  12.522 -0.2211  0.2397  0.0595
 2308W        W18117   0.796   8.039  14.727 -0.2287  0.2551  0.2924
 2309W        W18118   7.794  13.824   0.190  0.2329  0.0875  0.2224
 2310W        W18119  17.804   6.778   0.796 -0.1257 -0.1557 -0.1158
 2311W        W18120   3.285   3.663   2.719 -0.0299 -0.0090 -0.0678
 2312W        W18121   1.349   3.231   0.221  0.1078 -0.3101  0.0821
 2313W        W18122   0.165  17.901   3.535 -0.2192  0.0286  0.3278
 2314W        W18123   5.973  12.573  15.436 -0.1261 -0.0069 -0.2617
 2315W        W18124   9.395   7.271  15.036 -0.0652  0.1468  0.0044
 2316W        W18125   0.954   3.350   0.941  0.2918  0.4318  0.2877
 2317W        W18126  13.203   4.980   0.194  0.1086  0.1309  0.0492
 2318W        W18127   5.528  11.711  15.587 -0.2792 -0.0865  0.1483
 2319W        W18128  15.226  13.728   3.774 -0.0186 -0.1382  0.2587
 2320W        W18129  12.929  16.256   1.639 -0.0079 -0.1187  0.1647
 2321W        W18130   8.991   9.055   1.102  0.1964 -0.1081  0.3976
 2322W        W18131   7.747   1.823  13.336  0.1320  0.2870 -0.3465
 2323W        W18132  15.429  17.162   4.967  0.0168 -0.0792 -0.2958
 2324W        W18133  10.612   0.851  12.687 -0.1662 -0.0170 -0.0356
 2325W        W18134  16.970   5.992  14.360  0.1155 -0.0137 -0.1204
 2326W        W18135  16.755   6.647   3.596  0.0333 -0.1814  0.0604
 2327W        W18136  15.492  13.009   9.884 -0.0082 -0.2121  0.4071
 2328W        W18137   9.098  15.763  12.581  0.3915 -0.1466 -0.0255
 2329W        W18138  18.521   4.144  10.809  0.0951 -0.2215  0.0072
 2330W        W18139   2.251   2.369  11.670  0.1059 -0.1787 -0.1484
 2331W        W18140  12.894   0.293   1.372 -0.0851 -0.2047 -0.0917
 2332W        W18141   5.116   3.461   2.245  0.3527 -0.2465  0.0183
 2333W        W18142  11.317   6.051   4.533  0.3136  0.3604 -0.1004
 2334W        W18143   1.388  10.259   1.904 -0.2125  0.0840 -0.0484
 2335W        W18144   7.006   1.500  15.022 -0.0887  0.1058 -0.2032
 2336W        W18145  18.548   6.105  13.502  0.1676 -0.0160 -0.0463
 2337W        W18146   8.015   4.769  10.713  0.1810 -0.1597 -0.0284
 2338W        W18147   9.894  16.096  13.555  0.3142 -0.0031 -0.0437
 2339W        W18148  12.277  14.615   0.316 -0.3080  0.2573 -0.0257
 2340W        W18149   7.714  11.155  12.947  0.0419  0.4396 -0.1078
 2341W        W18150   9.468   6.104  12.922 -0.0826 -0.0709 -0.0405
 2342W        W18151  18.479  16.855  11.739 -0.3453 -0.0746  0.0888
 2343W        W18152   5.096   5.636  15.053  0.1344  0.0586  0.0980
 2344W        W18153   9.332  18.502   2.251 -0.0455  0.1924 -0.0251
 2345W        W18154  11.347  13.108   2.003  0.0311  0.0654 -0.0822
 2346W        W18155   1.119   2.312   0.045  0.1136  0.1368  0.0786
 2347W        W18156   8.986  16.431  15.621  0.2501  0.1485 -0.1800
 2348W        W18157  17.998   4.307  10.926 -0.0662  0.0085 -0.0204
 2349W        W18158   4.472   6.726   1.716 -0.1737 -0.0151 -0.0091
 2350W        W18159   6.440  13.732   4.760 -0.0772  0.2897  0.2172
 2351W        W18160  11.840  18.516   0.005  0.1950 -0.0463  0.4286
 2352W        W18161  12.545   2.140   9.900 -0.2486  0.1358  0.0094
 2353W        W18162  10.615  14.284   5.244  0.1749 -0.0536  0.4712
 2354W        W18163   7.990   3.637  12.448 -0.0925 -0.2293 -0.0805
 2355W        W18164   4.575  17.785   5.005  0.1327 -0.3171  0.1361
 2356W        W18165  16.572  10.338   2.200 -0.1545 -0.0521 -0.1695
 2357W        W18166   7.588   1.369   5.847 -0.0620 -0.3494 -0.2090
 2358W        W18167   9.973   1.746  14.875 -0.1023  0.0761 -0.1230
 2359W        W18168   4.928  11.186   1.916  0.2959  0.2491 -0.2420
 2360W        W18169   0.511  18.512   0.317  0.2224 -0.2294 -0.2277
 2361W        W18170   4.606   3.306  13.850  0.0801 -0.4331 -0.2596
 2362W        W18171   2.854   4.509  11.969  0.1381 -0.1647 -0.0707
 2363W        W18172  14.745   9.370  13.138 -0.2163  0.0652 -0.2165
 2364W        W18173  13.594  15.460  10.823 -0.1119 -0.0033  0.0690
 2365W        W18174  15.643  12.495   1.871  0.0404  0.0079 -0.0113
 2366W        W18175  16.959  16.585   3.296  0.0440 -0.0245 -0.1358
 2367W        W18176  10.480   1.431   4.252  0.0658  0.1923  0.1472
 2368W        W18177  16.644   3.973   0.600 -0.1309  0.1351 -0.2789
 2369W        W18178  11.978   8.139  11.018 -0.2189 -0.2590 -0.0740
 2370W        W18179   4.475  10.046   3.046  0.0200 -0.1033 -0.0465
 2371W        W18180  17.903  16.352  11.218  0.3407 -0.3013 -0.0436
 2372W        W18181   0.287  13.647  15.478  0.0039  0.0861 -0.0380
 2373W        W18182   0.853  13.394  10.837  0.2416 -0.1621  0.0938
 2374W        W18183   9.720   3.389  11.173 -0.0603  0.0353 -0.1263
 2375W        W18184   9.592   8.009   9.750  0.1252  0.0262 -0.3244
 2376W        W18185  14.040   0.802  12.540  0.1763 -0.6607 -0.1120
 2377W        W18186  17.211   7.209  11.696  0.0012 -0.2074 -0.2300
 2378W        W18187  18.049   3.125  14.741  0.0700  0.3262  0.3791
 2379W        W18188   6.867   7.474  14.754  0.1155  0.1553  0.2912
 2380W        W18189  14.961   2.180  13.887 -0.2101 -0.1396  0.2001
 2381W        W18190  11.796   5.383   4.422 -0.1707 -0.3933  0.0417
 2382W        W18191  11.288  17.627  13.287 -0.1234 -0.0334  0.2163
 2383W        W18192   4.044   3.044  14.285  0.0068  0.1110 -0.1347
 2384W        W18193  16.799   1.339  12.513  0.0539  0.2826 -0.4068
 2385W        W18194   3.305  12.149  10.865 -0.1313  0.3020  0.0796
 2386W        W18195   4.710  12.765   9.707  0.0064  0.0982 -0.1962
 2387W        W18196   4.910  13.079  12.730  0.0489  0.0886  0.1648
 2388W        W18197   9.868   1.633   2.421  0.1497 -0.3030 -0.0903
 2389W        W18198   5.240  16.455   3.108 -0.1544  0.0134  0.0981
 2390W        W18199  15.132  10.351  13.182  0.0792 -0.1844 -0.0304
 2391W        W18200   7.584   0.364  11.023  0.0266 -0.0664  0.1677
 2392W        W18201  16.846  11.081   3.075 -0.0857 -0.4015 -0.2164
 2393W        W18202   5.862   3.863  14.363 -0.1782 -0.1076  0.1479
 2394W        W18203  12.759   2.178   2.837  0.2217  0.5100  0.1204
 2395W        W18204   4.341  14.314  13.000  0.1420  0.2926 -0.2434
 2396W        W18205   7.454  12.479  13.576 -0.0998 -0.0955 -0.3749
 2397W        W18206   7.287  10.343   4.712 -0.0991  0.1063  0.0443
 2398W        W18207   5.404  18.097   3.608  0.1081 -0.1384  0.0695
 2399W        W18208   4.771   6.913   0.854  0.1355 -0.2345  0.1829
 2400W        W18209  13.983  18.533  11.731  0.0245 -0.1750 -0.0175
 2401W        W18210   9.282   1.839  12.080 -0.0693 -0.1954  0.1661
 2402W        W18211   4.965  16.022  10.963  0.2056 -0.0211  0.1365
 2403W        W18212  16.113  13.091   4.681 -0.1623  0.0368 -0.0132
 2404W        W18213   4.436   7.170   2.414 -0.1938  0.0007  0.1478
 2405W        W18214  17.705   9.111   4.050 -0.1558 -0.0409  0.0606
 2406W        W18215   5.659  11.681  12.110  0.1136  0.0373 -0.2558
 2407W        W18216   8.723  15.683  11.175 -0.0590  0.1472 -0.2356
 2408W        W18217  12.891   0.729   2.718  0.1945  0.0198 -0.0635
 2409W        W18218   4.360   7.695   2.341 -0.1537 -0.0110  0.0317
 2410W        W18219  17.268  10.129  13.678 -0.1589  0.1889 -0.0051
 2411W        W18220  14.460   9.676   5.332 -0.4291 -0.2643 -0.3890
 2412W        W18221  12.926  15.878   1.071 -0.0621 -0.2001  0.0446
 2413W        W18222   0.490  15.242   5.846 -0.0528  0.1753 -0.0204
 2414W        W18223   7.627  15.508   0.562 -0.0147 -0.0426  0.0153
 2415W        W18224  13.539   6.268  12.059  0.0629 -0.0424  0.0091
 2416W        W18225  13.290   3.722   1.248 -0.3285  0.1721  0.2917
 2417W        W18226  11.783  10.563   2.698 -0.2904 -0.1861 -0.2266
 2418W        W18227  17.882  10.066  12.998 -0.1874 -0.4149  0.0245
 2419W        W18228  18.351  11.655   3.791 -0.1100 -0.0262  0.1892
 2420W        W18229   7.774   5.454  12.324 -0.0508  0.0491  0.1074
 2421W        W18230  11.628   8.166  12.017 -0.1834 -0.0600 -0.3486
 2422W        W18231  18.243   0.019  13.546  0.3135  0.1100  0.2600
 2423W        W18232   5.570   1.917  15.565 -0.1030  0.0348  0.2717
 2424W        W18233  14.552   5.554  10.585  0.1445  0.4351  0.1466
 2425W        W18234   0.637   2.274  12.417  0.0551  0.1887 -0.1031
 2426W        W18235   3.875   6.923  13.198  0.2451 -0.0684 -0.1982
 2427W        W18236   0.537   8.658  12.633  0.0113  0.0024 -0.1641
 2428W        W18237   9.913   2.801   1.586 -0.0803  0.1129  0.0992
 2429W        W18238  13.288   3.132  15.125  0.0119  0.1651  0.3436
 2430W        W18239  17.617  14.579   2.521  0.0073  0.1500 -0.0857
 2431W        W18240  16.204   0.319   5.774  0.1508 -0.4125 -0.3338
 2432W        W18241  18.339  18.063   2.402  0.3049 -0.1960 -0.0734
 2433W        W18242  14.615  13.847   4.785  0.0014  0.0703 -0.3289
 2434W        W18243   5.758   7.312  12.332 -0.0550 -0.1128  0.1937
 2435W        W18244   1.167  16.607   2.774  0.2605 -0.2559  0.0503
 2436W        W18245  18.392   1.107  14.913  0.0682  0.0591  0.0127
 2437W        W18246  18.582  16.549  14.721  0.1064  0.2857 -0.1306
 2438W        W18247  11.301  16.418   4.260  0.0830 -0.3852 -0.2742
 2439W        W18248   7.064   2.593  11.208 -0.0463 -0.0476 -0.1903
 2440W        W18249  14.534  17.131   5.311  0.0047  0.2054 -0.1895
 2441W        W18250  12.758   8.980   0.416  0.0555 -0.2337 -0.2222
 2442W        W18251   0.463   3.490  14.024 -0.0348 -0.0291  0.1863
 2443W        W18252   4.182   5.703  11.050 -0.2009 -0.0317 -0.2473
 2444W        W18253   9.621  13.732  10.783  0.1228 -0.1236  0.0349
 2445W        W18254  15.202  13.387   0.968 -0.3687 -0.0481  0.0448
 2446W        W18255   0.851  14.569  14.821 -0.3142 -0.0229  0.2960
 2447W        W18256   8.267  16.207  14.314  0.3313 -0.1052 -0.1756
 2448W        W18257   0.373   5.755  14.377 -0.0193  0.1713 -0.3205
 2449W        W18258   9.459  13.586   3.760  0.1059  0.0279 -0.1011
 2450W        W18259   9.806   7.280   1.457 -0.3630  0.0412  0.2215
 2451W        W18260  18.132   0.195  14.864 -0.0740  0.0724  0.2713
 2452W        W18261   9.324   7.653   4.093 -0.1450  0.2050  0.3195
 2453W        W18262  13.049  11.482   1.797  0.0103  0.0059 -0.0800
 2454W        W18263  12.398  15.119  13.802  0.1711  0.0048 -0.3178
 2455W        W18264   2.658  16.535  14.589 -0.1698  0.1777 -0.2406
 2456W        W18265   3.076   3.620   5.178  0.3178 -0.0279  0.0163
 2457W        W18266   4.180  10.398   0.480  0.1615  0.0268  0.1736
 2458W        W18267  10.749   2.363  11.951 -0.2676  0.0550 -0.0615
 2459W        W18268  13.944   6.844  14.211 -0.3859  0.2289  0.1321
 2460W        W18269   9.904  10.684   4.642  0.3270  0.1296 -0.2411
 2461W        W18270  11.235   0.721   5.480  0.3385 -0.1346  0.0049
 2462W        W18271   7.425   7.001   5.921 -0.0825 -0.1890  0.2678
 2463W        W18272  14.778  16.729  11.602  0.0017  0.2185 -0.0448
 2464W        W18273   0.086   9.116  12.668 -0.0575 -0.1060  0.2564
 2465W        W18274  13.219  12.421   5.462 -0.0477 -0.0085 -0.4473
 2466W        W18275   4.549   2.971  14.275  0.2169 -0.2520  0.1882
 2467W        W18276  12.957   0.852   0.370  0.1328 -0.1896 -0.0035
 2468W        W18277   4.690  17.909   1.940 -0.5338 -0.0087 -0.1382
 2469W        W18278   2.241  17.985  10.940 -0.1268 -0.0260  0.0534
 2470W        W18279  11.354  13.189   5.026  0.4046  0.2378 -0.0523
 2471W        W18280   3.282   7.274  11.550  0.3313  0.0093  0.0073
 2472W        W18281  13.292   5.058  11.320  0.2128  0.0394 -0.2782
 2473W        W18282   9.713  12.338   3.081  0.0625 -0.0882  0.0463
 2474W        W18283   3.336  15.119   0.937 -0.2170 -0.1608 -0.1621
 2475W        W18284   0.106  10.733   3.253 -0.3832 -0.0861  0.0396
 2476W        W18285  12.920  15.398   1.578 -0.0005  0.0700  0.1918
 2477W        W18286   5.650   4.798  14.300 -0.2513  0.1131  0.1385
 2478W        W18287  16.936   8.610   2.472  0.0826 -0.2183 -0.2405
 2479W        W18288   0.738   6.029  14.880  0.1443  0.0188  0.0890
 2480W        W18289  10.950   8.917  11.543 -0.1514  0.1887  0.0210
 2481W        W18290   4.094  10.083   2.716 -0.1766  0.2612  0.0544
 2482W        W18291  10.039   0.193   2.549 -0.0447 -0.2296  0.1313
 2483W        W18292   8.583  18.187  11.141  0.2595  0.1387  0.0432
 2484W        W18293  14.909  17.457   1.671  0.0568  0.3492 -0.1128
 2485W        W18294   6.793   2.303  11.607  0.1646  0.0372 -0.1783
 2486W        W18295   8.989   7.289   4.138 -0.0752 -0.0111  0.2072
 2487W        W18296  15.108  17.361   2.652 -0.1589 -0.1525  0.1926
 2488W        W18297  12.864  11.050   5.071  0.0632 -0.0135 -0.2959
 2489W        W18298   0.825  14.797   9.935  0.0259 -0.0648  0.1490
 2490W        W18299   5.348  17.267  12.807 -0.0609  0.0083  0.0185
 2491W        W18300  13.828   3.799   0.682  0.0434 -0.0145  0.2531
 2492W        W18301  10.034  17.870  12.706  0.0406  0.1922  0.2019
 2493W        W18302  10.728   8.605   0.726 -0.1725 -0.1910 -0.0045
 2494W        W18303  13.168   0.754  13.437 -0.2046  0.1855  0.1007
 2495W        W18304  10.634  10.300   1.533  0.3377  0.2079 -0.1930
 2496W        W18305   0.415  17.161  14.147  0.0475  0.2148  0.1244
 2497W        W18306   9.820  14.077   0.180  0.3136  0.1161  0.3359
 2498W        W18307   9.235  10.767   3.031  0.2885 -0.0481  0.2643
 2499W        W18308  14.216   2.802  10.914  0.1997  0.0967 -0.2526
 2500W        W18309  18.117   7.575  12.210  0.0533 -0.0755 -0.2571
 2501W        W18310   7.477  16.627  14.518 -0.1434  0.0940 -0.1592
 2502W        W18311  10.981   0.428   3.581 -0.0658 -0.2160 -0.4465
 2503W        W18312  11.019  11.535  15.437  0.2133  0.2038 -0.0824
 2504W        W18313   7.578  11.082  15.195  0.1726  0.2999 -0.0093
 2505W        W18314   1.488   2.692   2.528 -0.1784 -0.1246  0.1686
 2506W        W18315   9.328  16.162   2.136 -0.1626 -0.1224  0.2872
 2507W        W18316   2.528  13.824   2.698  0.1227 -0.1529 -0.3291
 2508W        W18317   9.650   1.661   4.331  0.1465 -0.4266 -0.0955
 2509W        W18318  16.609   1.757  13.499 -0.2319 -0.1677 -0.0268
 2510W        W18319  18.126  10.232  14.705 -0.2006  0.1432  0.1795
 2511W        W18320   8.984  12.360  11.577 -0.3539  0.2775 -0.2761
 2512W        W18321  13.287  17.471  12.476 -0.1753  0.1052 -0.1632
 2513W        W18322   5.188  15.348  12.781  0.2465  0.0133 -0.0971
 2514W        W18323   1.258   3.747  14.522 -0.0396 -0.1858  0.0127
 2515W        W18324   8.080   1.263   2.586 -0.2970 -0.2871 -0.0109
 2516W        W18325  18.302  12.358   4.610 -0.1548 -0.1104  0.2028
 2517W        W18326   6.976  18.674   4.727 -0.0809 -0.0806  0.0016
 2518W        W18327  13.254   6.892   2.375 -0.1873 -0.0683  0.1131
 2519W        W18328   2.584   6.988   0.675  0.1997  0.2472 -0.0982
 2520W        W18329   2.017   9.098   0.167 -0.0824 -0.5223 -0.0474
 2521W        W18330  11.996   0.665   2.729  0.1238  0.0364 -0.1333
 2522W        W18331   7.296   8.770  12.343 -0.2499 -0.2464  0.3130
 2523W        W18332   8.235   1.126  12.907 -0.2480  0.0862 -0.1834
 2524W        W18333   5.682  18.416  12.186 -0.2121 -0.2294  0.1601
 2525W        W18334  10.876  17.753  11.711  0.0404  0.1043  0.1732
 2526W        W18335  15.968   1.990  14.800 -0.2202 -0.0200  0.0847
 2527W        W18336   7.661   8.483  12.660 -0.2015  0.1341 -0.0480
 2528W        W18337  16.492   3.090   4.603  0.0634 -0.1504 -0.0623
 2529W        W18338  12.582   3.657   2.586 -0.1872  0.2307 -0.0211
 2530W        W18339  13.614   3.773  12.453 -0.0538 -0.2058 -0.2147
 2531W        W18340   7.793  11.651   1.899  0.1074  0.1998 -0.1266
 2532W        W18341   8.367  17.183  15.595  0.0185 -0.4584  0.1504
 2533W        W18342  13.027  16.275  10.758  0.0052 -0.1133 -0.0824
 2534W        W18343   2.272  11.337   2.758 -0.2675  0.2550  0.1437
 2535W        W18344   7.415  10.001   3.237 -0.0984 -0.1529  0.0115
 2536W        W18345  17.767  15.048   9.655  0.0982  0.0862  0.3466
 2537W        W18346   0.882   9.990   4.585 -0.1565 -0.1821  0.0861
 2538W        W18347   1.946  12.721  14.732 -0.0073  0.0194  0.0819
 2539W        W18348  12.453  11.338  11.290  0.1683 -0.4051 -0.0505
 2540W        W18349  16.843   1.538  15.313 -0.3057 -0.1652 -0.0064
 2541W        W18350  10.942   0.505  13.986 -0.3187 -0.1823 -0.3899
 2542W        W18351  11.412   3.889   1.763 -0.1189  0.0403 -0.1027
 2543W        W18352  16.812   7.414  15.392  0.3457  0.1102  0.0251
 2544W        W18353   0.877  11.656   2.035  0.1258 -0.2558 -0.2671
 2545W        W18354   3.598  12.511  11.119  0.3070  0.4536 -0.2704
 2546W        W18355   3.968  10.602  11.830  0.2347  0.1389 -0.2502
 2547W        W18356  10.110  11.350  15.552  0.3488 -0.0515  0.0168
 2548W        W18357   2.741   8.273   3.512 -0.4822 -0.0949  0.1588
 2549W        W18358  17.291  10.904   5.272 -0.0091 -0.1917  0.1523
 2550W        W18359   9.928   0.372   3.545  0.0788 -0.1244  0.1206
 2551W        W18360  18.199  11.521   0.593 -0.0301 -0.0544 -0.1641
 2552W        W18361   0.315  13.743   0.429  0.0161  0.1537 -0.1627
 2553W        W18362   3.356   0.546   1.484  0.0046  0.0032 -0.1394
 2554W        W18363  16.610  12.754  15.587 -0.1284 -0.0031 -0.2108
 2555W        W18364  15.419   8.390  15.509  0.2282  0.2554 -0.0836
 2556W        W18365   5.900   0.562   0.711 -0.1504 -0.1314  0.0415
 2557W        W18366  14.592   8.723   1.203  0.1011  0.0656 -0.2003
 2558W        W18367   2.777  18.276  13.945 -0.2901  0.1489  0.1297
 2559W        W18368  12.942  13.616  12.105  0.2430  0.2505  0.1191
 2560W        W18369   1.214   3.832  13.617  0.0295 -0.0992 -0.1399
 2561W        W18370  16.061  11.379   3.800 -0.1661  0.1222  0.1709
 2562W        W18371   5.182   3.019  11.085 -0.0730  0.0559  0.0653
 2563W        W18372   7.969   2.694   4.371  0.1878 -0.3039 -0.1477
 2564W        W18373  17.109   3.838  13.108  0.1358 -0.0583 -0.1674
 2565W        W18374   2.195   8.460  12.201  0.0057  0.3054 -0.0571
 2566W        W18375  16.019   1.684   4.392 -0.0764 -0.1412  0.1470
 2567W        W18376   0.975  17.500   4.726  0.0437 -0.0506  0.0256
 2568W        W18377  14.726   8.346   0.098  0.1090 -0.1043 -0.0721
 2569W        W18378  14.648  14.606   5.358  0.2452 -0.0344 -0.0801
 2570W        W18379   7.210  11.223  12.137  0.0654  0.0128  0.1296
 2571W        W18380   3.026   1.442   2.838 -0.0271 -0.0260  0.1209
 2572W        W18381   6.571   2.504  11.165 -0.0289  0.1539  0.2102
 2573W        W18382   0.997   4.126   1.206  0.0789 -0.0817  0.1588
 2574W        W18383   7.619   2.495   5.185  0.2125  0.2549  0.0436
 2575W        W18384  11.434   1.311   5.549 -0.0133  0.2970 -0.1110
 2576W        W18385   4.875   0.609  11.741  0.3947 -0.1546 -0.0868
 2577W        W18386  13.634   3.473  12.069 -0.1823 -0.3215  0.1650
 2578W        W18387   7.980  13.634   4.045 -0.0866  0.1110 -0.1146
 2579W        W18388   0.989   3.232   2.915 -0.1882 -0.0094 -0.0536
 2580W        W18389  13.070   6.706  12.066 -0.0833  0.0760  0.2439
 2581W        W18390  16.956  10.221  14.444  0.1697  0.2576  0.1490
 2582W        W18391   6.348   7.207  10.600 -0.1111 -0.1253 -0.2457
 2583W        W18392   8.368  17.738  11.346  0.3439  0.0473 -0.1758
 2584W        W18393   4.008  16.436   1.639 -0.0322  0.0188 -0.1461
 2585W        W18394  14.183   4.985   3.685  0.0842  0.0141 -0.0127
 2586W        W18395  18.102   2.672  11.625 -0.0652 -0.6238  0.3025
 2587W        W18396  12.556  14.753  12.943  0.4614 -0.2273  0.1432
 2588W        W18397   9.892   0.541   2.096  0.2668 -0.1118  0.0483
 2589W        W18398   1.527  12.850   1.022 -0.1701  0.0435  0.2223
 2590W        W18399  15.358   4.039   4.999  0.2015  0.0699 -0.1711
 2591W        W18400  16.016   3.541  13.774 -0.2020  0.0347  0.0120
 2592W        W18401   0.826   9.272  15.555  0.1048  0.1080  0.1109
 2593W        W18402   5.850   2.068   4.908  0.1004  0.0777  0.4708
 2594W        W18403   0.039   7.339   0.477 -0.0052 -0.0605  0.1683
 2595W        W18404  10.417  12.880  12.846 -0.2606 -0.1384 -0.0078
 2596W        W18405   5.970   5.604  13.641  0.0137  0.1414 -0.1135
 2597W        W18406   2.305  13.073  14.607  0.3077  0.3371  0.3143
 2598W        W18407   4.953   8.133  10.655 -0.1512 -0.0024 -0.0145
 2599W        W18408  11.714   0.399   6.168  0.1460  0.2153 -0.2780
 2600W        W18409   7.842  14.965   1.763 -0.1148  0.1182  0.0549
 2601W        W18410  12.586   3.674   4.071 -0.2672 -0.0036 -0.3215
 2602W        W18411  16.458   9.345   5.632 -0.0427  0.0721  0.1932
 2603W        W18412   9.438  13.047   3.810  0.2060 -0.2119 -0.1491
 2604W        W18413  15.956  14.009  12.979  0.0383 -0.0187  0.0212
 2605W        W18414   2.221  18.585  11.725  0.3317  0.2074 -0.0273
 2606W        W18415  18.156  14.077   3.344  0.1167 -0.2207  0.0753
 2607W        W18416   3.986   2.254  10.979  0.0703  0.0775  0.2505
 2608W        W18417   9.012  16.091   2.499  0.1614  0.0239 -0.1939
 2609W        W18418  18.422   0.090  13.108  0.2455  0.1152 -0.2955
 2610W        W18419  17.702   1.394   4.360  0.2709  0.1872  0.0855
 2611W        W18420  18.182   7.432  11.713  0.1025  0.0744 -0.1446
 2612W        W18421  16.870   6.212   0.874 -0.0166  0.0311 -0.1069
 2613W        W18422   3.963  12.438   1.278  0.1453  0.0197 -0.2080
 2614W        W18423   9.122  15.248  14.362 -0.1118  0.3228 -0.0002
 2615W        W18424  15.117   0.166  11.165 -0.2076  0.0801 -0.1142
 2616W        W18425  16.511  13.476   4.402 -0.1679 -0.0901  0.2136
 2617W        W18426   8.089   9.993   2.486  0.1237  0.0902  0.2365
 2618W        W18427  15.203   3.764  15.007  0.0611 -0.1011  0.0775
 2619W        W18428  14.555   1.804   2.926  0.0809  0.3994  0.0647
 2620W        W18429  10.151   7.752   5.421  0.0364  0.1385  0.2373
 2621W        W18430   0.198   8.579  11.333 -0.2561 -0.0511 -0.0256
 2622W        W18431  11.389   6.815  11.301  0.1247 -0.0920  0.2590
 2623W        W18432   2.521  12.030   2.703 -0.0992 -0.4234  0.3557
 2624W        W18433  18.488  10.034   9.890 -0.0875  0.0329  0.2456
 2625W        W18434   0.476   5.885   3.275  0.1354 -0.1245  0.0385
 2626W        W18435  12.662  12.717   2.691 -0.1017  0.0772 -0.0360
 2627W        W18436  15.984   6.470  12.867 -0.1012  0.1814 -0.4040
 2628W        W18437   2.762  12.546   1.712  0.0262  0.0848 -0.1942
 2629W        W18438  16.019  12.072  14.834 -0.1588 -0.2189 -0.1244
 2630W        W18439  10.995   3.577   4.735 -0.1263  0.3481  0.0074
 2631W        W18440   7.561   8.482  14.124 -0.0824 -0.1346  0.1625
 2632W        W18441  15.697  14.938   9.995 -0.2299  0.0451 -0.0712
 2633W        W18442  14.456   5.427  13.098 -0.1206 -0.4333 -0.3036
 2634W        W18443  17.946   5.676  10.591  0.1716  0.0314 -0.1632
 2635W        W18444  15.412   1.352  15.331 -0.1387  0.4093  0.4076
 2636W        W18445  17.606   8.497  12.302 -0.0633  0.0457 -0.0075
 2637W        W18446  17.794   1.929  15.033  0.0005 -0.1354  0.2061
 2638W        W18447   6.669   0.880  14.366 -0.2941 -0.1866 -0.0220
 2639W        W18448  12.764  10.678   0.911  0.1427  0.3434 -0.3442
 2640W        W18449   9.118   1.955   0.114  0.0442 -0.2767  0.0900
 2641W        W18450  15.738   7.224  13.042 -0.2550 -0.0148 -0.0071
 2642W        W18451  12.749  10.548   3.352 -0.0154 -0.1318 -0.1424
 2643W        W18452   8.448  14.418   4.823 -0.1343 -0.1003  0.3565
 2644W        W18453   1.181  12.868  13.788 -0.0249 -0.2027 -0.4082
 2645W        W18454  12.410   2.384   3.194  0.0121  0.0818 -0.1686
 2646W        W18455   6.235  17.512  12.459 -0.0871 -0.0307 -0.1366
 2647W        W18456  17.281   7.078  13.771 -0.2123 -0.2074  0.1730
 2648W        W18457   2.142  16.972   1.501  0.0423  0.1665  0.1487
 2649W        W18458  10.830   5.567   0.474  0.3350 -0.0025  0.2686
 2650W        W18459   4.588   8.634   0.361  0.1523  0.0237 -0.2094
 2651W        W18460   1.759  16.502  14.463  0.2073 -0.1235 -0.0323
 2652W        W18461  15.945  16.568  15.294 -0.2837  0.1877  0.1351
 2653W        W18462   9.926  11.713  12.384  0.0579 -0.3798 -0.0075
 2654W        W18463   2.739  11.752  13.547  0.0324  0.1494 -0.0739
 2655W        W18464   8.402   2.200   3.542  0.0796 -0.1967 -0.2219
 2656W        W18465   2.668   9.413  12.655  0.0157 -0.0865  0.4208
 2657W        W18466  15.455  11.468  10.799  0.0733  0.0973  0.1092
 2658W        W18467  10.625  17.310  12.569  0.1237  0.0927  0.0043
 2659W        W18468  11.386  13.343   4.477 -0.3089  0.3151  0.0272
 2660W        W18469  13.651   3.595   0.293  0.1700  0.0532 -0.0756
 2661W        W18470   6.477  12.127   4.918  0.0766 -0.2622 -0.3428
 2662W        W18471   5.318  16.262  14.571  0.0496 -0.1256  0.3628
 2663W        W18472  12.992   6.263  11.851 -0.1680 -0.1803  0.0488
 2664W        W18473  16.085  16.739  11.007 -0.0709  0.3627 -0.0034
 2665W        W18474   7.697  13.267  13.335 -0.1078  0.3838  0.3284
 2666W        W18475   5.522  12.763  13.623  0.1901  0.2023  0.5588
 2667W        W18476  18.460   5.093   1.884 -0.4449 -0.0860 -0.1818
 2668W        W18477   1.160  14.992  10.346 -0.2428  0.2272 -0.0653
 2669W        W18478   1.342   6.471  11.013 -0.0353  0.3242 -0.1133
 2670W        W18479  16.014  15.121   2.790 -0.1257 -0.3124 -0.1210
 2671W        W18480   9.359   9.703   5.475  0.0073  0.1595  0.1231
 2672W        W18481  14.895   4.271   3.024  0.1823 -0.0205  0.0099
 2673W        W18482   7.605  18.261  15.435 -0.1539  0.0496  0.1104
 2674W        W18483   4.740   9.391   3.085 -0.0926 -0.0580  0.0440
 2675W        W18484   7.877  15.444   2.046 -0.0779 -0.1293 -0.0976
 2676W        W18485   2.550   4.625   5.109 -0.3409 -0.0754 -0.0230
 2677W        W18486  13.428   1.557   1.123  0.2050  0.1764  0.1301
 2678W        W18487  10.693   7.566   0.968  0.0729 -0.0032  0.1111
 2679W        W18488   1.645  12.276   3.539 -0.4187  0.0388  0.3599
 2680W        W18489  14.204  11.364   1.978 -0.0154 -0.4007 -0.3389
 2681W        W18490   0.675   6.433  13.289 -0.0854 -0.0227 -0.1817
 2682W        W18491   2.843  10.323  11.689  0.3661 -0.0609 -0.0222
 2683W        W18492  16.694  11.995   0.159 -0.0271 -0.1243 -0.1257
 2684W        W18493   6.498   5.427   1.634  0.0998  0.0069 -0.1400
 2685W        W18494  15.602  14.768   2.440 -0.0194  0.0231 -0.0556
 2686W        W18495  11.431  18.025   4.802 -0.1952  0.2366 -0.1380
 2687W        W18496  10.634   2.143  14.708 -0.0726 -0.2540 -0.1200
 2688W        W18497  10.653  10.026   2.056 -0.4206  0.1875  0.0750
 2689W        W18498  10.536   2.076   2.444  0.2406  0.3483  0.1613
 2690W        W18499  13.601   6.318   4.764 -0.0468  0.0197 -0.3175
 2691W        W18500   6.138  10.209  13.528 -0.1271  0.2452 -0.0184
 2692W        W18501   2.115   6.715   3.976 -0.3503 -0.1613 -0.2965
 2693W        W18502  14.280   4.916   3.199  0.1395  0.2360 -0.0171
 2694W        W18503   2.591  13.807  11.885 -0.0019 -0.2435  0.1409
 2695W        W18504   4.017   6.559   1.810 -0.2020  0.0221  0.1083
 2696W        W18505   0.719  17.327  11.343 -0.0655 -0.2292  0.1351
 2697W        W18506   9.177  16.167   5.284  0.1661  0.0443  0.2591
 2698W        W18507   0.048  10.621  11.946  0.2291 -0.1421  0.2666
 2699W        W18508   7.937   8.918   1.593 -0.1633 -0.0741  0.1626
 2700W        W18509   3.830  17.378   0.865 -0.1287  0.1103 -0.2713
 2701W        W18510  10.314  18.164   1.402 -0.2543  0.2612 -0.3010
 2702W        W18511  12.629   1.980  12.216 -0.3124 -0.1653 -0.1520
 2703W        W18512   5.932  18.434   1.240 -0.1836 -0.0328  0.1589
 2704W        W18513  12.506   4.803   3.809 -0.1099  0.2062  0.0354
 2705W        W18514  14.142  12.490   4.596 -0.2933 -0.1835  0.1486
 2706W        W18515   5.008   7.287  14.875 -0.1195 -0.1287 -0.3037
 2707W        W18516   6.123   2.416  14.336  0.1639 -0.2417 -0.1628
 2708W        W18517   4.597  16.465   0.112 -0.1630  0.0441 -0.2111
 2709W        W18518   6.670  11.749  11.069 -0.2458 -0.1658 -0.1066
 2710W        W18519   7.912   7.656   2.738 -0.2218  0.0677 -0.0130
 2711W        W18520   9.107  11.294   2.994  0.2430 -0.0082  0.1004
 2712W        W18521   0.083  15.255   0.910 -0.1285  0.0943 -0.0763
 2713W        W18522   9.491  11.874   0.495 -0.0613  0.0694  0.2795
 2714W        W18523   1.454   9.802  11.988 -0.0332  0.0550  0.4071
 2715W        W18524   4.381  14.001   2.681  0.0472 -0.0784 -0.2828
 2716W        W18525  12.872  16.817  11.312  0.1534 -0.1017 -0.1925
 2717W        W18526  14.449  14.085  12.508 -0.0746 -0.3007  0.2413
 2718W        W18527   2.199   4.654  13.312  0.0208 -0.0397  0.0626
 2719W        W18528  11.047  16.676   5.800 -0.1920 -0.0431 -0.1686
 2720W        W18529  14.837  10.171  14.463 -0.0187 -0.2367  0.0678
 2721W        W18530  14.087   6.725  12.799  0.0893  0.0875  0.0118
 2722W        W18531   9.569   4.160   1.447 -0.2696 -0.2791  0.0469
 2723W        W18532  18.388   8.208   3.610 -0.1048 -0.2622  0.0036
 2724W        W18533  12.871  11.378   2.824  0.3509 -0.3115 -0.0427
 2725W        W18534   0.814   8.115  12.158  0.3846  0.3519  0.2941
 2726W        W18535  15.103   9.177   2.271 -0.1114 -0.0734 -0.3176
 2727W        W18536   2.138  16.067  11.107  0.0201 -0.0994 -0.2403
 2728W        W18537  17.776   3.567   3.784 -0.1070 -0.1298 -0.0799
 2729W        W18538   5.963  11.294  15.113  0.0441  0.2057 -0.0490
 2730W        W18539  14.448  16.266  12.958  0.0924  0.1793 -0.1176
 2731W        W18540   4.914   8.927  15.341 -0.0128  0.1624 -0.2246
 2732W        W18541  13.471   5.881  14.819 -0.2104  0.3119  0.1808
 2733W        W18542   3.895  17.359  11.569 -0.4426 -0.3106 -0.2619
 2734W        W18543  10.113   7.979  13.288 -0.0069 -0.1731  0.0792
 2735W        W18544  13.388   9.045  15.185 -0.3456 -0.0708 -0.1842
 2736W        W18545  15.122  17.315   3.492 -0.2115 -0.2413 -0.1437
 2737W        W18546  16.271   0.100   4.687 -0.4333 -0.1015 -0.3768
 2738W        W18547  16.313  10.927  13.864 -0.2473 -0.0338 -0.0344
 2739W        W18548  18.333   4.251  10.344  0.2660 -0.0729 -0.0876
 2740W        W18549  10.211  13.753   0.266 -0.0850 -0.0267 -0.1900
 2741W        W18550  16.147  13.211   0.946 -0.1937 -0.1686  0.0500
 2742W        W18551   5.762   8.101   0.460  0.0179 -0.0540  0.3986
 2743W        W18552  18.426   0.279  14.398  0.2261 -0.1233 -0.2760
 2744W        W18553   9.685   4.652   3.610 -0.0481 -0.1051 -0.1688
 2745W        W18554  17.682  14.092  12.922  0.0295 -0.0327 -0.1594
 2746W        W18555  14.786  14.153   3.503 -0.0230  0.1629  0.1058
 2747W        W18556  11.326   1.319  11.296  0.3372 -0.2092 -0.0021
 2748W        W18557   7.935  13.696   4.586  0.0663 -0.1177 -0.1031
 2749W        W18558   8.711   6.389   1.750 -0.2038  0.1488 -0.1690
 2750W        W18559   6.432   6.777   2.464  0.0747 -0.2251 -0.1190
 2751W        W18560   1.912  14.718   1.330  0.1107 -0.2426 -0.0384
 2752W        W18561   8.863  11.050  13.818  0.0527 -0.1542  0.1400
 2753W        W18562   2.877   5.781   0.063  0.0768  0.2606 -0.1104
 2754W        W18563   2.471   3.586   0.999 -0.0419  0.0694  0.0763
 2755W        W18564  15.355  13.128   4.990 -0.0039 -0.0783  0.0281
 2756W        W18565  11.805   0.644  15.085 -0.2094  0.2939  0.1480
 2757W        W18566   2.950   6.959   3.979 -0.3404  0.4570  0.0949
 2758W        W18567   3.895   0.253  12.959  0.2848  0.0664 -0.0031
 2759W        W18568   7.759   7.637  15.611 -0.1533  0.2932  0.2494
 2760W        W18569   1.463   2.863  12.855 -0.2431 -0.0010 -0.1229
 2761W        W18570  10.914  16.788   4.173 -0.2902  0.0082 -0.2548
 2762W        W18571   5.350   9.566  13.592 -0.1683  0.0929  0.0268
 2763W        W18572   2.585  15.546   2.087  0.1106  0.4325 -0.0893
 2764W        W18573   9.335   6.180   4.535  0.0624  0.2471 -0.2832
 2765W        W18574  11.748   0.475   5.605  0.3906 -0.0239 -0.1561
 2766W        W18575   8.024  10.482  13.492 -0.2079 -0.0253  0.0400
 2767W        W18576   3.864   6.095  12.107  0.0425 -0.0529 -0.0789
 2768W        W18577  13.834   9.632   0.391 -0.0318 -0.2262 -0.0014
 2769W        W18578   8.374   8.377  11.355  0.1120 -0.0954 -0.1044
 2770W        W18579   1.320  10.535  11.314 -0.0932  0.2437 -0.6044
 2771W        W18580   2.150   8.180  13.611 -0.1156  0.0637 -0.0535
 2772W        W18581  11.647  14.694   0.562  0.3754  0.1488 -0.0630
 2773W        W18582   7.761  10.432  11.686  0.0600  0.0736 -0.0824
 2774W        W18583  14.166   7.908   2.538  0.2351 -0.0306  0.1791
 2775W        W18584   7.421   2.978   5.014  0.0023 -0.0943 -0.1314
 2776W        W18585   3.122  11.333   0.863  0.2816 -0.2646 -0.1067
 2777W        W18586   2.443  15.267   0.527 -0.1625 -0.3570 -0.1139
 2778W        W18587   3.491   2.885  11.382 -0.1463 -0.0141  0.0212
 2779W        W18588  16.483   2.528   3.761  0.3515  0.1430  0.1045
 2780W        W18589   7.911   7.269   0.905  0.1864  0.0302 -0.3389
 2781W        W18590  16.004   9.491  12.929  0.0029 -0.3319  0.0332
 2782W        W18591  15.184  18.106  13.164 -0.2519 -0.1751 -0.1795
 2783W        W18592  15.839  16.851   2.150 -0.1588  0.3641  0.1604
 2784W        W18593  12.489  13.881   3.928  0.0679  0.2819  0.0302
 2785W        W18594   0.201   6.402   2.450  0.0105  0.1139  0.0525
 2786W        W18595   3.855   1.632   3.248 -0.0817  0.1512  0.1464
 2787W        W18596   3.002   9.741  12.424  0.1665  0.2682  0.1119
 2788W        W18597  13.708   8.985   3.407 -0.0820 -0.2249 -0.0481
 2789W        W18598  10.074  14.835   4.167 -0.0603 -0.0267  0.3293
 2790W        W18599   4.465  18.011  13.688 -0.0811 -0.0344  0.0198
 2791W        W18600   6.442  14.975  11.830  0.1999 -0.1193  0.1680
 2792W        W18601   8.727   6.861  14.903 -0.0165  0.0585 -0.0877
 2793W        W18602  18.169   8.468   4.886 -0.1592  0.2690 -0.0377
 2794W        W18603  13.259   9.513   0.473 -0.3717 -0.1482 -0.0635
 2795W        W18604  17.517  13.335  10.543 -0.1853  0.2192  0.3287
 2796W        W18605   2.081  13.403  12.712  0.3070 -0.0047 -0.0374
 2797W        W18606  17.010  18.148  15.293  0.0717 -0.0637 -0.1309
 2798W        W18607   6.850   1.343   2.983  0.0841  0.1274  0.0797
 2799W        W18608  15.184   3.811   1.681 -0.1812 -0.1999  0.0750
 2800W        W18609  11.636  13.189   0.234 -0.3396 -0.0182 -0.1816
 2801W        W18610   4.068  16.976   3.185  0.1181  0.0630 -0.3244
 2802W        W18611  12.324  15.548  11.542  0.0880  0.1664 -0.3015
 2803W        W18612   8.915  15.600   3.451  0.6927  0.2398 -0.0619
 2804W        W18613   3.226  18.354   4.881 -0.3108  0.1360 -0.3610
 2805W        W18614  18.173  14.927  12.811  0.1548 -0.0782 -0.0641
 2806W        W18615  15.569   6.389  10.860  0.1185 -0.0119  0.0914
 2807W        W18616   4.283   3.730  13.073  0.0967 -0.1118  0.4886
 2808W        W18617  16.582   1.243   2.360 -0.3945 -0.0134 -0.1372
 2809W        W18618  17.838   5.837   9.690 -0.2479 -0.1646 -0.3019
 2810W        W18619  14.469  12.089  12.394 -0.0898 -0.1150 -0.0609
 2811W        W18620  17.099   3.125   4.957  0.0527 -0.2114 -0.0088
 2812W        W18621   9.358   5.864   0.880  0.2354  0.0860  0.1686
 2813W        W18622  11.875  13.851   3.183 -0.3837 -0.0618  0.0922
 2814W        W18623  10.044   9.550  12.211  0.0095 -0.1465  0.2244
 2815W        W18624   0.758  16.921  15.135 -0.1116  0.2585  0.2187
 2816W        W18625   0.240  12.080  10.451  0.1030  0.3701  0.1264
 2817W        W18626   9.086   5.273   4.634  0.1592 -0.0068 -0.1027
 2818W        W18627   4.535   3.207  15.127  0.1241 -0.3188  0.1279
 2819W        W18628   7.729   5.922   2.915  0.0619 -0.0590  0.0010
 2820W        W18629   5.266   7.921   0.572  0.1986  0.0328  0.0887
 2821W        W18630   1.084  10.670   3.157  0.1844 -0.2448 -0.1850
 2822W        W18631  17.757  16.917  12.170  0.0491 -0.3974 -0.3152
 2823W        W18632  17.999   9.117   2.917  0.2027  0.0213  0.1339
 2824W        W18633   3.018   4.128  14.630  0.1801  0.1263 -0.1417
 2825W        W18634   8.562   1.710  14.173  0.0339  0.0183  0.0128
 2826W        W18635   5.030  15.433  13.680 -0.0560  0.0739  0.3920
 2827W        W18636  10.090  11.752   0.781 -0.1750  0.0041 -0.1589
 2828W        W18637   0.668   9.889   9.859  0.0563  0.2208 -0.0149
 2829W        W18638  16.415  11.595   4.547 -0.0510  0.2181  0.1362
 2830W        W18639   6.654   3.897  15.486  0.1095  0.0634  0.0670
 2831W        W18640   6.896  18.302   0.766 -0.2747  0.0773  0.1660
 2832W        W18641   3.380   6.994   3.655 -0.0764  0.1995  0.2817
 2833W        W18642  14.091   8.575  14.786  0.1489 -0.3092  0.0855
 2834W        W18643   2.168   4.388   2.684  0.1911  0.0769 -0.1158
 2835W        W18644  18.013   1.029   4.405 -0.2418  0.2423 -0.0561
 2836W        W18645   0.765   6.938   3.635 -0.0669  0.0736 -0.0546
 2837W        W18646   8.525   1.575   1.185 -0.1467  0.1062  0.0624
 2838W        W18647  12.778   3.789  11.330 -0.1275 -0.0144  0.3731
 2839W        W18648   5.542   7.207   1.290  0.2767  0.1716 -0.1409
 2840W        W18649   8.601   9.760   2.228  0.2837 -0.1923  0.0320
 2841W        W18650   6.376  13.491  11.172 -0.3478  0.4575 -0.0074
 2842W        W18651   0.460  18.272  13.218 -0.2034 -0.4380 -0.0528
 2843W        W18652  17.998   0.126  15.400  0.0203 -0.0805 -0.1191
 2844W        W18653   0.910  17.120  13.443 -0.2486  0.1969 -0.0200
 2845W        W18654  10.728   3.745   0.181  0.1032  0.1249  0.2393
 2846W        W18655  12.853   7.896  14.957  0.2384 -0.0057  0.2951
 2847W        W18656   3.043   2.922  11.858 -0.1221 -0.0657  0.2179
 2848W        W18657  10.474  18.349   4.574  0.0315  0.1564  0.2089
 2849W        W18658  11.850  16.856   3.154  0.1191 -0.0941  0.1832
 2850W        W18659   3.052  12.518   2.246 -0.2771 -0.0494 -0.1331
 2851W        W18660  16.246   7.553   2.200  0.0477  0.1322  0.2680
 2852W        W18661  17.264   2.536   1.323 -0.1819 -0.4104  0.2703
 2853W        W18662   5.801   3.838  13.811 -0.1617 -0.0451  0.1039
 2854W        W18663  14.545   2.645   2.644 -0.0104 -0.1618 -0.1247
 2855W        W18664   6.914   2.145  14.322 -0.1391  0.0776  0.2079
 2856W        W18665   7.401  10.030   1.101  0.1776  0.1024  0.1433
 2857W        W18666   5.917   9.127   4.923 -0.0253 -0.0198  0.1097
 2858W        W18667   5.987   8.324  12.472  0.1195  0.0463 -0.3663
 2859W        W18668   8.006   4.399   3.312 -0.3778 -0.1288  0.3046
 2860W        W18669  18.402  17.112  13.584 -0.0416 -0.0258 -0.1849
 2861W        W18670  14.204   6.692   1.738 -0.2256  0.1892 -0.1117
 2862W        W18671  15.942  14.526   3.269 -0.1246  0.5508 -0.2508
 2863W        W18672   9.469  17.992  15.181  0.0424 -0.0923 -0.0821
 2864W        W18673   0.910   9.803   4.068 -0.1787  0.0189  0.0994
 2865W        W18674   5.508   0.873  12.280 -0.2384  0.0773  0.0789
 2866W        W18675  12.852  15.299   5.319 -0.0578  0.2009  0.0585
 2867W        W18676  14.484  17.587  10.591  0.0323 -0.1989 -0.1564
 2868W        W18677  17.260  10.512   5.617  0.0090  0.1624  0.3608
 2869W        W18678  15.905   6.319  13.927 -0.1553  0.3210 -0.1293
 2870W        W18679  13.555   7.689   1.968 -0.0176 -0.0326 -0.1948
 2871W        W18680  13.991   5.344   2.311 -0.1811  0.2083  0.3096
 2872W        W18681   6.875   8.486  14.269 -0.0600  0.0419  0.0833
 2873W        W18682   2.737  14.365  11.824 -0.0850  0.1143  0.4100
 2874W        W18683  13.093  10.886  11.620 -0.1375 -0.0261  0.0012
 2875W        W18684  17.038  14.781  14.861 -0.1379  0.1241 -0.2084
 2876W        W18685  16.921   3.047   0.881  0.0602 -0.1908  0.2215
 2877W        W18686  13.055  16.465   2.567 -0.2667  0.0330 -0.0575
 2878W        W18687   8.465   7.099  14.569  0.0994 -0.0028  0.0288
 2879W        W18688   6.276  10.177  15.423  0.0062  0.0460 -0.0921
 2880W        W18689  17.398  17.375  10.814 -0.0356  0.4003  0.2029
 2881W        W18690   4.529   6.398   0.897 -0.1945  0.1364  0.1069
 2882W        W18691   7.762  12.940   4.368 -0.2083 -0.0377  0.1412
 2883W        W18692  16.925   8.186  11.047  0.2370 -0.0821  0.0330
 2884W        W18693   3.796  18.075   3.974  0.1905 -0.5146  0.0978
 2885W        W18694   8.040   1.792   1.499  0.3582 -0.2401 -0.0943
 2886W        W18695  10.115   0.054  14.297  0.0996  0.1823  0.2704
 2887W        W18696  15.689   4.613   4.799 -0.1432  0.0428  0.1119
 2888W        W18697   2.875   2.558   1.022  0.3628  0.1174 -0.0987
 2889W        W18698   9.902  12.973   1.451  0.2363  0.1555 -0.1689
 2890W        W18699  15.462   9.504   1.983  0.0887 -0.0023  0.2244
 2891W        W18700   1.877   6.073  13.723 -0.0602 -0.1138  0.1234
 2892W        W18701  10.940  10.518   4.732 -0.0440  0.4748  0.0017
 2893W        W18702   7.043   8.357  13.199 -0.2716 -0.0203  0.4152
 2894W        W18703   7.524   2.851  14.540  0.1682  0.0903  0.4146
 2895W        W18704  15.638   5.788  11.563  0.4543 -0.2503 -0.1391
 2896W        W18705   1.403   2.344   2.151  0.0355  0.0355 -0.4588
 2897W        W18706   2.876   5.191   1.971 -0.1547 -0.0254  0.3893
 2898W        W18707  18.248  17.902   2.890  0.0664 -0.0723 -0.2019
 2899W        W18708  15.867  11.327   0.686  0.0383 -0.2335  0.1205
 2900W        W18709  11.873   3.940   3.766  0.3658  0.1577  0.1753
 2901W        W18710  17.526   4.470  13.640  0.2011  0.3241 -0.2671
 2902W        W18711  11.714  14.815  12.070  0.2071  0.2122 -0.1295
 2903W        W18712  15.134   1.851   1.554 -0.2194 -0.0615 -0.2629
 2904W        W18713  13.830   7.149   3.053 -0.1195 -0.0100 -0.2657
 2905W        W18714   9.284  14.527   3.651  0.1080  0.0377  0.0165
 2906W        W18715   2.011  15.859   5.231 -0.0563  0.0027  0.3240
 2907W        W18716   1.600   8.708  13.817  0.1899 -0.0079 -0.1284
 2908W        W18717   3.973   3.276  13.872 -0.0250  0.2718 -0.1544
 2909W        W18718   7.090   8.673  11.075  0.1382 -0.3496 -0.1844
 2910W        W18719  12.377   0.049  11.755 -0.1221 -0.2628 -0.0776
 2911W        W18720  14.557   5.485  11.109 -0.0103 -0.2735 -0.0711
 2912W        W18721   3.500  14.162   3.755  0.0183 -0.1208 -0.3035
 2913W        W18722  14.414  13.310   4.698 -0.1824  0.0576 -0.0045
 2914W        W18723  13.192   6.401   5.396  0.0141  0.2132 -0.1856
 2915W        W18724  12.185  18.011  13.177 -0.0487 -0.3145 -0.1343
 2916W        W18725   1.869   2.593   3.648 -0.0765  0.0388 -0.0615
 2917W        W18726   8.923   7.470   5.043 -0.2341  0.0336  0.2141
 2918W        W18727  18.370   4.982  13.994  0.2109 -0.0813  0.1603
 2919W        W18728  16.293  16.913  10.593 -0.0785  0.2405 -0.0596
 2920W        W18729  17.360   9.329   1.565 -0.0389  0.0506 -0.0615
 2921W        W18730   8.576   3.115  12.314 -0.1066  0.2054 -0.0671
 2922W        W18731  12.583  18.495  11.386 -0.1925  0.1496 -0.2355
 2923W        W18732   1.540  12.929  14.553 -0.0077  0.0247 -0.1857
 2924W        W18733   9.115   7.904  14.285  0.1958 -0.1678  0.0296
 2925W        W18734   6.076   3.671  13.425  0.1023  0.0819 -0.5587
 2926W        W18735   8.866  12.719  14.661  0.0730 -0.2109 -0.0816
 2927W        W18736  14.683  17.306  14.275  0.2574 -0.1595  0.2113
 2928W        W18737  15.213   1.244   3.899 -0.0659  0.1712 -0.4219
 2929W        W18738   2.090  16.792   2.722 -0.1906  0.3234 -0.0394
 2930W        W18739   0.399   1.507  11.248  0.0310  0.1209  0.0244
 2931W        W18740   9.147  17.838  12.464  0.0733 -0.0479  0.1101
 2932W        W18741   1.393  13.264  13.043 -0.2492 -0.0623 -0.1589
 2933W        W18742  14.354  16.897   0.499 -0.1025 -0.4884  0.1739
 2934W        W18743  11.848  15.954   1.047 -0.0743 -0.1207 -0.1690
 2935W        W18744  15.298   9.950  11.669  0.4120 -0.2071 -0.0212
 2936W        W18745  15.732   0.051   4.527 -0.0028  0.1823 -0.0588
 2937W        W18746   6.622  14.769  13.981 -0.1457 -0.0685 -0.1714
 2938W        W18747  10.678  18.319  14.953  0.2081  0.0780  0.1377
 2939W        W18748  18.081  17.064  13.177 -0.1551  0.2217  0.0959
 2940W        W18749  16.080  15.747  13.527 -0.1317  0.1027 -0.1464
 2941W        W18750   2.852   5.208  10.124 -0.1137  0.2165 -0.1660
 2942W        W18751   4.361   3.143   2.203  0.1681 -0.1376  0.0306
 2943W        W18752   0.543   5.926  10.221 -0.2036 -0.0439  0.1204
 2944W        W18753   9.458  16.396   4.752  0.3429  0.0326  0.0438
 2945W        W18754   4.333   8.925   1.631  0.2618  0.2157  0.2218
 2946W        W18755  11.340  17.092   5.011 -0.1305 -0.0998 -0.4754
 2947W        W18756   5.483   9.643   4.409  0.1288 -0.1505  0.1125
 2948W        W18757  13.440  17.162  13.309  0.0629 -0.0512  0.1459
 2949W        W18758   1.573  10.182  14.345 -0.2790  0.0053  0.0847
 2950W        W18759   7.894   4.746   0.282 -0.3122 -0.1545 -0.1131
 2951W        W18760   8.052  12.828   9.237  0.0407  0.0515 -0.1080
 2952W        W18761   6.682   1.969   1.776  0.1813  0.0589 -0.0492
 2953W        W18762   2.891  15.406   3.445  0.2493 -0.2537  0.2441
 2954W        W18763   2.426   4.821   2.497  0.2619 -0.0316 -0.1054
 2955W        W18764   3.256   4.817   2.084 -0.0562 -0.1061  0.3579
 2956W        W18765   3.684  11.399   0.075 -0.3506  0.1654 -0.2207
 2957W        W18766  18.471  10.208  10.829  0.0810  0.1757  0.1424
 2958W        W18767   6.646  16.784   3.600  0.1169  0.0267  0.2217
 2959W        W18768  13.108  10.862  14.408 -0.1436 -0.2500  0.1460
 2960W        W18769   1.056   1.322   0.504 -0.0888  0.1798 -0.1003
 2961W        W18770   4.466   7.669  13.925 -0.0720  0.1628 -0.0888
 2962W        W18771   6.786  18.432   5.200  0.2335 -0.0484  0.0029
 2963W        W18772   0.364   5.274   3.991 -0.1695 -0.1414  0.0951
 2964W        W18773   9.043  13.970  11.811  0.0615 -0.1257  0.1256
 2965W        W18774   4.810   0.616   4.748  0.1392  0.2223 -0.0826
 2966W        W18775  12.973   0.951  12.351 -0.0283  0.1110  0.3751
 2967W        W18776  11.109   4.572  11.905 -0.0280 -0.1337  0.0063
 2968W        W18777  14.702  12.851  13.980 -0.1360  0.0525 -0.0391
 2969W        W18778  13.211  13.327  10.702  0.1993  0.0737  0.0241
 2970W        W18779   1.648  13.962   9.486  0.1185 -0.0267 -0.2932
 2971W        W18780  18.642  11.324   0.823 -0.1615 -0.0162 -0.0607
 2972W        W18781  12.785   4.957   4.596  0.2764  0.0701 -0.1591
 2973W        W18782   8.802  14.825  11.256 -0.1591 -0.0236 -0.5262
 2974W        W18783  10.698  18.311   3.220  0.0026  0.0322  0.0118
 2975W        W18784   9.392   4.107   5.473 -0.1208  0.1627  0.1090
 2976W        W18785  10.807   2.922   1.728 -0.0868  0.1942 -0.1121
 2977W        W18786  10.551  16.525  10.884 -0.1028  0.0385 -0.0628
 2978W        W18787  13.667   1.911  12.756 -0.1141  0.2340  0.3958
 2979W        W18788  13.808  12.544   0.789 -0.0023  0.1195  0.2080
 2980W        W18789   7.449   1.320   4.582  0.2085  0.2820 -0.2075
 2981W        W18790   2.563   0.152  11.357  0.0509  0.2671  0.0739
 2982W        W18791  17.357   7.297  11.204  0.1780 -0.3156 -0.1025
 2983W        W18792   2.182  18.019   3.906  0.2017  0.1021  0.0848
 2984W        W18793  15.153   2.301   5.202  0.0021  0.1874 -0.1963
 2985W        W18794   8.813   8.216   5.718 -0.1077  0.0913 -0.2067
 2986W        W18795   3.816  12.892   2.882  0.0116  0.0033  0.1116
 2987W        W18796  12.259   2.351  10.445 -0.0302  0.1650  0.0754
 2988W        W18797   6.442   3.513  13.797  0.2442  0.0163  0.0314
 2989W        W18798   9.194   8.491  13.898  0.0627 -0.1536  0.3449
 2990W        W18799   6.204   8.020  11.852 -0.0756 -0.2233  0.1252
 2991W        W18800   6.885   1.807  11.621  0.2420  0.0053  0.0371
 2992W        W18801  10.257   4.010   2.662  0.4396 -0.2623  0.2396
 2993W        W18802   0.405   7.461  14.158 -0.1326  0.2789 -0.0157
 2994W        W18803   9.879  13.694   0.713 -0.1129  0.2066 -0.1362
 2995W        W18804   4.091   5.927  13.002  0.1311 -0.0975 -0.0677
 2996W        W18805   3.807   4.799   3.554 -0.1924 -0.2443  0.0022
 2997W        W18806  17.862   2.079  12.475 -0.0950 -0.0775 -0.0247
 2998W        W18807   3.372  12.322   2.873  0.2239  0.0623 -0.0309
 2999W        W18808   2.587   8.348  14.040 -0.1483  0.1488  0.3553
 3000W        W18809   6.154  13.015  10.137 -0.3322  0.0180 -0.1658
 3001W        W18810  18.408   2.882   1.665  0.2578 -0.1701 -0.3399
 3002W        W18811  10.263   9.164  14.717 -0.1946  0.0629 -0.2100
 3003W        W18812  14.620   4.615   1.603 -0.2319 -0.1144 -0.0390
 3004W        W18813  18.119  13.463  14.195 -0.0330 -0.4110  0.3212
 3005W        W18814  14.325  15.988  11.911 -0.1344  0.1156  0.0645
 3006W        W18815  17.422   6.863  14.265 -0.2016  0.1160 -0.1786
 3007W        W18816  13.082  16.409   5.457  0.0521  0.1186  0.0062
 3008W        W18817   1.362  10.091  13.157 -0.0014  0.0866 -0.0262
 3009W        W18818  14.594   7.764  14.993  0.4113  0.0614 -0.0527
 3010W        W18819   4.260   5.429   4.589  0.0554 -0.1081  0.1064
 3011W        W18820   3.405   9.705  11.293  0.0464 -0.1358 -0.0775
 3012W        W18821  10.784   0.198   1.511 -0.1046 -0.1314  0.1531
 3013W        W18822  12.598  15.052   4.411 -0.1721 -0.1085  0.0559
 3014W        W18823  11.644  14.370   3.041 -0.0350 -0.0533  0.2899
 3015W        W18824  11.175   3.753  15.540  0.0522 -0.0326  0.2715
 3016W        W18825   1.579  14.326   1.108  0.0023 -0.0951 -0.1920
 3017W        W18826  18.318  15.295  12.342 -0.0817 -0.0787  0.2698
 3018W        W18827   0.165   1.889  12.179  0.0348  0.0380 -0.1644
 3019W        W18828   3.291  16.900  13.871  0.0572  0.0877 -0.0742
 3020W        W18829  10.556  14.620  11.269  0.2130 -0.1014 -0.0839
 3021W        W18830   6.050  11.489  12.489  0.1376  0.0853 -0.0090
 3022W        W18831  18.440   9.960   2.858  0.1266 -0.1816 -0.0593
 3023W        W18832   8.495   3.750  14.818  0.2482  0.0829 -0.0648
 3024W        W18833   0.942  11.179   5.020  0.2087 -0.1016  0.3217
 3025W        W18834  10.985   9.034   2.858  0.0512 -0.0234 -0.0667
 3026W        W18835   2.768   0.681  11.474  0.0969 -0.0751 -0.2075
 3027W        W18836   0.711  16.386   2.710  0.1729 -0.0989 -0.1200
 3028W        W18837   9.218   7.362   3.704 -0.1474 -0.0562  0.3695
 3029W        W18838  12.415   2.513   2.028  0.3021 -0.0040 -0.0436
 3030W        W18839   2.380   2.974   5.837 -0.1067 -0.1461  0.0403
 3031W        W18840   7.833  12.093  12.597 -0.1359 -0.1571  0.0906
 3032W        W18841   6.277  11.935   1.043  0.0269  0.0446  0.1434
 3033W        W18842  10.227  16.428  11.255 -0.0128  0.0010  0.2230
 3034W        W18843   9.436   3.157   2.184  0.0565 -0.1636  0.5225
 3035W        W18844   7.938   2.801   5.581 -0.0707 -0.0663 -0.2809
 3036W        W18845   4.009  11.353  10.527 -0.0108 -0.0933  0.1942
 3037W        W18846  17.030  13.855   1.081 -0.1531 -0.3262 -0.3513
 3038W        W18847   1.469  14.904   1.574  0.0951 -0.1727 -0.0832
 3039W        W18848  17.146   8.609  14.625  0.1005  0.0581 -0.0289
 3040W        W18849  15.176  17.456   3.930  0.0093 -0.1943  0.0223
 3041W        W18850  10.859   6.907   4.098  0.1089  0.0003  0.3157
 3042W        W18851  10.822   4.188  11.984  0.0484  0.0237  0.0573
 3043W        W18852  13.115   0.825   3.592  0.1378 -0.0652 -0.0904
 3044W        W18853   3.834   9.955  15.326 -0.2805 -0.1084 -0.2395
 3045W        W18854  11.045   5.639   2.787 -0.0874 -0.1239  0.0906
 3046W        W18855   8.588  17.436   2.917 -0.1990 -0.2165  0.2011
 3047W        W18856  12.263  18.150  11.440  0.1712  0.4105  0.1307
 3048W        W18857  12.638   4.348   5.234 -0.0250 -0.1081 -0.2228
 3049W        W18858  11.111  16.926  10.294 -0.0662  0.0214 -0.3245
 3050W        W18859  17.560   6.011   0.208  0.2197 -0.1011  0.0482
 3051W        W18860  13.048   5.598   4.425 -0.0328  0.1988  0.0471
 3052W        W18861   7.662   7.266  14.202  0.2374 -0.0510 -0.1203
 3053W        W18862   8.101   8.014   9.995 -0.0288  0.1397 -0.1857
 3054W        W18863  13.566   6.769   4.461 -0.3628 -0.1186  0.2772
 3055W        W18864   4.590   5.818  15.187  0.0034 -0.0108 -0.2149
 3056W        W18865   6.055   7.910  10.991 -0.0684  0.4236  0.1689
 3057W        W18866  18.415  10.668   1.313  0.2409 -0.0866 -0.0546
 3058W        W18867  10.804   4.406   4.467 -0.3012 -0.0468 -0.1608
 3059W        W18868  15.718   2.727  12.872 -0.0557 -0.1022  0.1205
 3060W        W18869   6.202   3.485  11.684  0.1129 -0.0833  0.3058
 3061W        W18870   7.843  18.675  11.338  0.2192 -0.1130 -0.0856
 3062W        W18871   2.207  13.560  12.172 -0.1178 -0.2518 -0.0151
 3063W        W18872   1.480  13.177  14.092  0.1986 -0.0496  0.1216
 3064W        W18873  11.493   3.015  14.723  0.2789  0.2944  0.1286
 3065W        W18874   4.561   1.376   3.300 -0.0845 -0.0913  0.0827
 3066W        W18875   7.275  10.740  13.764  0.1111  0.0468 -0.2483
 3067W        W18876  12.160  15.024   1.101 -0.2141 -0.0541  0.0234
 3068W        W18877   8.569  13.814  10.768 -0.1698 -0.1251  0.4281
 3069W        W18878  11.998  11.163  11.463  0.1427  0.0688 -0.2934
 3070W        W18879   8.481  14.725  10.896 -0.0493 -0.1132 -0.0974
 3071W        W18880   7.649   2.582   1.607  0.0165 -0.0566  0.3709
 3072W        W18881  13.530  17.797  12.719  0.1175  0.2963  0.1530
 3073W        W18882  16.483   2.478   5.405  0.1250 -0.1931  0.3294
 3074W        W18883  17.935  14.759   4.135 -0.0080  0.0157  0.1258
 3075W        W18884   7.540  11.095   3.604  0.2346  0.2434  0.1359
 3076W        W18885   1.492  13.988  11.336 -0.3846  0.1210  0.0116
 3077W        W18886   7.856   4.204   1.711 -0.3394  0.1882 -0.1907
 3078W        W18887  16.444   0.979  13.137  0.1302  0.3789  0.1709
 3079W        W18888   9.571  16.603  13.788  0.0696  0.0540 -0.1885
 3080W        W18889   9.883  16.197   2.936 -0.2436  0.1664 -0.1221
 3081W        W18890  10.952  15.529  13.501 -0.2705 -0.2471 -0.0608
 3082W        W18891  15.411  16.513   4.417 -0.4691 -0.2987 -0.1063
 3083W        W18892  15.288  15.281  15.229  0.0436  0.1646 -0.0429
 3084W        W18893   2.026   9.396   5.688  0.2157  0.2166  0.4559
 3085W        W18894   8.091   0.986   5.486  0.2940  0.0374 -0.2150
 3086W        W18895   5.379  11.123   2.202 -0.1533 -0.2157  0.0537
 3087W        W18896  13.097  10.094  12.876 -0.0010  0.3102  0.1221
 3088W        W18897   1.982  10.087   1.537  0.3799 -0.1718 -0.3479
 3089W        W18898   5.850  15.863  10.452 -0.0016  0.2809 -0.0944
 3090W        W18899   7.453  13.750  14.290  0.2303 -0.0385 -0.1035
 3091W        W18900  16.005  12.805   2.010  0.2234 -0.2950 -0.0887
 3092W        W18901   5.311   4.163   4.191  0.0264 -0.1832 -0.2089
 3093W        W18902  12.448   0.029   0.481 -0.0595 -0.1210  0.1040
 3094W        W18903   6.139   3.931   4.291 -0.0092 -0.1249  0.0939
 3095W        W18904   0.846  11.265  11.505  0.0146 -0.1555 -0.0157
 3096W        W18905   9.725   9.918  15.311  0.2602 -0.4323  0.1899
 3097W        W18906   8.352   5.790   2.119  0.1118 -0.2981  0.1464
 3098W        W18907   4.516   6.056  11.049 -0.0806 -0.1674 -0.1838
 3099W        W18908   1.262  10.910   1.698 -0.1226 -0.2890  0.1581
 3100W        W18909   5.908   6.879   2.664  0.2395  0.2054  0.1448
 3101W        W18910  12.147   3.797   4.379  0.0649  0.1682 -0.1904
 3102W        W18911   6.055   6.696   5.644 -0.0420 -0.0711  0.2306
 3103W        W18912   7.949   8.029   1.611 -0.1671  0.1309 -0.0390
 3104W        W18913   6.921  15.164  14.820  0.0365 -0.0268 -0.0637
 3105W        W18914  12.758   4.075   2.767 -0.2014 -0.2105  0.1939
 3106W        W18915  11.943  17.970   5.506  0.3274 -0.0935  0.2122
 3107W        W18916   6.741   6.330   1.595 -0.1879 -0.2012 -0.1523
 3108W        W18917  16.145  18.316  10.577 -0.1703 -0.0752  0.1587
 3109W        W18918   3.182  16.983   1.049 -0.3079  0.2717 -0.2431
 3110W        W18919   6.128   8.510  13.400 -0.0416  0.5192  0.2132
 3111W        W18920   2.044  12.984  11.586  0.1715 -0.0537 -0.1616
 3112W        W18921  17.700  13.837   2.163  0.3171 -0.0814  0.0897
 3113W        W18922   1.333   5.342   3.185 -0.1487 -0.0008 -0.1025
 3114W        W18923   8.630  12.037  14.242 -0.0754 -0.0847 -0.0678
 3115W        W18924  12.460   6.062   1.896  0.1697 -0.3436  0.2583
 3116W        W18925  11.490  11.561   0.884  0.3165 -0.0250 -0.2511
 3117W        W18926  11.783   6.814   0.013  0.1935 -0.1497 -0.3420
 3118W        W18927  11.528   5.373  12.195 -0.1271 -0.2387  0.1437
 3119W        W18928   8.103   1.496  10.508 -0.1387 -0.0921  0.2649
 3120W        W18929  15.168  17.240   2.050  0.2286 -0.0700  0.1984
 3121W        W18930  16.816   0.404   2.982  0.2938  0.0676  0.1947
 3122W        W18931  13.885   7.545   2.342  0.0453  0.0591  0.2028
 3123W        W18932   0.530   0.899  14.055  0.2574  0.0424  0.1117
 3124W        W18933   9.834  18.005   1.680 -0.0707  0.0964  0.1719
 3125W        W18934   6.833   1.419   5.265  0.1679 -0.0077 -0.2205
 3126W        W18935   9.654  16.437  12.427 -0.0814  0.0908  0.1188
 3127W        W18936   0.083  14.839  13.116 -0.4137  0.2663  0.2371
 3128W        W18937  12.171   2.940  13.924 -0.1660  0.1001  0.0477
 3129W        W18938  13.093  15.110  15.239  0.1838 -0.2067  0.0041
 3130W        W18939  13.593   2.100  11.219  0.1310 -0.1351  0.0286
 3131W        W18940   7.574   8.433   2.277 -0.1279  0.2393 -0.0937
 3132W        W18941   4.438   6.232  13.853  0.3179 -0.0603  0.0096
 3133W        W18942  13.635   9.472   1.696  0.3250 -0.1876 -0.2831
 3134W        W18943   9.054  15.659   0.451  0.0724 -0.1794 -0.0450
 3135W        W18944   0.683  18.475  14.221 -0.0137  0.0354 -0.0300
 3136W        W18945   0.821   8.399   1.450  0.1148 -0.0574 -0.0102
 3137W        W18946   9.943  10.513  11.762  0.2692 -0.3132 -0.0797
 3138W        W18947   8.289   8.432   5.625  0.5021  0.1936  0.1654
 3139W        W18948  10.495   3.577   2.002  0.0890  0.1187  0.0461
 3140W        W18949  14.337   9.859   4.407  0.0541  0.2360 -0.0351
 3141W        W18950  11.154   3.728  10.724  0.0740  0.1556 -0.1959
 3142W        W18951   5.016  12.780  13.860 -0.0352 -0.1357  0.3018
 3143W        W18952   1.456   5.090   2.756 -0.1924 -0.3124  0.1541
 3144W        W18953   9.008  12.063   5.142 -0.0139 -0.0900  0.4112
 3145W        W18954  11.452   9.046  13.304 -0.0862 -0.0293  0.1625
 3146W        W18955   5.505   0.669   4.078  0.0159 -0.0375 -0.0031
 3147W        W18956   0.052   1.425  13.520 -0.4835 -0.0061 -0.0628
 3148W        W18957  13.487   1.967   1.525  0.0229  0.1635 -0.0449
 3149W        W18958   6.024  10.014  12.168 -0.1003 -0.2491 -0.0210
 3150W        W18959  17.241   9.276   0.869 -0.2594  0.1256 -0.2469
 3151W        W18960   4.542   0.860   0.129  0.2787 -0.1282 -0.1040
 3152W        W18961   7.904   4.117   3.725  0.2150  0.0705 -0.1442
 3153W        W18962  11.230   3.548   1.465  0.2168 -0.0269 -0.3266
 3154W        W18963  18.131   8.503  14.780 -0.0067 -0.1108 -0.0198
 3155W        W18964   1.982  15.894   2.852 -0.2091  0.0968 -0.0508
 3156W        W18965   5.034   7.429   5.109  0.0640  0.0088  0.1747
 3157W        W18966   2.489  15.744  13.966 -0.0530 -0.0639 -0.0621
 3158W        W18967   2.436   5.392   5.497  0.0080 -0.3674 -0.0453
 3159W        W18968   2.940   9.378   1.387  0.0627  0.1685 -0.0610
 3160W        W18969   5.159  13.261   3.153 -0.0318  0.0376  0.0505
 3161W        W18970  18.162  18.248   5.203 -0.0600 -0.0157  0.0226
 3162W        W18971  11.142  15.999   2.178 -0.0049 -0.0639 -0.0087
 3163W        W18972  15.907   1.012   4.399 -0.0574  0.1089 -0.2755
 3164W        W18973   6.025   2.015   5.362  0.1606 -0.0733 -0.0000
 3165W        W18974   5.453   7.134   5.037 -0.3413  0.0809  0.0605
 3166W        W18975   0.042   2.557  14.198 -0.0773 -0.1276 -0.2427
 3167W        W18976   2.999   5.073  14.138  0.2597 -0.0027  0.0579
 3168W        W18977  12.664   0.998  11.193 -0.2608 -0.0940  0.0903
 3169W        W18978  14.338  12.784   3.111  0.3692  0.0884  0.0517
 3170W        W18979   4.207  16.929  15.186 -0.2608 -0.1885 -0.1437
 3171W        W18980   7.441   7.364  11.335  0.0201  0.1064 -0.0280
 3172W        W18981  14.544  12.011  15.534 -0.1433 -0.0361 -0.0101
 3173W        W18982  11.753  12.031   1.333  0.0678 -0.0682 -0.2184
 3174W        W18983   2.446   5.013  10.657  0.2387  0.0898  0.0743
 3175W        W18984   8.676  14.047  14.954 -0.1624  0.0002 -0.0582
 3176W        W18985  18.449  11.120   3.030 -0.4071 -0.1901 -0.1603
 3177W        W18986  12.737   1.161   3.721 -0.0085  0.2626 -0.1076
 3178W        W18987  15.588  13.471  14.306  0.2870  0.2918 -0.0225
 3179W        W18988   2.339   4.099  10.792  0.1478  0.0963 -0.0577
 3180W        W18989  13.927   3.455  11.295 -0.1017  0.1535 -0.2248
 3181W        W18990   5.166  18.213  13.989 -0.2236  0.1115 -0.0855
 3182W        W18991  12.818   9.823  14.569  0.4455  0.0323  0.1569
 3183W        W18992   8.355   1.868  12.546 -0.0626 -0.3311 -0.0341
 3184W        W18993   6.645   9.520   0.514 -0.0344 -0.3917  0.1782
 3185W        W18994  11.816   7.403  13.322  0.0316 -0.0649  0.1905
 3186W        W18995   4.884   2.272   0.715 -0.0365 -0.3726  0.1325
 3187W        W18996   0.512  12.888  10.229  0.3960 -0.2041 -0.1429
 3188W        W18997   8.786  17.282   1.445 -0.0382 -0.1049  0.0198
 3189W        W18998   4.320  10.987  11.816  0.0993  0.5755  0.1438
 3190W        W18999   9.820   2.898  13.880  0.3173  0.1142 -0.0907
 3191W        W19000   8.971  10.380   4.453 -0.0300 -0.0621  0.3798
 3192W        W19001  14.436  12.451   1.416 -0.1296  0.1138 -0.1089
 3193W        W19002   0.636  13.254  15.338 -0.0336  0.1652  0.2570
 3194W        W19003   6.444  10.991  12.877  0.1644 -0.0013  0.0878
 3195W        W19004  17.596  16.043   1.255  0.1983  0.0365  0.0183
 3196W        W19005   8.561  15.408  15.093 -0.1736 -0.1310 -0.3564
 3197W        W19006  10.452   0.937   1.202  0.0819  0.3669 -0.0527
 3198W        W19007   4.543   7.697   0.150  0.0213  0.2850  0.0535
 3199W        W19008   0.428   2.072   0.524 -0.2601 -0.0489 -0.2896
 3200W        W19009   8.958  15.231   2.385 -0.0942  0.0992 -0.1162
 3201W        W19010   2.881   6.786   2.478  0.0779  0.0995 -0.2037
 3202W        W19011  10.821  18.381   2.766  0.1020 -0.0283  0.0912
 3203W        W19012   1.667  11.454   3.511 -0.0167 -0.3205 -0.2739
 3204W        W19013  16.038   4.956   2.987 -0.2201  0.0797 -0.2718
 3205W        W19014   4.500   0.672  12.620  0.1251 -0.0179  0.0395
 3206W        W19015   0.657   2.006   0.942 -0.0917 -0.2992  0.0062
 3207W        W19016  12.435   4.412   2.839  0.2213  0.0659 -0.0463
 3208W        W19017  17.397   4.479   3.690  0.2485 -0.0035  0.0240
 3209W        W19018   4.430   4.887   0.969 -0.0766  0.3809 -0.1063
 3210W        W19019   7.965  11.657  15.114  0.1550 -0.2863  0.0560
 3211W        W19020   4.880   1.455   0.426  0.1437 -0.1168  0.1334
 3212W        W19021   3.060   7.674  13.856 -0.0578  0.2281  0.2435
 3213W        W19022  15.780  16.450   0.864 -0.0849 -0.3477  0.0460
 3214W        W19023   1.462   8.704  14.322 -0.3585 -0.4603  0.2306
 3215W        W19024   0.197   2.810   1.816  0.1121  0.2084 -0.0066
 3216W        W19025  10.500   6.634  12.034  0.2222 -0.4619 -0.0327
 3217W        W19026   4.614   5.156   1.380  0.3134 -0.0345 -0.2420
 3218W        W19027  10.750   8.207   0.396 -0.0057  0.0347  0.4146
 3219W        W19028  13.182   0.931   3.061  0.2802  0.0284 -0.0743
 3220W        W19029  17.322   7.196  12.537 -0.2473 -0.2897 -0.1220
 3221W        W19030   6.204   1.060   1.860 -0.1800  0.0003 -0.0956
 3222W        W19031  15.656   5.177  11.695 -0.1458  0.0153 -0.2019
 3223W        W19032   5.189  14.808   1.277  0.1577 -0.1213  0.0332
 3224W        W19033  18.007  13.969  13.438  0.3429  0.1043  0.0897
 3225W        W19034  10.181   2.268  14.888  0.1043 -0.2477  0.1064
 3226W        W19035  11.063   9.196   4.092  0.0797  0.0729 -0.2099
 3227W        W19036  17.974   1.843   5.109  0.0225 -0.3612 -0.0692
 3228W        W19037  14.489  10.370   2.311 -0.1379  0.1168 -0.1900
 3229W        W19038   9.729   2.690   4.243  0.4287  0.4156 -0.0923
 3230W        W19039   4.044   9.651  12.651  0.2818  0.0731 -0.0898
 3231W        W19040   9.671  16.617   3.295  0.0276 -0.1953 -0.1326
 3232W        W19041  16.479   9.345  12.738  0.2850  0.0850 -0.4021
 3233W        W19042   8.591   5.731   0.024  0.2120 -0.0126  0.1446
 3234W        W19043   1.658   0.674   1.145  0.1592  0.0682  0.2283
 3235W        W19044  13.175   7.252  13.875  0.0474 -0.1159 -0.0603
 3236W        W19045  17.702   4.386   1.664 -0.2666 -0.1766  0.0034
 3237W        W19046   3.123   7.002  14.985 -0.0921 -0.4199 -0.0151
 3238W        W19047  17.236   9.104  11.653  0.1517 -0.0009 -0.1441
 3239W        W19048   9.795  11.988  13.918 -0.1819  0.0114  0.0028
 3240W        W19049   4.028  15.391   0.261  0.1522  0.1666 -0.1388
 3241W        W19050  14.344   4.095  11.987  0.0983 -0.0199 -0.0460
 3242W        W19051  17.621  10.879   9.658  0.2134 -0.0364 -0.2610
 3243W        W19052   9.070   0.388   0.111 -0.0381 -0.2795  0.1119
 3244W        W19053  10.392   8.320  10.305  0.0466  0.0955 -0.0367
 3245W        W19054   4.190   1.949  12.737  0.0593 -0.0526 -0.0105
 3246W        W19055  13.802  13.012  15.297 -0.2749  0.1338 -0.1858
 3247W        W19056  12.150   4.606   1.831 -0.0016  0.2020 -0.4314
 3248W        W19057   9.633   4.791   4.777 -0.1833 -0.1236 -0.0777
 3249W        W19058  17.688   8.752  14.114  0.1714  0.0098  0.0623
 3250W        W19059  12.009   5.501  12.453 -0.0142 -0.3925  0.3968
 3251W        W19060   7.874   0.164   5.236 -0.2677 -0.1083 -0.0322
 3252W        W19061   7.774   1.411   0.295 -0.1603 -0.4461  0.5402
 3253W        W19062  18.361  18.499  11.287 -0.0594 -0.4836 -0.0485
 3254W        W19063   1.898  17.589   0.849 -0.1726  0.1366  0.1480
 3255W        W19064  14.834  17.338   3.087 -0.0823  0.3685  0.2122
 3256W        W19065   5.622  14.512   0.161  0.1276 -0.0629  0.0913
 3257W        W19066   0.237   2.843  13.791  0.1006  0.3824  0.1172
 3258W        W19067   6.744  10.905  14.074  0.4126 -0.3340 -0.1881
 3259W        W19068   3.472  11.087   4.963 -0.1779  0.2074 -0.1653
 3260W        W19069  18.263  15.262   1.832 -0.0999 -0.2391  0.3334
 3261W        W19070  13.488  14.681   0.999 -0.1999  0.0224 -0.2529
 3262W        W19071  12.263   4.204  15.133 -0.2450  0.1773 -0.0516
 3263W        W19072  17.387   6.492   4.942  0.0822 -0.1631  0.0137
 3264W        W19073  17.244  16.642  15.611 -0.2257 -0.2976  0.1182
 3265W        W19074  17.836   0.361  14.301 -0.1896 -0.0193 -0.1797
 3266W        W19075  17.021  13.935   9.386  0.1201 -0.1380  0.1620
 3267W        W19076   7.767   0.668  10.641 -0.0367  0.0140 -0.1115
 3268W        W19077   4.727  16.135  12.900 -0.1224  0.0667 -0.0754
 3269W        W19078   2.726   8.604  14.930  0.0731  0.1186  0.1078
 3270W        W19079   3.463   0.000  15.282  0.0441 -0.0301 -0.3334
 3271W        W19080  12.657   8.248  15.531  0.0878 -0.2082 -0.0579
 3272W        W19081   4.026  16.414  15.281 -0.0540 -0.1139 -0.3701
 3273W        W19082  15.670  14.828   1.151  0.1373  0.1637 -0.2653
 3274W        W19083   2.087   2.666  13.073  0.2936 -0.0172 -0.2704
 3275W        W19084  16.535   8.674   0.505  0.0135  0.1506 -0.2044
 3276W        W19085  16.752   1.747   0.243 -0.0492  0.1121  0.1227
 3277W        W19086  12.426  15.588   0.608  0.2691 -0.3117  0.1022
 3278W        W19087  10.951   4.417   3.108 -0.2522  0.2269  0.0746
 3279W        W19088   1.852   3.443   0.275 -0.0030 -0.1346  0.0469
 3280W        W19089   2.840   6.497   0.722 -0.3569 -0.4522  0.0107
 3281W        W19090   5.053   0.770   6.047 -0.1673  0.0749 -0.1493
 3282W        W19091  17.666  11.911   0.566 -0.0751 -0.2737 -0.4008
 3283W        W19092   0.187   0.726   1.954  0.0519 -0.0515  0.1928
 3284W        W19093  13.419   1.320   4.830 -0.0324  0.0075  0.0786
 3285W        W19094  17.389   1.238   0.233 -0.1462 -0.1288  0.1516
 3286W        W19095   7.467   1.385   0.666  0.3603 -0.0956 -0.1836
 3287W        W19096   3.819  13.378   2.945  0.0246 -0.0148 -0.0376
 3288W        W19097   9.725  14.526   5.057  0.2042  0.0416  0.0934
 3289W        W19098  14.121   0.648  13.531  0.3161  0.2989  0.1243
 3290W        W19099   5.478   8.495   5.588 -0.2592 -0.0649 -0.0577
 3291W        W19100   7.813   4.593   0.714 -0.1180  0.2251  0.0433
 3292W        W19101   7.143   2.319   4.395  0.0784 -0.0568 -0.0167
 3293W        W19102  12.036   6.273  14.579 -0.0725 -0.2333 -0.3072
 3294W        W19103  15.872  15.444  14.824  0.0861  0.0335  0.2576
 3295W        W19104  12.178  14.225   1.577 -0.0525 -0.2862 -0.0437
 3296W        W19105  16.195   3.708  14.911  0.0802  0.2322  0.1111
 3297W        W19106   6.851  12.349   5.093  0.1670  0.3423  0.1558
 3298W        W19107  10.740   2.827   3.616  0.2739  0.1882  0.0878
 3299W        W19108  13.051   6.841  14.055  0.0202 -0.2698  0.0485
 3300W        W19109   5.168  13.781  10.740 -0.1042 -0.1564 -0.1527
 3301W        W19110  12.616  11.903   0.488  0.0469  0.1137 -0.4191
 3302W        W19111   5.400  12.140   9.412  0.3421 -0.2897  0.0376
 3303W        W19112   9.986   3.158   3.994 -0.3009  0.0863 -0.2607
 3304W        W19113   7.747   3.139   3.648  0.0860  0.0572 -0.1600
 3305W        W19114   0.556  17.629  15.455 -0.0076 -0.1587 -0.1571
 3306W        W19115   1.503  16.757  13.519  0.1480 -0.1947 -0.0662
 3307W        W19116   7.280   8.431  14.560  0.1194  0.2970  0.1617
 3308W        W19117   4.077   4.211   1.573 -0.0801 -0.0255  0.3337
 3309W        W19118   0.626   6.975   2.582  0.3588 -0.3658 -0.0700
 3310W        W19119  16.563  11.700   2.149 -0.1390 -0.3257  0.2242
 3311W        W19120  13.045   8.065  13.109  0.1825 -0.0495 -0.0978
 3312W        W19121   8.861   3.699  14.421 -0.0692  0.2277 -0.2280
 3313W        W19122  16.905  14.811  12.840 -0.0377  0.1122 -0.1927
 3314W        W19123   7.162  17.074   5.573 -0.0713 -0.1748  0.1743
 3315W        W19124  11.781   6.369  13.264  0.1635 -0.1453 -0.0031
 3316W        W19125  15.003  16.597   4.175 -0.0806 -0.2241 -0.1804
 3317W        W19126  14.486  11.516  10.162  0.3005  0.2404  0.0005
 3318W        W19127  11.269   2.888   3.483  0.1544  0.0293 -0.0443
 3319W        W19128   6.317  13.924  13.378  0.1213 -0.0773  0.1065
 3320W        W19129   7.006  18.374   3.757 -0.1646 -0.1360 -0.0759
 3321W        W19130  15.666   8.422   0.728 -0.4276  0.2355 -0.0408
 3322W        W19131   6.709   1.579   2.142  0.0961 -0.2250 -0.0146
 3323W        W19132   8.715  18.473  11.639  0.0969  0.1494 -0.0310
 3324W        W19133   0.403  16.997  15.564  0.1036 -0.1083  0.2963
 3325W        W19134   5.814  14.824  11.345 -0.0553 -0.3321 -0.0023
 3326W        W19135   1.246  12.588   0.596 -0.0578 -0.3399 -0.1897
 3327W        W19136  15.605  16.328  15.555  0.0988 -0.0538  0.0328
 3328W        W19137  17.796  14.604   1.219 -0.2768  0.0813  0.0146
 3329W        W19138   0.814  17.712   4.256  0.1783 -0.1295 -0.2340
 3330W        W19139   3.844  15.836  13.556  0.0850 -0.0058 -0.0769
 3331W        W19140   6.923  18.672  14.352 -0.2181  0.1450 -0.2333
 3332W        W19141   4.183   5.920   4.719  0.1955 -0.2567 -0.3596
 3333W        W19142   1.939  15.434  12.272  0.1486  0.1331 -0.0764
 3334W        W19143   5.804   1.674   2.987 -0.0950  0.0348 -0.3008
 3335W        W19144   9.094   9.876  14.227  0.1636  0.2089  0.0981
 3336W        W19145  15.469   6.420   1.836 -0.1250 -0.2408 -0.1848
 3337W        W19146   9.570  15.200  15.310  0.1191  0.0606  0.3459
 3338W        W19147   7.843  12.613   3.953 -0.1549 -0.0362 -0.2424
 3339W        W19148  14.697  15.912  14.932  0.3793 -0.0717 -0.1979
 3340W        W19149   4.356   0.630  13.118 -0.3777 -0.0312 -0.2582
 3341W        W19150   8.291  17.813   2.648  0.0045 -0.1863 -0.0055
 3342W        W19151  14.104  11.817   0.425  0.1343 -0.0958  0.2899
 3343W        W19152  16.617  13.859   3.083 -0.0082  0.1514  0.0425
 3344W        W19153   0.325  12.367   5.154 -0.4789  0.1336  0.1956
 3345W        W19154  15.935   6.304  11.628 -0.0421  0.1568 -0.0706
 3346W        W19155  15.818   9.299  11.747 -0.1419  0.1483  0.1069
 3347W        W19156  15.022  11.322   2.049  0.3519 -0.0989  0.0153
 3348W        W19157   7.345  12.660   0.026 -0.1051 -0.1195 -0.0366
 3349W        W19158   7.600   0.197   3.330 -0.1287  0.0751  0.1548
 3350W        W19159   3.472   9.742  13.638 -0.1476  0.0384  0.1019
 3351W        W19160   3.494  10.949  12.954  0.3272  0.0758  0.1804
 3352W        W19161  13.937   7.121  12.292 -0.4771 -0.2011 -0.0653
 3353W        W19162  17.328   8.910   1.218  0.2374  0.4067  0.0990
 3354W        W19163   8.493   0.144  14.497 -0.1600 -0.1514  0.2096
 3355W        W19164   0.522   7.462   1.653  0.0001 -0.0101  0.2212
 3356W        W19165  14.426  17.589   1.270  0.0217  0.0091 -0.1043
 3357W        W19166   9.851  12.383  15.590  0.0128 -0.1782  0.0178
 3358W        W19167   6.038  11.813  15.011  0.3321 -0.0357  0.0749
 3359W        W19168  13.665   0.427   5.896 -0.0565  0.0528 -0.1419
 3360W        W19169  11.155   7.735  14.171  0.3662  0.1652 -0.2461
 3361W        W19170   5.783   0.642   4.944  0.1550  0.0214  0.2795
 3362W        W19171   4.338  16.007   1.317  0.0282 -0.0882  0.2204
 3363W        W19172   4.826   0.845   1.046 -0.2201 -0.1744 -0.0762
 3364W        W19173  18.128  11.794   1.891  0.1194 -0.0156  0.0198
 3365W        W19174   6.846  11.020   4.163  0.3276  0.2553  0.1692
 3366W        W19175  18.102   7.545   3.633  0.1971 -0.1046  0.0380
 3367W        W19176  10.911  13.158   0.391  0.0435  0.1246 -0.1638
 3368W        W19177   5.281  13.863  12.064  0.2322 -0.0038  0.1574
 3369W        W19178  14.820  14.223  10.770  0.1182  0.3772 -0.2551
 3370W        W19179  10.816   2.487   1.550  0.2376 -0.0344 -0.1677
 3371W        W19180  15.947   2.222  11.386 -0.0884 -0.0357 -0.0645
 3372W        W19181   3.438  17.725   0.055  0.2221 -0.1220 -0.1075
 3373W        W19182  12.248   3.992   1.919  0.1605  0.1732 -0.0006
 3374W        W19183   5.970   3.234  10.650 -0.1696  0.2132 -0.2161
 3375W        W19184  16.888  12.355  13.861  0.2214 -0.1384 -0.1065
 3376W        W19185   3.629  11.416   5.358 -0.1867 -0.1368 -0.2326
 3377W        W19186   0.278   1.597  13.956  0.1391  0.1157 -0.3658
 3378W        W19187  11.985   0.858   5.902  0.1944  0.1156 -0.1949
 3379W        W19188   7.926  12.097   3.939 -0.2675 -0.0824  0.1865
 3380W        W19189  13.017   2.232   4.430  0.1819 -0.3462  0.1325
 3381W        W19190  14.085  15.322  13.835  0.0801 -0.4058  0.0625
 3382W        W19191  17.640  17.967   0.536  0.3182  0.2496  0.1018
 3383W        W19192   5.284   7.530   4.068 -0.1518  0.1986  0.3302
 3384W        W19193  14.315   6.298   1.391 -0.0879  0.0230  0.0323
 3385W        W19194  16.742   0.503  13.177  0.2275  0.1261 -0.0475
 3386W        W19195  12.625   1.398   5.486 -0.0535 -0.0441  0.5498
 3387W        W19196  13.142  15.078   3.868 -0.0826 -0.2022  0.2238
 3388W        W19197   0.205  11.701  11.211  0.0880  0.1430  0.1770
 3389W        W19198  13.754  18.104  13.531  0.0689 -0.0168  0.0049
 3390W        W19199   5.594   4.569   4.593  0.0520  0.0746 -0.4056
 3391W        W19200  14.100  16.834  15.391  0.0984 -0.1342  0.0083
 3392W        W19201  17.605  16.411  12.777  0.1109 -0.1989 -0.1977
 3393W        W19202   5.538   6.697  10.919  0.0944  0.1655 -0.0652
 3394W        W19203   4.675   0.587   2.902  0.0020 -0.0376  0.1490
 3395W        W19204  16.247  11.952  10.373 -0.2236 -0.2850  0.1390
 3396W        W19205  10.816  10.612  10.260 -0.0429 -0.0695 -0.1123
 3397W        W19206   9.928  15.897   5.278  0.2079  0.1898 -0.1027
 3398W        W19207  10.030   6.045  11.200 -0.2335  0.0576  0.0601
 3399W        W19208   7.705  15.370  10.720  0.1339 -0.0530  0.1011
 3400W        W19209   4.614   1.549  15.541  0.1369  0.0542  0.1938
 3401W        W19210   7.297   8.871   0.170  0.0492 -0.0782  0.2262
 3402W        W19211   8.694   1.908  12.948 -0.5108  0.0075  0.1613
 3403W        W19212   2.447   3.210   3.207  0.1690  0.2039  0.1797
 3404W        W19213   5.245  15.600  11.293  0.1169 -0.2221 -0.2161
 3405W        W19214  10.836  10.691  11.581 -0.2465 -0.1581 -0.2268
 3406W        W19215   8.478   1.717  12.091 -0.2793  0.1223 -0.1357
 3407W        W19216   6.525  11.029   2.954 -0.0854 -0.3322  0.1517
 3408W        W19217   8.588   0.234   1.613  0.1681 -0.1178  0.2999
 3409W        W19218   5.605   8.799  13.128 -0.2019  0.1507 -0.3787
 3410W        W19219  11.862   9.895  13.441  0.2717 -0.2079  0.1183
 3411W        W19220   7.613  11.836   1.444  0.0248 -0.3172  0.2242
 3412W        W19221   7.046   2.575  10.035  0.0413 -0.1164 -0.0427
 3413W        W19222  13.568   2.874  15.463 -0.0861  0.3332 -0.1409
 3414W        W19223  15.915  17.400   4.611  0.0475  0.2862  0.3633
 3415W        W19224   0.530   5.063  10.686 -0.1984 -0.3025  0.2036
 3416W        W19225   1.588  10.659  11.772  0.1121 -0.0020 -0.1719
 3417W        W19226  17.620  15.848  11.985  0.0153  0.1653 -0.0105
 3418W        W19227  15.325  17.480   4.562  0.1056 -0.2830  0.4351
 3419W        W19228   9.273  17.293   6.020  0.0192  0.2588  0.2555
 3420W        W19229   5.055  14.192   5.700 -0.4036  0.0228 -0.1034
 3421W        W19230   3.452  14.118   0.513 -0.0039 -0.1211 -0.1596
 3422W        W19231  11.115   5.024  14.190  0.0795  0.1542 -0.2083
 3423W        W19232   6.686   2.612  15.166  0.0172 -0.2041 -0.2157
 3424W        W19233   0.838  14.375   1.796  0.0720 -0.2367  0.2824
 3425W        W19234   7.992   5.312   3.449  0.0329 -0.1435 -0.0530
 3426W        W19235   8.059   9.279   4.536 -0.1182 -0.0139  0.1368
 3427W        W19236   4.819  15.403   2.071 -0.1938  0.2436 -0.0838
 3428W        W19237  13.008   5.641  12.643 -0.2065  0.4046 -0.2947
 3429W        W19238   1.406   9.378   3.099  0.0308 -0.1982 -0.1190
 3430W        W19239   7.043   3.525   3.306 -0.0679 -0.0573  0.0305
 3431W        W19240   2.665   1.098   1.964  0.1457  0.0926  0.0495
 3432W        W19241  17.321   2.146   1.065  0.0304  0.1756  0.5067
 3433W        W19242  14.714   5.030  13.327  0.2187  0.2188  0.1074
 3434W        W19243   5.341   9.032   1.724 -0.0250 -0.0260  0.1550
 3435W        W19244   6.380   5.127  11.711  0.0763  0.1747  0.1152
 3436W        W19245  12.633   8.537   2.415 -0.0842 -0.2632 -0.2442
 3437W        W19246  14.736  17.777   2.829 -0.0031  0.0018  0.0028
 3438W        W19247   3.091   1.486   5.209  0.1808 -0.1838 -0.3255
 3439W        W19248   7.086   9.180  13.339  0.4233  0.1198  0.0705
 3440W        W19249  16.469  16.379  11.815  0.0540  0.0211  0.0399
 3441W        W19250   4.035  14.010   1.189 -0.1848  0.0996  0.0113
 3442W        W19251  17.395   0.848   1.589  0.1547 -0.1821  0.2319
 3443W        W19252   8.343   9.190   0.309  0.0893 -0.1414  0.1281
 3444W        W19253   5.253   6.676   4.355 -0.1869  0.0407  0.2722
 3445W        W19254  10.174   5.989   4.902 -0.2475 -0.3645 -0.1792
 3446W        W19255  12.938   0.879  13.910  0.0963  0.4650  0.2619
 3447W        W19256   7.785   0.882   0.371 -0.2711 -0.1397 -0.0422
 3448W        W19257   3.551  12.938   3.876  0.1346  0.0171  0.1267
 3449W        W19258  11.251  14.088   4.602  0.1839 -0.0516 -0.0193
 3450W        W19259  15.392   6.252   2.766  0.1475  0.0726 -0.1425
 3451W        W19260  13.983  14.973  14.151  0.2504 -0.0384  0.3116
 3452W        W19261  16.089  14.796  14.023  0.1273  0.3005 -0.1146
 3453W        W19262   6.041  12.488  11.960 -0.0770  0.3204 -0.3280
 3454W        W19263   4.934  16.897  13.542  0.0900 -0.0165  0.1013
 3455W        W19264   9.928   4.321  14.127  0.0230  0.1286  0.1383
 3456W        W19265   4.348   4.488   0.700 -0.1318  0.0909 -0.2512
 3457W        W19266   1.207   4.524   3.279 -0.1694 -0.0996 -0.0863
 3458W        W19267  11.708  12.943  12.767 -0.0418 -0.0443  0.2169
 3459W        W19268   8.580  12.887  12.959  0.0460 -0.3142 -0.0085
 3460W        W19269   7.489   4.262   0.847  0.3211  0.1479 -0.1444
 3461W        W19270   5.566   8.721   4.035  0.1470 -0.1460 -0.2870
 3462W        W19271   2.793  13.070  14.768 -0.1274 -0.0976 -0.6044
 3463W        W19272  12.078   6.713  11.873 -0.0048 -0.0883  0.2215
 3464W        W19273   2.943  17.182   2.062  0.1456 -0.1687 -0.1296
 3465W        W19274  15.278   3.556   2.486  0.0731  0.2927 -0.0297
 3466W        W19275   3.201  13.611   2.323  0.0453 -0.0232  0.0888
 3467W        W19276  12.112   4.633   4.018  0.1491 -0.1487  0.0026
 3468W        W19277   6.604   4.160   2.397  0.0073 -0.1798  0.0978
 3469W        W19278  14.412  13.257   3.522 -0.1027  0.1052  0.2990
 3470W        W19279   1.269   9.627   0.662  0.0812  0.2408  0.2156
 3471W        W19280   3.795  18.600   5.906 -0.3389  0.1202 -0.0015
 3472W        W19281   7.393  12.219  12.323  0.0097  0.2031  0.2386
 3473W        W19282  11.923  11.517  11.149  0.2012  0.1275 -0.0072
 3474W        W19283  13.005   2.368  14.017 -0.2455 -0.0399 -0.0667
 3475W        W19284  16.474  10.547  14.312  0.1972 -0.3270  0.2981
 3476W        W19285   0.224   7.235  13.559  0.2700 -0.0960 -0.0082
 3477W        W19286   3.004  18.591  13.113 -0.1751 -0.2018  0.1363
 3478W        W19287  13.677  13.683   4.510  0.2659 -0.0957 -0.2265
 3479W        W19288   0.683   6.526  10.298  0.0229  0.0667 -0.1771
 3480W        W19289   5.550  17.095  10.549  0.2054  0.3297  0.2285
 3481W        W19290   7.402  12.393   1.558 -0.1543  0.0208 -0.0306
 3482W        W19291   1.267   0.830   2.645  0.0149  0.2016 -0.0936
 3483W        W19292  16.801  10.088  13.512 -0.4536  0.0719  0.1129
 3484W        W19293  12.323   2.033   2.240 -0.1510  0.0099 -0.0168
 3485W        W19294   2.915   5.460   3.856 -0.0148 -0.1324  0.0627
 3486W        W19295  11.475   1.001   5.914 -0.0867 -0.3890 -0.2547
 3487W        W19296   2.950   3.087   2.788 -0.1959 -0.1964 -0.0304
 3488W        W19297  18.030  11.256  13.612  0.0579  0.0378 -0.0790
 3489W        W19298  14.146  10.309   2.714  0.1346 -0.0743  0.1008
 3490W        W19299  18.431   9.851   0.359  0.0788  0.3638 -0.2664
 3491W        W19300  10.731   1.603   3.029  0.4630  0.0323 -0.3106
 3492W        W19301  18.039  13.526  12.569 -0.1566 -0.0634  0.0701
 3493W        W19302  14.820  13.332  15.479 -0.0776  0.0332  0.2404
 3494W        W19303   8.076   4.833   1.468  0.1666  0.2741 -0.0411
 3495W        W19304   1.915  11.110  14.509 -0.1934  0.1911 -0.0381
 3496W        W19305   1.401  12.211  13.245  0.1807  0.1260 -0.2566
 3497W        W19306   7.778   7.618   4.194  0.2778 -0.1279 -0.0493
 3498W        W19307  14.764   2.767   4.358  0.1191  0.2286  0.0605
 3499W        W19308  18.396   5.868  10.732 -0.1299 -0.1698 -0.1988
 3500W        W19309  10.224  13.873  12.994  0.0602 -0.2052  0.0520
 3501W        W19310   1.297  14.914  13.627  0.4229 -0.1750 -0.0780
 3502W        W19311   3.544  14.224   2.146 -0.1051 -0.0935  0.0397
 3503W        W19312   5.864   2.243  10.638 -0.1442 -0.3618 -0.0314
 3504W        W19313  18.428  18.250   0.972 -0.1426  0.0153  0.3011
 3505W        W19314  17.948  10.625   1.098 -0.1344 -0.1209 -0.0795
 3506W        W19315   2.429  12.513   2.904  0.1391 -0.0296  0.0939
 3507W        W19316   4.350  18.280   4.163  0.1275 -0.2447  0.0023
 3508W        W19317   2.331  12.791   3.959 -0.1517  0.0767  0.0355
 3509W        W19318  14.404  15.048  13.488  0.2689 -0.6597 -0.3178
 3510W        W19319   1.343   1.959  14.409 -0.2067  0.0662  0.0460
 3511W        W19320  10.883  15.433   2.048 -0.1752  0.0911  0.1917
 3512W        W19321   4.176   7.799  10.888 -0.1295 -0.1412  0.1815
 3513W        W19322   9.990   8.927   5.091 -0.2148  0.1489 -0.0372
 3514W        W19323  16.803  12.035  12.660  0.0133 -0.0929 -0.1455
 3515W        W19324  12.895  11.424   1.114 -0.2009  0.2205  0.0239
 3516W        W19325  17.423  16.396  14.167  0.2504 -0.2011 -0.2774
 3517W        W19326   7.904  14.994  12.776 -0.0124 -0.2154 -0.0081
 3518W        W19327  10.756  13.370  11.845  0.0563 -0.0034  0.1658
 3519W        W19328   5.304  18.391   4.014 -0.3584 -0.0297 -0.1655
 3520W        W19329   5.563   9.872   3.427  0.0937  0.1162 -0.1724
 3521W        W19330   2.411   9.837  12.252 -0.1929 -0.0657 -0.0442
 3522W        W19331  13.547  13.828   0.199  0.1118 -0.1240 -0.0089
 3523W        W19332   5.886  15.400  13.729  0.0937  0.0490 -0.2275
 3524W        W19333   4.342  13.888   0.652  0.0551 -0.1412 -0.1176
 3525W        W19334   5.390   7.591  14.803 -0.4016 -0.0298 -0.0686
 3526W        W19335   3.367  17.327   1.905  0.3958 -0.2488 -0.2020
 3527W        W19336   5.663  12.151  14.745 -0.0719  0.2376  0.1323
 3528W        W19337  11.635   1.561   3.547  0.0695 -0.4967  0.0473
 3529W        W19338  16.977  16.668  14.187 -0.1431 -0.0616  0.1146
 3530W        W19339  15.282   9.573   3.756 -0.1296  0.2509 -0.2724
 3531W        W19340   6.848  16.773   3.113 -0.1592  0.0571  0.1738
 3532W        W19341   6.960   2.918   4.005  0.1215  0.1592  0.1777
 3533W        W19342   9.142  10.782   1.390 -0.2009  0.1991 -0.1309
 3534W        W19343  16.326  14.032  14.716  0.3162  0.1795  0.1189
 3535W        W19344   2.815  11.043  15.106  0.0397  0.0045 -0.1544
 3536W        W19345  13.821   8.990   2.878  0.2734 -0.0250 -0.1087
 3537W        W19346   0.489   3.082   3.486  0.1527  0.1440 -0.3576
 3538W        W19347  12.614   3.842   5.218  0.1234 -0.0631  0.0265
 3539W        W19348  17.414   0.946  10.730 -0.2310 -0.1417  0.0245
 3540W        W19349  13.854   1.227   4.640 -0.2756 -0.1109  0.0565
 3541W        W19350   8.528   8.806  10.505 -0.1908  0.1752  0.2538
 3542W        W19351  10.186  17.522  14.964  0.0779  0.0465 -0.2973
 3543W        W19352  15.946  18.325  14.012 -0.1803 -0.1771 -0.0531
 3544W        W19353  17.286   1.570   1.200  0.4638 -0.0481 -0.0918
 3545W        W19354   8.117   8.865  12.071 -0.0892 -0.0406 -0.0400
 3546W        W19355   2.805  16.485   0.980  0.0245 -0.0258 -0.0358
 3547W        W19356  11.514  16.192  10.597  0.2897 -0.3331  0.2252
 3548W        W19357   8.302   1.471   5.396  0.0485  0.0285 -0.3772
 3549W        W19358   7.840  17.045  14.619  0.0763  0.0148 -0.0219
 3550W        W19359   3.626   8.274   4.229  0.3799 -0.0372  0.0269
 3551W        W19360   5.325  15.855   3.931  0.0809  0.1443 -0.1822
 3552W        W19361   0.792   2.469   3.312 -0.0593 -0.0372 -0.1024
 3553W        W19362   7.649   4.148   0.391 -0.0990 -0.0727  0.0971
 3554W        W19363  10.851  11.684  10.980  0.0318 -0.2160 -0.0243
 3555W        W19364  16.538   4.130   1.902 -0.1477 -0.0764 -0.0373
 3556W        W19365  10.970   7.423  12.109  0.1780  0.1178 -0.0693
 3557W        W19366  18.301  17.217   3.950 -0.0643  0.1423  0.1733
 3558W        W19367   5.710  18.564   4.279 -0.0827 -0.1054 -0.3052
 3559W        W19368  15.018   2.192   0.710  0.1517  0.1621 -0.0202
 3560W        W19369  16.577   6.770   4.599 -0.0874  0.0490 -0.0322
 3561W        W19370   8.500  18.092  10.268  0.0308  0.0308 -0.0535
 3562W        W19371  17.633  15.219   3.475 -0.1517 -0.1340 -0.0612
 3563W        W19372   6.728   1.721   3.405 -0.1780  0.4462 -0.1306
 3564W        W19373  13.800   2.607   3.950 -0.0194 -0.0115  0.0821
 3565W        W19374   7.236  16.811  13.263  0.2029 -0.0396  0.2955
 3566W        W19375   4.444  12.857  12.619  0.0982 -0.1039  0.1433
 3567W        W19376  12.392  10.850   5.102 -0.1951 -0.0907  0.2821
 3568W        W19377   1.166   2.145   3.217 -0.1034 -0.4086 -0.0714
 3569W        W19378   5.383   0.567  13.143 -0.1838 -0.2819  0.0688
 3570W        W19379  14.630   7.467  11.875 -0.0177 -0.0295  0.1540
 3571W        W19380   8.762   5.238  14.737 -0.2039  0.0017 -0.0697
 3572W        W19381  16.750   6.713   0.873  0.1767 -0.0049 -0.0811
 3573W        W19382   3.376  11.268  10.922 -0.0729 -0.1144  0.2042
 3574W        W19383  13.541   0.334  13.210  0.2192  0.1575  0.1535
 3575W        W19384  18.618   3.788  14.538  0.1996 -0.0392  0.0473
 3576W        W19385  14.605  18.072   3.492  0.1261 -0.0549  0.3123
 3577W        W19386  18.287   2.094   5.558  0.0879 -0.0403 -0.1992
 3578W        W19387   3.526  15.167  12.389  0.0650  0.1850 -0.4853
 3579W        W19388  12.659   2.306   0.503 -0.1696 -0.0945 -0.0481
 3580W        W19389   7.260   1.658   5.499 -0.3829 -0.3093 -0.0290
 3581W        W19390   6.865  18.404  11.543 -0.1485 -0.1702  0.0998
 3582W        W19391  18.049   9.687  14.841  0.2414 -0.0186 -0.1973
 3583W        W19392   8.029   7.565   1.317 -0.0411 -0.0111  0.1931
 3584W        W19393  10.248   7.487   1.265 -0.0196  0.0909  0.0651
 3585W        W19394   5.363  14.175   2.501 -0.3870 -0.0088 -0.1782
 3586W        W19395   9.331   5.476   1.289 -0.0835 -0.2366  0.1676
 3587W        W19396   5.023   1.166   3.439 -0.2233 -0.1145 -0.4811
 3588W        W19397  18.630  13.611   1.874  0.1027  0.1378 -0.0057
 3589W        W19398   5.171   0.850  12.758  0.0271 -0.3087  0.0259
 3590W        W19399   5.769  18.337   4.904 -0.4930  0.4988 -0.1706
 3591W        W19400  13.305  12.974   5.136 -0.0935 -0.2328  0.1481
 3592W        W19401   1.824   9.774  10.662 -0.1431  0.0373 -0.0868
 3593W        W19402   9.796   3.351   5.333  0.3277 -0.3193 -0.0063
 3594W        W19403  13.721  17.838  11.261  0.0549  0.1337 -0.3755
 3595W        W19404  10.026   0.870  11.865 -0.0609 -0.0003  0.5383
 3596W        W19405  10.539  15.104  15.347 -0.0206  0.3822  0.2036
 3597W        W19406   4.423   9.760   2.516 -0.0292 -0.4835  0.2032
 3598W        W19407   5.960   7.396  10.941 -0.1156  0.1108 -0.1766
 3599W        W19408   7.853   2.665   1.116  0.1152  0.0163  0.0004
 3600W        W19409   4.463   0.305   4.999  0.1790  0.0425  0.0259
 3601W        W19410   9.270   2.919   0.781  0.3512  0.5625 -0.0390
 3602W        W19411  11.301   7.667   2.075  0.1005 -0.2804  0.1656
 3603W        W19412   2.743   8.791  10.283  0.0503 -0.1092 -0.0125
 3604W        W19413  18.316   5.121  10.733 -0.4074  0.0299  0.1165
 3605W        W19414   3.742  11.969  14.907 -0.0862  0.0075 -0.1752
 3606W        W19415  16.711   3.966  12.737 -0.1502  0.2215  0.0812
 3607W        W19416  10.703   7.664   3.451  0.0903  0.0639 -0.2197
 3608W        W19417   3.488   5.155  12.041  0.0254  0.0520 -0.2353
 3609W        W19418  12.427  11.029  15.549  0.1101  0.1355  0.2300
 3610W        W19419   5.585   1.428  15.473 -0.1167 -0.0145  0.2549
 3611W        W19420   5.834   2.796  15.269  0.2608  0.0454 -0.1194
 3612W        W19421   0.755  12.932   0.569  0.0883  0.0471  0.1406
 3613W        W19422  18.220   2.566  10.444  0.0285 -0.0331  0.0518
 3614W        W19423   4.665   0.699   5.261  0.1311 -0.1709 -0.1372
 3615W        W19424  15.847   7.981   0.705  0.0477  0.1188 -0.0945
 3616W        W19425   8.204   3.010  14.555 -0.4362  0.3673  0.0750
 3617W        W19426   7.534   2.517  12.756 -0.0434 -0.0016 -0.1528
 3618W        W19427  11.188  16.414  15.467 -0.2285 -0.2632 -0.0358
 3619W        W19428   3.238  14.320  14.847  0.0724  0.2015 -0.0649
 3620W        W19429  16.919  17.296  11.689  0.0742  0.1555 -0.1327
 3621W        W19430  18.593   8.361   4.646  0.1005 -0.1564 -0.1401
 3622W        W19431  13.499   7.134  15.295 -0.0915  0.1679  0.1307
 3623W        W19432   0.533  10.288   4.859  0.0256  0.0721  0.0795
 3624W        W19433  15.698  13.627  10.691  0.0901 -0.1415 -0.3055
 3625W        W19434  12.223   5.742   0.936 -0.1013  0.2060 -0.1606
 3626W        W19435   5.923  13.183  10.584  0.0765 -0.0922  0.0127
 3627W        W19436   5.662  11.649   2.032 -0.0190  0.2855 -0.2511
 3628W        W19437  16.996  18.159   3.421 -0.1174  0.1018 -0.2026
 3629W        W19438  11.207  12.803  11.576  0.0566 -0.3603  0.0036
 3630W        W19439  16.932  11.748   3.109  0.1003 -0.1859 -0.1226
 3631W        W19440  12.318  15.615   0.103 -0.3741 -0.2629  0.1697
 3632W        W19441   5.958  17.924   3.025 -0.1018 -0.0477  0.4698
 3633W        W19442   6.718   9.499   1.241  0.1433 -0.0122 -0.5239
 3634W        W19443   6.508  16.992   4.828 -0.0696  0.1398 -0.2604
 3635W        W19444   2.568  16.051   1.125 -0.0988  0.2719 -0.0820
 3636W        W19445   3.250   6.530  15.129 -0.0624 -0.2096  0.2059
 3637W        W19446   3.911   9.498   3.325 -0.1043  0.3596 -0.1043
 3638W        W19447  15.240  13.326  12.204 -0.1241  0.0810 -0.4146
 3639W        W19448   0.732   0.664   1.019  0.0719  0.2034 -0.1073
 3640W        W19449  15.374   3.219  15.104 -0.0434  0.2586 -0.4332
 3641W        W19450  13.643  10.417   4.310  0.3879  0.1161 -0.0048
 3642W        W19451  11.762  14.970  14.453 -0.0270 -0.0879 -0.0507
 3643W        W19452  16.424   3.084   0.841 -0.3744  0.0569  0.2472
 3644W        W19453  14.789   3.830  15.471  0.0168 -0.2240 -0.2156
 3645W        W19454  17.807   5.807  11.610 -0.1576 -0.0904 -0.2711
 3646W        W19455   8.599  14.382  11.371  0.1885 -0.2057  0.0783
 3647W        W19456   6.220  16.173  13.314  0.1781  0.1203  0.1149
 3648W        W19457  10.441   6.202   2.452  0.1630  0.1431  0.2057
 3649W        W19458  14.924   5.853  11.273 -0.2169  0.0973 -0.0810
 3650W        W19459   6.251  10.446   2.136 -0.0425  0.1723  0.2072
 3651W        W19460   8.963   7.071  15.305  0.2235 -0.0149 -0.3026
 3652W        W19461  12.398   7.536   0.529 -0.1974 -0.1038  0.0786
 3653W        W19462   2.961   1.704   5.810 -0.2259  0.1247  0.2115
 3654W        W19463  14.470  10.226   5.231  0.1741 -0.4161  0.3180
 3655W        W19464  14.540  15.409   4.697  0.0105 -0.2491 -0.3374
 3656W        W19465  12.133  18.330   0.369 -0.2446  0.2732  0.0430
 3657W        W19466   1.122  15.700   5.469 -0.0410  0.3006 -0.0665
 3658W        W19467  17.365  17.930  14.875 -0.0702 -0.0220 -0.0328
 3659W        W19468  15.977   5.189  14.511 -0.0734 -0.1904 -0.3166
 3660W        W19469   9.217   6.150  14.424  0.0534 -0.0764 -0.1608
 3661W        W19470  12.277   2.441  10.926  0.4811  0.2053 -0.0138
 3662W        W19471   5.414  12.264  13.795  0.1943 -0.0781  0.0836
 3663W        W19472   8.282   0.477   2.104  0.0372 -0.0153  0.0403
 3664W        W19473  12.600  13.823  12.433  0.1023  0.0311 -0.2192
 3665W        W19474  18.327   5.119   0.645  0.1953  0.0902  0.0266
 3666W        W19475   3.843   1.144   3.885  0.0733  0.1986 -0.0901
 3667W        W19476   7.091  13.638  11.582  0.0429 -0.2822  0.1199
 3668W        W19477   5.338  14.614  14.302 -0.0509 -0.1080  0.2548
 3669W        W19478   5.181   6.986  15.386 -0.5082 -0.0633 -0.0260
 3670W        W19479  16.213  14.187  15.587 -0.1576  0.1565  0.1766
 3671W        W19480  17.479  15.905   5.661 -0.0061  0.0724 -0.3135
 3672W        W19481   8.861  16.567   0.927 -0.0788  0.0457  0.3604
 3673W        W19482   4.240  17.090   3.657 -0.2694  0.1872 -0.1858
 3674W        W19483  14.206   5.523   4.626  0.0593 -0.2690  0.2043
 3675W        W19484  13.641  16.196   3.356 -0.2696 -0.2986 -0.1119
 3676W        W19485  13.885   6.937  13.353 -0.2578  0.1068  0.0513
 3677W        W19486   8.315   4.573  15.452  0.2693 -0.0435  0.0989
 3678W        W19487   3.268   2.306   1.169  0.0947  0.0933 -0.1479
 3679W        W19488  17.537  18.072   4.638 -0.0308 -0.0058  0.0886
 3680W        W19489   8.358  10.889  13.628 -0.2209 -0.3445  0.2993
 3681W        W19490   5.005   1.317   1.278  0.2717 -0.1201  0.0728
 3682W        W19491   9.422  10.203   2.173  0.2284 -0.0817 -0.2329
 3683W        W19492  16.446  16.440  10.857  0.1029  0.2187 -0.0803
 3684W        W19493   3.023   6.554   1.737 -0.3002 -0.1368  0.1344
 3685W        W19494  13.005   6.370   0.827 -0.2724 -0.1488  0.0758
 3686W        W19495  11.015   0.051  12.762 -0.0869 -0.1025 -0.0026
 3687W        W19496  16.597  11.857  13.644 -0.3143  0.0581  0.0255
 3688W        W19497  11.395   8.234  11.167 -0.2627 -0.0103  0.1192
 3689W        W19498  10.920   6.828   5.130  0.5832 -0.2611  0.0401
 3690W        W19499  10.850   1.018   4.501  0.0644  0.0885 -0.0548
 3691W        W19500   6.259   0.184   0.211 -0.0177 -0.4340  0.1466
 3692W        W19501  14.659  11.516   5.234  0.1137  0.0257  0.1978
 3693W        W19502   3.572  13.531  14.572  0.0135 -0.0982  0.2923
 3694W        W19503  11.615   9.493   1.800  0.0340  0.0355  0.0803
 3695W        W19504  16.725   4.294  13.753  0.2769  0.1550 -0.1735
 3696W        W19505  10.326   5.893  13.450  0.2510 -0.1528 -0.3291
 3697W        W19506  14.658   3.768   4.731 -0.0780  0.3525 -0.0907
 3698W        W19507   6.741  13.875  14.668  0.0730 -0.0761 -0.1758
 3699W        W19508  11.036  16.949  13.289 -0.0573 -0.1122  0.3792
 3700W        W19509   3.706  12.567  13.482 -0.0325  0.3082 -0.4144
 3701W        W19510  12.782  12.603  14.572  0.0451 -0.0906  0.0848
 3702W        W19511   0.291   9.133  14.010  0.0403  0.0541  0.1376
 3703W        W19512  15.754   0.998  13.044  0.0393  0.2137  0.2172
 3704W        W19513  17.863   1.388   5.260  0.2334  0.0647 -0.1799
 3705W        W19514   1.940   0.369   3.921 -0.3440 -0.0586  0.1007
 3706W        W19515   2.425   9.556  13.877  0.0169 -0.1771 -0.0681
 3707W        W19516   1.751  14.474  14.902 -0.0606  0.0641 -0.2993
 3708W        W19517   5.392  16.414  13.479  0.1441  0.1537  0.2694
 3709W        W19518   8.893   1.872   3.517 -0.1349 -0.3814  0.1406
 3710W        W19519   8.578   9.715  11.134 -0.4633  0.0737 -0.0134
 3711W        W19520  10.201   1.993   0.244 -0.1049  0.0277 -0.1024
 3712W        W19521   6.797  14.404   2.615  0.2576 -0.2564  0.0638
 3713W        W19522  16.250  17.467   4.989 -0.0137 -0.2559  0.0156
 3714W        W19523  10.105   4.701  15.193  0.0293  0.4550  0.0782
 3715W        W19524  16.764  11.612   0.688 -0.4914 -0.3456 -0.2833
 3716W        W19525  13.494  17.527   1.466 -0.0975  0.0933 -0.3362
 3717W        W19526  17.286   7.884  10.641  0.1821 -0.3763 -0.0688
 3718W        W19527   2.724   9.971   2.137  0.2213  0.2910 -0.0619
 3719W        W19528  12.281  12.329   2.441  0.0062  0.0934 -0.1115
 3720W        W19529  11.857  18.649   3.323  0.1246  0.0433  0.1018
 3721W        W19530   5.739   0.274   0.336 -0.1092  0.2768 -0.1068
 3722W        W19531  11.470   3.084  13.488 -0.0306  0.2274  0.0802
 3723W        W19532  17.399   3.572   0.155  0.1623 -0.1433  0.1920
 3724W        W19533  16.407   1.742   4.060  0.0003 -0.1060  0.0688
 3725W        W19534   7.219  16.149   5.395  0.0516 -0.0898 -0.0239
 3726W        W19535   7.457   6.575  12.697  0.1263  0.0430  0.2087
 3727W        W19536   3.326  10.145  12.291 -0.2076  0.0432  0.0139
 3728W        W19537  15.224  12.944   2.975 -0.1269 -0.2121 -0.2129
 3729W        W19538  14.011  14.403  15.211 -0.2187 -0.0149  0.1950
 3730W        W19539   1.152   0.172  15.562  0.0638  0.4420 -0.0571
 3731W        W19540  11.839  14.336  13.856 -0.2173  0.2815  0.1662
 3732W        W19541  13.206  15.554   4.026  0.2103 -0.0375 -0.0343
 3733W        W19542   8.900   1.947  11.253 -0.1698  0.0146 -0.3646
 3734W        W19543  10.546   5.396   0.083  0.3184 -0.0506 -0.0852
 3735W        W19544   4.998   1.762   0.856 -0.0427 -0.2630 -0.0467
 3736W        W19545  11.959  13.806  11.184  0.1522  0.1711  0.1658
 3737W        W19546  11.116   7.164  10.933 -0.2188 -0.0121  0.2089
 3738W        W19547  14.046  13.112  12.780  0.0913  0.0146 -0.0436
 3739W        W19548   3.440  14.525   5.566 -0.0458 -0.5629  0.0214
 3740W        W19549  11.456   9.607   1.347  0.0555 -0.3188 -0.3231
 3741W        W19550   4.205  10.624  12.281 -0.1097 -0.3012  0.4689
 3742W        W19551  12.923  18.410   0.361 -0.2153  0.2784  0.1293
 3743W        W19552   3.151   0.626   4.146 -0.1060 -0.2125 -0.2478
 3744W        W19553  10.780   5.873   4.160 -0.0087  0.1023 -0.2756
 3745W        W19554   9.034  11.171   4.227 -0.0905 -0.1442 -0.0848
 3746W        W19555   5.657   3.964   4.525  0.0484  0.3096  0.0753
 3747W        W19556  10.977   6.807  14.641  0.0508  0.1559 -0.3631
 3748W        W19557  13.477   1.788   0.508  0.2196  0.0311  0.3461
 3749W        W19558  10.810   9.431   1.471 -0.0748 -0.1582 -0.1770
 3750W        W19559   6.310   6.047  10.858 -0.3540  0.0945  0.1493
 3751W        W19560   0.164   9.995  13.804  0.2182  0.2488 -0.1131
 3752W        W19561  12.953   1.877   0.448 -0.1040 -0.0305 -0.2418
 3753W        W19562   3.773   3.127   1.949  0.1656  0.3611 -0.0296
 3754W        W19563  15.682   3.563  14.722 -0.1617  0.1362 -0.0455
 3755W        W19564  15.467   7.252   2.534 -0.2336 -0.0862 -0.2140
 3756W        W19565  17.783  12.078   1.628  0.0918  0.1618 -0.1218
 3757W        W19566  14.874  16.676  13.118 -0.1618 -0.1383  0.0532
 3758W        W19567   3.547   8.682  13.770 -0.0566  0.0888 -0.0816
 3759W        W19568  16.913   7.122  11.260  0.1436  0.2712  0.0584
 3760W        W19569   5.589  17.157  11.523 -0.0947  0.0832  0.1554
 3761W        W19570  14.265   6.522  14.150  0.1753 -0.0030  0.1508
 3762W        W19571  18.369   2.993   2.923 -0.1586  0.1593  0.0119
 3763W        W19572   8.459  15.031   4.134 -0.3230 -0.3136  0.0793
 3764W        W19573   3.967  12.428   2.998  0.0757 -0.0259  0.1129
 3765W        W19574   6.491   1.022   1.434 -0.0677  0.0483  0.1605
 3766W        W19575   2.942  10.795  11.531 -0.1353  0.1851 -0.4803
 3767W        W19576   7.706   9.928  11.843 -0.0560  0.0848  0.0418
 3768W        W19577   2.642  10.543  12.658 -0.0150  0.1890 -0.2441
 3769W        W19578  17.702   1.874  11.751  0.2852  0.2778  0.3601
 3770W        W19579   0.908  16.187  14.653 -0.1604 -0.0872 -0.0078
 3771W        W19580   2.250  10.371  13.309  0.3022 -0.0999  0.2248
 3772W        W19581  17.800   2.221   1.301  0.2301  0.0936  0.0512
 3773W        W19582   4.266  17.529  13.731  0.1020  0.3046 -0.0028
 3774W        W19583   0.614   3.736   2.005  0.1409  0.0145  0.1666
 3775W        W19584   7.615   8.564  10.855 -0.0928 -0.0306  0.1579
 3776W        W19585   7.340  12.808  14.084  0.1768  0.0160 -0.0750
 3777W        W19586   4.712   7.633  11.075 -0.0834 -0.3343  0.0998
 3778W        W19587  15.016   8.479   5.251 -0.1242 -0.1779  0.1008
 3779W        W19588  16.358  14.728   1.872 -0.0559  0.0965  0.3867
 3780W        W19589   0.279  12.484   2.104 -0.0968 -0.0580 -0.1350
 3781W        W19590  12.724   5.140   0.185 -0.1585  0.0639  0.1630
 3782W        W19591  13.415  11.053   1.653  0.0808 -0.0956  0.0126
 3783W        W19592  12.559   8.461   2.905 -0.1574 -0.0242  0.1900
 3784W        W19593   2.003  13.385   4.884 -0.1494 -0.1308  0.1313
 3785W        W19594   3.651  17.465  13.211  0.2378 -0.0717 -0.0127
 3786W        W19595  17.646   2.589  14.879 -0.1886 -0.1540  0.1679
 3787W        W19596  12.224   6.714  13.015  0.1718  0.1536  0.0121
 3788W        W19597   3.880   9.954   3.149 -0.1005  0.1280  0.0116
 3789W        W19598  16.477   9.742  11.405 -0.0781  0.0083 -0.1434
 3790W        W19599  13.743   8.631  14.024 -0.0948  0.0552 -0.1661
 3791W        W19600  11.347   8.011  11.627  0.2212  0.4468  0.0973
 3792W        W19601   2.614   6.967  10.317 -0.0479 -0.0498 -0.1527
 3793W        W19602  15.438  16.727  15.196 -0.3865 -0.0644  0.1165
 3794W        W19603   0.391  15.519   1.171 -0.4613 -0.2231 -0.0805
 3795W        W19604  15.208   9.827  13.297 -0.1242 -0.0060 -0.4305
 3796W        W19605   8.251   2.532   2.617  0.2385 -0.1118  0.0780
 3797W        W19606  17.793  17.248   2.270 -0.1307 -0.0905  0.0527
 3798W        W19607  15.622  18.339  13.555  0.1923 -0.2188 -0.1251
 3799W        W19608   4.974   6.901  11.761  0.0127 -0.1380 -0.0304
 3800W        W19609  14.166  17.176  12.737  0.0913 -0.1836  0.0682
 3801W        W19610  14.642  11.073   1.198  0.1046 -0.0209 -0.0662
 3802W        W19611  15.959  15.255  11.216 -0.3152  0.0112 -0.1534
 3803W        W19612  12.245   6.487  14.150  0.2863 -0.2469 -0.0206
 3804W        W19613   9.908   7.278  13.782  0.0102  0.0162 -0.2070
 3805W        W19614  16.746  18.180   5.579 -0.3431  0.0480 -0.0626
 3806W        W19615   1.668  10.185  10.959  0.1607  0.0092  0.1778
 3807W        W19616  10.595   2.128   5.157  0.2232 -0.1888  0.1233
 3808W        W19617  12.877  15.318   0.465  0.3060 -0.1031  0.0735
 3809W        W19618  16.618  16.360  13.091 -0.3578 -0.1845  0.0131
 3810W        W19619  13.658   1.495   3.307 -0.0286  0.0683  0.3517
 3811W        W19620  13.041   3.213   6.212  0.1595 -0.0091  0.3256
 3812W        W19621   3.433   5.207  11.045  0.2078 -0.1885 -0.1278
 3813W        W19622   3.769   8.506   3.789  0.1431 -0.2390 -0.1009
 3814W        W19623   0.430   3.301   3.946 -0.2145 -0.2576 -0.1774
 3815W        W19624  11.339   5.219   5.261 -0.0409 -0.0364  0.2094
 3816W        W19625  15.462   1.806  13.932  0.2974  0.0417 -0.0094
 3817W        W19626  13.168   2.377   4.972 -0.1665  0.0244 -0.0048
 3818W        W19627   1.452  14.603  14.124  0.1584 -0.2879  0.1633
 3819W        W19628   4.712  11.472  11.012  0.1036 -0.0849  0.1209
 3820W        W19629  15.363   3.723  12.814  0.0611 -0.0790 -0.1639
 3821W        W19630   2.989   5.211  11.807  0.0937  0.2838 -0.0193
 3822W        W19631  11.938   0.692  12.089  0.0294 -0.1141  0.2722
 3823W        W19632   1.345  14.354  15.192 -0.2082 -0.0635 -0.1312
 3824W        W19633   3.255  16.273   0.275 -0.0295  0.2370 -0.1631
 3825W        W19634  13.290  15.039   2.120 -0.0068  0.2588  0.0466
 3826W        W19635   1.211   2.096  13.681  0.0883  0.1666  0.0511
 3827W        W19636  10.098  15.756  12.216  0.1384 -0.0082 -0.2001
 3828W        W19637  13.280  14.163  15.553 -0.2120 -0.0856  0.0211
 3829W        W19638   7.285  10.491   1.833 -0.0629 -0.0287 -0.4024
 3830W        W19639  10.114   9.165   2.005  0.1046  0.0053 -0.0844
 3831W        W19640   7.200   9.431   4.359 -0.2110 -0.0105  0.2704
 3832W        W19641  15.372   6.809  12.329 -0.0935 -0.1732 -0.1275
 3833W        W19642   7.570   6.097   1.891 -0.0685  0.0715 -0.0197
 3834W        W19643  10.083  15.510   4.423 -0.1584  0.0502  0.1239
 3835W        W19644   4.755  12.954  10.764 -0.0970  0.3770  0.0441
 3836W        W19645   2.902   6.089  11.240  0.0974  0.1734  0.0726
 3837W        W19646  15.221  16.310  10.785 -0.1633 -0.5486  0.0471
 3838W        W19647   4.115  14.346  10.106  0.1374 -0.0265  0.2458
 3839W        W19648   0.637  12.150  14.707 -0.3873 -0.2234  0.0850
 3840W        W19649  14.746   9.906   1.896  0.2115  0.1908 -0.1183
 3841W        W19650  15.745   7.750   2.242  0.0640 -0.0033  0.1332
 3842W        W19651   5.183  10.883   5.103  0.0914  0.0355  0.0696
 3843W        W19652  11.741  11.789   3.602 -0.0039  0.3470 -0.0171
 3844W        W19653  12.737  16.913  14.637  0.1736 -0.1983 -0.1479
 3845W        W19654   6.999  17.956  13.806 -0.1344  0.3802 -0.1935
 3846W        W19655   8.192  13.901   0.901  0.2283 -0.0770  0.1465
 3847W        W19656   8.836   6.647   3.630  0.0080  0.0037 -0.1249
 3848W        W19657   1.511  16.919  15.427  0.1100 -0.0268 -0.1190
 3849W        W19658   1.396   6.342   4.271 -0.2911 -0.0215  0.0494
 3850W        W19659  14.009   8.127   0.528 -0.2278  0.1338 -0.3522
 3851W        W19660   9.346   6.389  15.604 -0.1997  0.0543 -0.2919
 3852W        W19661   5.992   6.961  15.150 -0.1694 -0.1191  0.2258
 3853W        W19662  10.645   9.920   3.895  0.1925 -0.1674 -0.0132
 3854W        W19663   7.435  12.169  14.407  0.0253 -0.0364 -0.0429
 3855W        W19664   5.839   3.903   2.393 -0.2143 -0.1354 -0.1142
 3856W        W19665  14.932  11.560  10.950  0.0142 -0.1021 -0.0297
 3857W        W19666   7.601   6.707   4.259 -0.1056  0.2043 -0.2120
 3858W        W19667   8.679  17.869  10.698 -0.0216 -0.0672  0.0425
 3859W        W19668   9.091   7.145  13.102  0.4003 -0.2080 -0.2253
 3860W        W19669   0.719   4.341   0.487 -0.0059  0.0812 -0.0795
 3861W        W19670  11.250  13.391  10.617  0.0455  0.1827 -0.0932
 3862W        W19671  10.822   3.698  13.163  0.3829  0.0600 -0.1303
 3863W        W19672   4.955   8.392   4.683 -0.1588 -0.2723  0.0363
 3864W        W19673  16.955   0.049   1.411  0.2825 -0.0153 -0.0611
 3865W        W19674   2.958  11.853  12.672  0.4220  0.1528 -0.2583
 3866W        W19675   1.259  11.256  15.217  0.1632  0.3962 -0.0249
 3867W        W19676   2.431  13.261   4.652  0.0583  0.0581 -0.1876
 3868W        W19677  17.143  13.246  11.380  0.4296  0.0423  0.0849
 3869W        W19678  13.977  10.568   9.855  0.0374  0.3299 -0.2380
 3870W        W19679   0.085   7.292   3.505  0.1383 -0.2549 -0.0469
 3871W        W19680   3.624   7.058  12.672 -0.1554 -0.0189  0.2849
 3872W        W19681  11.430   6.187   4.039 -0.0090  0.1764  0.2593
 3873W        W19682   3.665  14.664  11.522  0.0745  0.1820  0.0805
 3874W        W19683   0.618   2.031   4.758 -0.2236  0.1325  0.0791
 3875W        W19684  16.721   6.290  12.044 -0.2675  0.1661 -0.2989
 3876W        W19685  11.543  17.468   2.485  0.0547 -0.1758  0.1095
 3877W        W19686  17.048   6.380   2.772  0.0716  0.0150  0.1144
 3878W        W19687   6.903   7.743   4.266 -0.0745  0.1333 -0.0513
 3879W        W19688   1.235   0.032   3.091  0.0130  0.1107  0.0644
 3880W        W19689   1.650   9.188  13.898 -0.0415 -0.0922 -0.3358
 3881W        W19690   6.488   6.840  14.289  0.0845 -0.1184 -0.0217
 3882W        W19691   2.466   1.652  13.168 -0.1529 -0.0682 -0.2928
 3883W        W19692   1.331   6.985   1.645 -0.0371  0.0128 -0.3000
 3884W        W19693   5.780   8.349   2.340  0.0137  0.0511 -0.0874
 3885W        W19694   2.892  10.834  14.123  0.0770  0.0275 -0.3353
 3886W        W19695   9.035  16.554  13.871 -0.0412 -0.0757  0.1290
 3887W        W19696  16.373  16.082   4.546 -0.1793 -0.2656  0.1931
 3888W        W19697   8.875  14.761   3.061 -0.2911 -0.2679 -0.0264
 3889W        W19698   4.138   4.396   2.013 -0.1290  0.0023 -0.2104
 3890W        W19699   4.939   5.470  11.980  0.0635 -0.1172 -0.1172
 3891W        W19700  10.823   6.437  14.372 -0.4272 -0.0608  0.0207
 3892W        W19701  10.953   5.280   4.969 -0.2247 -0.2150  0.1501
 3893W        W19702   3.763   6.615   3.499 -0.0261  0.1110 -0.1231
 3894W        W19703  14.882   5.670  13.881 -0.4009  0.1534 -0.0441
 3895W        W19704  15.948   1.585  13.742  0.3260  0.0517 -0.5680
 3896W        W19705  16.579  12.825   2.905 -0.3316  0.1335 -0.1034
 3897W        W19706   4.087  11.347   4.268 -0.3091 -0.0273 -0.1874
 3898W        W19707  16.447  15.612  12.883 -0.0071  0.1737 -0.0487
 3899W        W19708   7.768   4.705  11.356 -0.0359  0.2176  0.1931
 3900W        W19709   7.727   5.575  11.762  0.1810 -0.0489 -0.1344
 3901W        W19710   0.760   5.152  12.215 -0.2370 -0.1625  0.0978
 3902W        W19711   3.013   6.000  14.424  0.1285 -0.1945 -0.1887
 3903W        W19712  14.340   0.071  11.473  0.3716 -0.2292  0.0452
 3904W        W19713   7.454  10.514  14.603  0.1546  0.0428  0.0169
 3905W        W19714  14.938   7.459   2.568  0.3715  0.0021 -0.0078
 3906W        W19715   4.412   3.862  12.059  0.0214  0.0938 -0.1331
 3907W        W19716   2.552   0.680   2.210 -0.2873 -0.4275  0.1007
 3908W        W19717   2.147  13.646   0.910 -0.4221  0.0692  0.0696
 3909W        W19718   2.007   8.504   5.582 -0.3720  0.0446 -0.1363
 3910W        W19719  13.252   4.951   4.774 -0.0470  0.0586  0.3524
 3911W        W19720   1.524  17.430  15.430 -0.2429 -0.0306 -0.1402
 3912W        W19721   7.295  15.486  11.070  0.1709  0.2326  0.0520
 3913W        W19722   8.149  10.000   4.825  0.4325 -0.1703 -0.0569
 3914W        W19723  16.409  12.202  11.652  0.2228 -0.0726  0.0431
 3915W        W19724  10.621   3.792   3.822  0.0402  0.1130 -0.0870
 3916W        W19725   1.679  11.864   2.671 -0.1127 -0.3210  0.1907
 3917W        W19726   9.758   0.414  12.160  0.1562  0.1657  0.3326
 3918W        W19727  12.374  13.071   2.945  0.0532  0.1683 -0.0890
 3919W        W19728  18.194   9.707  13.347 -0.0502  0.2634  0.1417
 3920W        W19729   1.445  12.440  13.683 -0.0229 -0.5449 -0.0036
 3921W        W19730   0.178   7.422  11.098 -0.0666 -0.3113  0.0531
 3922W        W19731   7.758  12.293   2.649  0.0402 -0.1487  0.2999
 3923W        W19732   9.165   6.213  15.121 -0.2560  0.3242  0.1087
 3924W        W19733   9.642   9.408   2.139 -0.2763  0.0478  0.0376
 3925W        W19734  14.777  11.995  12.028 -0.2948 -0.1446  0.0126
 3926W        W19735  10.509   3.955  13.458 -0.0299 -0.1558 -0.3859
 3927W        W19736   7.147  12.433  11.507  0.0860  0.0411  0.1122
 3928W        W19737  16.101  11.070  12.386 -0.0552  0.3014 -0.3207
 3929W        W19738  14.579   3.111   4.132 -0.1069  0.1001 -0.0890
 3930W        W19739  10.474   3.161   4.734 -0.1124 -0.0773  0.1239
 3931W        W19740  15.216   9.066   1.722 -0.2177 -0.1238  0.2968
 3932W        W19741  17.991   7.051   3.465 -0.2613 -0.2111 -0.0579
 3933W        W19742   8.755   0.029   5.018 -0.2089 -0.2286  0.1185
 3934W        W19743  11.878  15.394  10.649 -0.1741 -0.0192 -0.1492
 3935W        W19744  11.100  15.178   2.448 -0.3098 -0.0816  0.1425
 3936W        W19745   1.098   7.738  13.470  0.2379 -0.1200  0.1585
 3937W        W19746   3.583   4.440   1.954 -0.1953 -0.1871  0.3499
 3938W        W19747  12.718   1.988  13.053  0.3629  0.2820  0.1535
 3939W        W19748  12.493  17.645  13.502  0.0540 -0.0840  0.2349
 3940W        W19749  18.011   9.017  10.097  0.3117 -0.2052  0.0628
 3941W        W19750   8.376   9.684   4.486  0.1940 -0.1716 -0.1258
 3942W        W19751  18.605   7.059  10.191  0.0915 -0.0892  0.2160
 3943W        W19752  15.526   0.736   2.581  0.1540 -0.0055  0.5514
 3944W        W19753  11.083   0.035  13.768  0.3094  0.1874  0.1386
 3945W        W19754   4.020   7.333  12.932 -0.0852  0.1665  0.2033
 3946W        W19755  13.110  15.995  15.339  0.2524  0.0865 -0.2678
 3947W        W19756   0.518   4.382   1.893  0.0554  0.1623 -0.1270
 3948W        W19757  11.195   5.972   0.612  0.2218 -0.1581 -0.2281
 3949W        W19758   8.242   4.886   5.761 -0.4465  0.0434 -0.1317
 3950W        W19759   5.931   2.690  10.734  0.0331  0.0756 -0.0048
 3951W        W19760   5.580  10.539   2.847  0.0406 -0.0445  0.2734
 3952W        W19761  13.909   8.025   4.115 -0.0432 -0.1562  0.1045
 3953W        W19762   5.129  12.888   4.445 -0.1878  0.0345  0.3229
 3954W        W19763   5.868  12.158   1.743  0.0072 -0.1018  0.0546
 3955W        W19764   4.856  13.660   0.821 -0.2696 -0.3167 -0.0872
 3956W        W19765   6.515  10.447  15.086 -0.1794 -0.3474 -0.1156
 3957W        W19766  14.961   4.474  11.773 -0.1056  0.0556 -0.0043
 3958W        W19767   4.764  13.904   1.651  0.0336 -0.0468 -0.3944
 3959W        W19768   0.828   0.517  14.328  0.0958 -0.3060  0.0703
 3960W        W19769   2.036  12.528  15.153 -0.0724 -0.5512 -0.2762
 3961W        W19770  10.373   6.141   4.334  0.0601  0.0894  0.1663
 3962W        W19771   4.654   5.974  14.334  0.2098  0.2651 -0.0358
 3963W        W19772   2.053  18.534   4.172  0.0939 -0.0892  0.1136
 3964W        W19773   8.922   3.967  15.016 -0.0183  0.2892 -0.2092
 3965W        W19774   4.098   1.951   2.911  0.0358  0.0029  0.0297
 3966W        W19775  14.615  12.117   1.879  0.1400  0.1445  0.1680
 3967W        W19776  17.214   2.092   1.534  0.4479  0.1307  0.0450
 3968W        W19777  10.868   9.064   2.410 -0.1060 -0.1088  0.2547
 3969W        W19778   0.030  10.376  14.687 -0.1060 -0.2776 -0.0283
 3970W        W19779   0.568   8.974  15.198 -0.2233 -0.0847  0.0295
 3971W        W19780   3.737   0.557  11.023  0.2900 -0.0716 -0.2228
 3972W        W19781   4.795   8.291   0.005 -0.0653 -0.0262 -0.2825
 3973W        W19782  14.991   2.086   1.927  0.3525 -0.1258  0.1363
 3974W        W19783   1.607  16.705   2.551 -0.1837  0.0077  0.0601
 3975W        W19784   8.045   8.014  11.915 -0.1366  0.0070  0.2551
 3976W        W19785  18.179   6.119  12.933  0.0353 -0.0467 -0.2018
 3977W        W19786   0.625   7.141   4.286  0.3917 -0.0549  0.1011
 3978W        W19787   0.021   8.701   0.551 -0.0739 -0.0076  0.3057
 3979W        W19788   1.670   2.759  15.125 -0.1358 -0.1172 -0.0507
 3980W        W19789   5.320  15.611  10.794 -0.0802 -0.1418 -0.0440
 3981W        W19790  10.769   0.837   5.511  0.1095  0.0877 -0.1109
 3982W        W19791   9.659  10.689   2.726 -0.2311 -0.0296 -0.0202
 3983W        W19792  12.725  18.220   5.522 -0.1610  0.2930 -0.0297
 3984W        W19793   5.976   5.520   1.733  0.1531  0.0515 -0.1070
 3985W        W19794  16.551   6.566  13.414 -0.0694  0.2128  0.0000
 3986W        W19795   9.108  10.642  11.074  0.0868 -0.0663 -0.2471
 3987W        W19796   5.243   8.712   1.352  0.0689 -0.0742  0.1417
 3988W        W19797  12.031  13.274  12.499 -0.4035  0.0447 -0.2684
 3989W        W19798   2.701   2.341   3.701  0.1173  0.0081  0.0179
 3990W        W19799   7.856   2.512  14.771 -0.1411 -0.1431  0.1676
 3991W        W19800  16.274   2.429  11.619  0.0582  0.0903  0.1725
 3992W        W19801   6.514   1.326  14.703  0.1264  0.1427  0.0718
 3993W        W19802  11.143  10.461  14.370 -0.0274 -0.3115  0.0751
 3994W        W19803  18.346   5.644  13.205 -0.1381 -0.3319  0.2573
 3995W        W19804   6.252  14.475   4.041 -0.0505  0.1542 -0.0297
 3996W        W19805   6.110   2.664  13.132 -0.0068  0.2219  0.0298
 3997W        W19806   0.029   3.747  11.037  0.0509  0.1909  0.3193
 3998W        W19807  10.407   9.973  15.212  0.3948 -0.0174  0.0089
 3999W        W19808   0.331   8.954   4.173 -0.1606 -0.0209  0.1536
 4000W        W19809   3.641   6.224   2.587  0.3864 -0.1437  0.4035
 4001W        W19810  12.914   3.971   5.560  0.1465  0.0832  0.0263
 4002W        W19811   5.543   1.095   4.911 -0.0422 -0.1018  0.5437
 4003W        W19812   6.322   1.891   4.036 -0.0386 -0.2428 -0.0896
 4004W        W19813   2.010  15.981  11.577 -0.1354  0.0552  0.1297
 4005W        W19814   4.222   9.391   0.966  0.1628  0.2356  0.1739
 4006W        W19815   5.878   4.391  15.157 -0.2232  0.0631 -0.0194
 4007W        W19816  15.142   4.135  13.189 -0.0118  0.1337  0.0730
 4008W        W19817  17.180   6.406   3.962 -0.3181  0.1231  0.0866
 4009W        W19818  15.165   1.636   4.280 -0.1882  0.2150 -0.0717
 4010W        W19819  16.975  11.556  10.883 -0.1171  0.0441 -0.0849
 4011W        W19820  18.252  10.979   2.454 -0.0510  0.2801  0.0690
 4012W        W19821   7.648   8.527   0.257  0.0581 -0.1367 -0.1685
 4013W        W19822   3.091   4.297  14.019 -0.0939 -0.3247 -0.1441
 4014W        W19823  17.623   8.722  15.470  0.0837 -0.0217  0.1387
 4015W        W19824  11.288  10.413  15.136 -0.2748 -0.0685 -0.3019
 4016W        W19825  15.350   4.520   3.970 -0.4261 -0.0630 -0.2286
 4017W        W19826   4.133  11.831  13.901  0.0531  0.1505  0.1639
 4018W        W19827   1.240  13.921  10.825 -0.2210  0.0073 -0.0520
 4019W        W19828  15.279  17.560   0.316 -0.2147 -0.0775 -0.0023
 4020W        W19829  10.069   8.823  13.435  0.2897  0.0632 -0.1002
 4021W        W19830   2.174   1.397   1.763 -0.4710 -0.2743 -0.1240
 4022W        W19831   1.781  13.159  10.803  0.1056  0.1037  0.3029
 4023W        W19832   2.975   8.837  12.541 -0.1143  0.0201 -0.1748
 4024W        W19833  15.078  13.699   1.406  0.0131 -0.2974 -0.2078
 4025W        W19834   2.940  15.512   2.887 -0.1099 -0.2077  0.1297
 4026W        W19835   0.914  11.441   2.457 -0.1705  0.1961  0.1285
 4027W        W19836  14.730   8.791   1.743 -0.0169 -0.1939 -0.1987
 4028W        W19837  18.619   0.713  15.337 -0.1734 -0.0497 -0.6925
 4029W        W19838  15.328  12.225   2.472  0.3343 -0.1819 -0.1989
 4030W        W19839  15.979   3.296   0.888 -0.0483 -0.1083  0.0111
 4031W        W19840   0.843  16.722   1.252  0.4142  0.1933 -0.0936
 4032W        W19841  10.436  18.476   0.995 -0.1275  0.1899 -0.0922
 4033W        W19842   3.635  15.440  13.804 -0.1227 -0.1789  0.0543
 4034W        W19843   7.731  18.114   0.359  0.2947  0.0218 -0.1536
 4035W        W19844  17.842  14.156  10.521  0.2150 -0.1779  0.0569
 4036W        W19845  12.440  12.207   4.701 -0.0692 -0.1496 -0.2518
 4037W        W19846  18.073   7.146   3.946 -0.2762  0.0819  0.1559
 4038W        W19847   9.410   1.208   5.168  0.0983  0.0033  0.1361
 4039W        W19848  11.903   8.972  15.593  0.0437  0.1121 -0.1932
 4040W        W19849   7.587   7.898   0.880 -0.1003  0.2576  0.1935
 4041W        W19850  13.878   4.249   2.711 -0.0501 -0.3495  0.2211
 4042W        W19851  10.541   6.663   0.708  0.2944  0.1357 -0.1627
 4043W        W19852  14.424   6.077   2.649  0.0395 -0.3366 -0.3658
 4044W        W19853   3.586  11.523  12.713 -0.2545 -0.0919 -0.1689
 4045W        W19854  18.203  11.886   4.880 -0.0818  0.1704 -0.0021
 4046W        W19855   6.947   0.640  13.942  0.1837 -0.3300 -0.0890
 4047W        W19856   6.736   0.369   0.293  0.1822  0.1469  0.1106
 4048W        W19857   6.361   1.575  11.282 -0.3207 -0.3060 -0.0210
 4049W        W19858  14.607   4.340  14.056  0.0932  0.0304 -0.1144
 4050W        W19859   4.770   3.369  13.277 -0.0864 -0.0544  0.0445
 4051W        W19860   3.987  13.022   4.969  0.0071  0.0963  0.0219
 4052W        W19861   5.063   0.282  12.158 -0.1651  0.0700  0.0806
 4053W        W19862   7.094   7.915   5.861 -0.0557 -0.1348 -0.1372
 4054W        W19863  13.683   2.939  11.137 -0.0924  0.3222 -0.1252
 4055W        W19864   2.796  12.231  10.663  0.0904 -0.0536  0.1848
 4056W        W19865  12.808   4.586   3.480 -0.1124  0.1816  0.1113
 4057W        W19866   9.175   2.638  13.434  0.2526 -0.0643 -0.1251
 4058W        W19867   4.574  10.444  11.891  0.0822  0.1457  0.5940
 4059W        W19868   2.303   1.351  14.257 -0.3454 -0.0583  0.0389
 4060W        W19869   2.572  11.077   3.106  0.0592 -0.0822 -0.0650
 4061W        W19870   9.164  16.875  10.717 -0.0068 -0.2708 -0.1215
 4062W        W19871  13.888  12.505   2.857  0.2092 -0.0432  0.0782
 4063W        W19872   0.002   1.953  14.726 -0.0751  0.1311  0.1928
 4064W        W19873   5.539   5.497  12.854 -0.0281  0.0826  0.2795
 4065W        W19874   0.825  11.281  14.141 -0.2731  0.1765 -0.3975
 4066W        W19875  13.052  13.748   0.344  0.2628 -0.0758 -0.2150
 4067W        W19876   0.537   0.167   4.903  0.4123  0.0096 -0.1880
 4068W        W19877  14.298  16.762   2.866 -0.1140 -0.0819 -0.1992
 4069W        W19878   1.853   2.122  14.424  0.0671  0.1154 -0.2257
 4070W        W19879  13.502   8.774  10.745 -0.2654  0.1766  0.3187
 4071W        W19880  17.328   0.717   2.684  0.2956 -0.2232  0.0309
 4072W        W19881  13.650   8.762   9.883  0.1257  0.0239 -0.1059
 4073W        W19882  14.901   1.252  11.363 -0.0270 -0.1301  0.0395
 4074W        W19883   2.643   1.593   1.747  0.0608  0.2049 -0.1436
 4075W        W19884  16.358  17.604  15.232  0.0702 -0.3128 -0.0559
 4076W        W19885  14.714   5.874  13.052 -0.1298  0.0778 -0.2422
 4077W        W19886  18.661   6.347   9.866  0.0364  0.1733 -0.1719
 4078W        W19887  16.779   8.019   4.171  0.0800  0.0873 -0.0650
 4079W        W19888  13.397   2.544  11.041 -0.3809  0.0800 -0.0622
 4080W        W19889  18.578   5.561  13.706 -0.1480 -0.0670  0.0484
 4081W        W19890  15.970   8.379   1.142 -0.2362 -0.0824 -0.0717
 4082W        W19891   3.129   0.926  13.486 -0.3971  0.1278 -0.1724
 4083W        W19892  16.529  12.906   4.342  0.2542 -0.1275  0.1098
 4084W        W19893   7.931   0.055   2.149  0.2041 -0.2319  0.1127
 4085W        W19894  14.083  12.060   3.100  0.3124 -0.1258  0.2331
 4086W        W19895  12.222  16.967   4.964 -0.4078 -0.2007  0.1087
 4087W        W19896  15.040   7.782   2.975  0.1205  0.2462 -0.3268
 4088W        W19897  17.846   7.995  14.712  0.1263  0.2267 -0.1333
 4089W        W19898  11.028  16.235   1.399  0.0918  0.1352  0.1671
 4090W        W19899  18.367  18.664   1.879  0.1395  0.0307  0.2907
 4091W        W19900   5.488   7.790  13.010 -0.1571 -0.1780 -0.0143
 4092W        W19901   3.373   3.114   2.211  0.3330  0.2186 -0.2934
 4093W        W19902  14.444  11.815   2.819 -0.3324 -0.3197  0.0578
 4094W        W19903   1.680  18.278   1.951  0.0365 -0.0513  0.0201
 4095W        W19904   6.244  15.642   4.211  0.0087 -0.1297 -0.3856
 4096W        W19905  18.213  18.571   3.909 -0.2152  0.1865 -0.0946
 4097W        W19906   5.681   9.148  15.011  0.2944  0.2198  0.1555
 4098W        W19907  12.801  15.624   4.948  0.1207  0.1833  0.0218
 4099W        W19908   7.222   3.885   1.098 -0.1377 -0.1140 -0.0432
 4100W        W19909   5.135   1.425  12.572  0.0730  0.2308 -0.2776
 4101W        W19910  13.595  11.482   0.892 -0.1624  0.0480 -0.1105
 4102W        W19911  14.080   7.851  10.796 -0.0514 -0.1152  0.1756
 4103W        W19912  16.394  13.857  11.273 -0.1745 -0.0398 -0.2902
 4104W        W19913   5.906   7.063  12.776 -0.2628 -0.4599 -0.0972
 4105W        W19914   3.896   0.708  13.353 -0.0743  0.2934 -0.1085
 4106W        W19915   3.973   0.447   0.182  0.1387 -0.0350  0.0625
 4107W        W19916   8.943   3.066   0.472 -0.0261  0.0732 -0.2911
 4108W        W19917   3.970   3.576  12.723  0.2704 -0.0457 -0.1597
 4109W        W19918   0.621   1.791  11.994 -0.1110  0.1057  0.0769
 4110W        W19919   7.276  11.855   4.401 -0.1675  0.3609 -0.0807
 4111W        W19920  18.353   6.365  13.877  0.0200 -0.0052  0.3363
 4112W        W19921   4.123   3.716   0.268  0.1667  0.1726 -0.2262
 4113W        W19922   9.746  15.898   5.787  0.0820 -0.1526  0.0917
 4114W        W19923  11.265   0.657  12.151 -0.0288 -0.1078 -0.1065
 4115W        W19924  18.300   6.475  14.373 -0.0736 -0.0158 -0.3811
 4116W        W19925   1.059  14.115  15.589 -0.1017  0.5025  0.0577
 4117W        W19926   3.433  12.120  12.758  0.0999 -0.1420  0.1675
 4118W        W19927   2.078  14.063  14.906 -0.1481  0.0868 -0.0454
 4119W        W19928  15.223   2.970   2.930  0.0636 -0.1888 -0.0842
 4120W        W19929  10.897   2.853   4.175  0.0652  0.5903 -0.3438
 4121W        W19930   5.373  12.813  15.342  0.1023 -0.0711  0.2207
 4122W        W19931   4.386   1.385  10.035 -0.1981  0.1416  0.0092
 4123W        W19932  10.678  18.552   1.901  0.0727  0.0021  0.0969
 4124W        W19933   5.335  18.516   2.854  0.0073  0.1633  0.1684
 4125W        W19934   2.288  15.602  14.381 -0.2703  0.1027  0.0543
 4126W        W19935   2.298   8.555   2.394 -0.1356 -0.0752  0.0725
 4127W        W19936  13.939   1.941  15.544  0.2469 -0.1084  0.2001
 4128W        W19937   3.659  15.067   0.515  0.0584  0.2109 -0.4269
 4129W        W19938  14.893   2.129   4.266 -0.0781  0.0375 -0.2493
 4130W        W19939  10.293  12.789  15.471  0.3827 -0.1258 -0.0400
 4131W        W19940  17.267  11.976   0.918 -0.1048 -0.1567 -0.0021
 4132W        W19941   7.993   0.425  13.658 -0.0250  0.4098 -0.2993
 4133W        W19942  14.071   5.573  13.613  0.1132 -0.3636  0.1217
 4134W        W19943   4.941  12.212   1.506 -0.0063  0.0161  0.1918
 4135W        W19944   4.100   6.209   3.305 -0.0218 -0.0971 -0.3777
 4136W        W19945  10.648  16.466   3.596  0.0044  0.0083 -0.0495
 4137W        W19946   4.406  17.563   1.017  0.0046 -0.0768  0.2176
 4138W        W19947  12.526  17.312   4.852 -0.1805  0.0352  0.1704
 4139W        W19948   7.864   4.222   2.849 -0.1925 -0.0277 -0.0562
 4140W        W19949  17.585  16.006   0.763 -0.0311 -0.1738  0.2842
 4141W        W19950  12.258  17.191  12.895  0.1405 -0.2901  0.1082
 4142W        W19951  12.917   9.113   4.542  0.0322 -0.2808 -0.2062
 4143W        W19952  16.939   4.266  14.569 -0.2084  0.1156 -0.0335
 4144W        W19953   9.449   3.393   3.624  0.4401 -0.2111 -0.0238
 4145W        W19954  10.176   6.646   1.169  0.0600 -0.0279  0.2029
 4146W        W19955  18.126   0.686  14.669  0.1291 -0.2149 -0.1663
 4147W        W19956  15.676   8.674   2.616  0.0477 -0.1279 -0.0311
 4148W        W19957  11.618  11.158  15.059  0.2221 -0.2137  0.0302
 4149W        W19958   6.574  10.782   2.341  0.1518 -0.3605  0.0856
 4150W        W19959  11.287   0.236   4.929  0.1990 -0.0705 -0.1032
 4151W        W19960   8.144  11.755  13.460 -0.1187 -0.1236  0.0029
 4152W        W19961   6.757  10.327   1.962  0.0862 -0.0766 -0.2049
 4153W        W19962  12.272   6.724  15.518 -0.0220 -0.1883 -0.2311
 4154W        W19963  17.756   7.217  14.026 -0.1960 -0.0648 -0.1566
 4155W        W19964   6.186   9.892   4.461  0.0259 -0.1855 -0.3361
 4156W        W19965  15.174  11.477   4.108  0.1212 -0.1174 -0.0298
 4157W        W19966  13.575  15.304   5.571 -0.1129  0.2521  0.0932
 4158W        W19967  16.810   6.150  13.883  0.1029 -0.0284  0.2345
 4159W        W19968  12.958   4.754  15.417  0.1737  0.0864 -0.0657
 4160W        W19969  14.208  11.746   3.947  0.2948 -0.0272 -0.2766
 4161W        W19970   8.742   4.782   4.278 -0.1190  0.2521 -0.1196
 4162W        W19971   8.019   7.896  14.333  0.3478  0.1774 -0.0687
 4163W        W19972   0.248   0.127  13.241 -0.3937  0.1470 -0.1702
 4164W        W19973  15.017  18.287  11.746  0.1642 -0.0014  0.0087
 4165W        W19974  10.301  18.068  11.787 -0.1592  0.1929 -0.0318
 4166W        W19975   5.526   9.077   2.698 -0.0883 -0.0130 -0.2450
 4167W        W19976  15.274   9.949  12.373 -0.1350 -0.2057 -0.3551
 4168W        W19977   6.073  16.669  13.131  0.0745 -0.0592 -0.0684
 4169W        W19978  17.232   0.269  15.196  0.2403 -0.0694 -0.3535
 4170W        W19979   1.030   2.508  14.667  0.0230  0.0390  0.2666
 4171W        W19980  17.872   9.144  14.309  0.4342 -0.5174  0.0643
 4172W        W19981  17.324  10.732  11.137  0.3887 -0.1273  0.0301
 4173W        W19982   8.465  11.037  14.133 -0.0753  0.0185  0.0481
 4174W        W19983  12.288  14.612  13.738  0.0661 -0.1301 -0.3959
 4175W        W19984   0.300   7.158   2.961  0.3655  0.0311  0.0086
 4176W        W19985   6.526  11.406   3.860 -0.0622 -0.0112 -0.1747
 4177W        W19986  18.666  12.146   0.038  0.2329  0.1268 -0.0532
 4178W        W19987   6.670   2.109   3.716 -0.4093 -0.2124 -0.1779
 4179W        W19988   3.923   6.466  10.962  0.0243  0.0954 -0.0533
 4180W        W19989   5.227  12.145   0.821  0.1291  0.3203 -0.0391
 4181W        W19990   9.677   6.336  11.479  0.3865  0.1364  0.2339
 4182W        W19991  17.572  13.194  10.059  0.3724 -0.0048  0.2134
 4183W        W19992   4.653   5.609  11.232 -0.0786  0.1639 -0.2322
 4184W        W19993   1.004   0.402   1.489  0.0508 -0.2100  0.0252
 4185W        W19994   8.491   6.584   4.519 -0.2197  0.0433  0.0891
 4186W        W19995   0.628   9.375  11.430  0.1146 -0.0864 -0.0621
 4187W        W19996   9.776  16.228  14.930  0.2888 -0.0503 -0.4218
 4188W        W19997   4.166   0.706   3.890  0.1924  0.1058 -0.2763
 4189W        W19998   8.546  13.637   2.425  0.0674  0.1705  0.1226
 4190W        W19999   3.370   9.217  15.528 -0.1187 -0.2312  0.0516
 4191W        W20000  10.642   5.931   5.632 -0.0561 -0.0581 -0.1472
 4192W        W20001  17.077   4.610  10.155  0.1895  0.3013  0.1864
 4193W        W20002  17.694  12.421  11.896  0.0324  0.1975  0.1451
 4194W        W20003  10.272   3.886  15.602 -0.2296  0.0997 -0.1495
 4195W        W20004   1.795   8.203  12.452 -0.2310  0.2579  0.2789
 4196W        W20005  15.682  10.010   2.751  0.2381  0.1426  0.0764
 4197W        W20006  12.176   1.466   0.228  0.0468  0.1739  0.0798
 4198W        W20007  15.450   4.783   5.454  0.0941  0.0252 -0.3426
 4199W        W20008  17.023   0.634   1.362  0.3206 -0.0709 -0.0307
 4200W        W20009  18.581  15.296   4.491 -0.4235  0.0866 -0.1453
 4201W        W20010  13.300  18.551  14.903  0.0581  0.2340  0.1340
 4202W        W20011   5.537  15.586   3.606 -0.1403  0.0685  0.0893
 4203W        W20012  16.974   3.349  11.289 -0.1283 -0.0457 -0.0308
 4204W        W20013   8.353  13.539   9.761 -0.1122 -0.1261 -0.2709
 4205W        W20014   9.903  17.482   3.690 -0.1697 -0.0765  0.3131
 4206W        W20015   9.909   0.945  14.810  0.1251 -0.0579  0.3561
 4207W        W20016  15.443  11.553  13.029 -0.1601  0.0629  0.0750
 4208W        W20017  14.861   6.187  15.262  0.1098  0.0525 -0.1449
 4209W        W20018   2.994   0.439   3.166 -0.0545 -0.0790 -0.3414
 4210W        W20019  17.170  18.154   0.534 -0.2946  0.1009 -0.0968
 4211W        W20020   7.119   0.504   4.751  0.5255  0.5720  0.1558
 4212W        W20021  17.499  16.909  14.367 -0.0663 -0.0371  0.0753
 4213W        W20022   2.561  11.447  12.297 -0.5063  0.0100  0.0342
 4214W        W20023  13.957  18.400  11.204 -0.0026  0.0813  0.0980
 4215W        W20024   2.019  16.655  12.421  0.2172  0.1234  0.2212
 4216W        W20025  16.215  18.187  11.956 -0.0355  0.3186  0.1153
 4217W        W20026   2.953   8.318  13.381  0.0325 -0.0767  0.0083
 4218W        W20027  11.622   7.864  14.578 -0.0475 -0.0506  0.0043
 4219W        W20028   4.703  16.827   0.962  0.0590  0.3417  0.1347
 4220W        W20029  16.719   7.298   4.218  0.1108  0.2254  0.2334
 4221W        W20030  12.811   6.605  15.582 -0.2601 -0.1156 -0.2149
 4222W        W20031   2.962   1.058  11.766 -0.1021 -0.1212  0.0074
 4223W        W20032  18.304   8.802   5.302  0.2491  0.2613  0.0197
 4224W        W20033   5.033  18.224  11.842  0.2247  0.2506 -0.0709
 4225W        W20034   7.245   2.579  12.344 -0.0897 -0.1276 -0.0880
 4226W        W20035   2.852   6.092  11.781  0.2824 -0.0660 -0.3266
 4227W        W20036   4.358   3.936   1.918  0.1619 -0.0446  0.0551
 4228W        W20037  16.318   6.719   3.261 -0.0968  0.1306 -0.2045
 4229W        W20038  18.432   2.769  11.953 -0.2332 -0.2075  0.1242
 4230W        W20039   4.835  15.353   3.025 -0.0845 -0.0545 -0.1355
 4231W        W20040  15.743   6.728   0.137  0.0215 -0.4170  0.0452
 4232W        W20041  12.414   9.847  14.821 -0.0789  0.0007 -0.1732
 4233W        W20042  11.374  14.129   0.389  0.1029  0.4938  0.0428
 4234W        W20043  12.738  11.916  12.342  0.4224  0.2468  0.1157
 4235W        W20044  15.462   0.519  14.573  0.1734  0.0353 -0.1068
 4236W        W20045  17.082   9.729  13.291  0.1107 -0.0352 -0.3876
 4237W        W20046   7.811  16.976   2.931 -0.1176 -0.1382 -0.2241
 4238W        W20047   4.911  11.339   1.025  0.0573  0.1032  0.0477
 4239W        W20048   3.075  17.364  10.953 -0.1692 -0.0222  0.0712
 4240W        W20049  13.967  11.139   2.467 -0.1232 -0.0342  0.0434
 4241W        W20050   0.848  11.721  14.550 -0.1482  0.1780  0.1381
 4242W        W20051   7.200  14.078  14.557  0.1323  0.2973 -0.1060
 4243W        W20052  14.578   5.368  13.665  0.4166  0.2586 -0.1686
 4244W        W20053  10.897   3.157   3.268 -0.1064  0.1571 -0.2002
 4245W        W20054  13.901  11.833  14.078  0.0162  0.0481 -0.1396
 4246W        W20055  17.272   2.742  13.196 -0.0542  0.0039  0.4059
 4247W        W20056  14.841   3.432  15.110 -0.2239 -0.0077  0.0083
 4248W        W20057  15.332   0.841  12.662 -0.0029 -0.0139 -0.1557
 4249W        W20058  17.004   7.634  11.312 -0.0908  0.2791  0.0378
 4250W        W20059  12.062  15.247   2.220 -0.1047  0.1630  0.2315
 4251W        W20060   4.591   3.718  13.589  0.1122 -0.1572  0.2084
 4252W        W20061  11.694   2.698   6.264 -0.0626  0.0912  0.1398
 4253W        W20062  15.472   7.405   5.130 -0.2035  0.0933 -0.1225
 4254W        W20063   0.862  18.151  10.646  0.4543 -0.5136 -0.1390
 4255W        W20064  15.916   9.323   0.809  0.0650 -0.3089 -0.0786
 4256W        W20065   0.971  17.795   2.926 -0.2358  0.0716 -0.3271
 4257W        W20066   3.172   2.925   5.313  0.3169  0.0373  0.2884
 4258W        W20067   9.868   2.000  13.651  0.0026 -0.1880  0.2069
 4259W        W20068   5.017   8.960   4.783  0.0075  0.0453 -0.0614
 4260W        W20069   0.292   6.970  14.166  0.1250 -0.0543  0.2652
 4261W        W20070  12.398   8.300   4.947  0.0841 -0.0175 -0.0080
 4262W        W20071  15.452   6.539   2.366 -0.1925  0.1333 -0.0790
 4263W        W20072   6.489   1.904  12.521  0.2426  0.1164 -0.2569
 4264W        W20073  14.453   2.427   4.184 -0.2936  0.0861  0.1980
 4265W        W20074   1.820   9.752   4.132  0.2355  0.0465  0.2381
 4266W        W20075   9.546   8.108   4.325 -0.1841  0.1486  0.0713
 4267W        W20076   1.068  17.685  13.463 -0.2793  0.1645 -0.1774
 4268W        W20077  13.867   9.539  11.410  0.3346 -0.1145  0.0140
 4269W        W20078   8.574  13.206  13.881  0.3471  0.2749 -0.0503
 4270W        W20079  11.004   9.378  13.053 -0.2313  0.1667 -0.0377
 4271W        W20080  12.170   5.623   2.100 -0.4109  0.0128  0.3220
 4272W        W20081  16.813   9.047  14.530 -0.0160  0.2029  0.4202
 4273W        W20082  11.453   8.990  11.452 -0.0542 -0.3043 -0.1004
 4274W        W20083   4.862   7.491   2.248  0.1439  0.1987  0.1532
 4275W        W20084  16.172   2.536   5.793  0.2197  0.1234 -0.1184
 4276W        W20085  15.841   8.076  15.105 -0.0413 -0.1906  0.0830
 4277W        W20086  11.372  15.822   1.732 -0.0159  0.0401  0.1022
 4278W        W20087  18.051  15.267   4.341 -0.2038 -0.0875 -0.0651
 4279W        W20088   5.532  14.727   0.920  0.1315  0.2531 -0.0119
 4280W        W20089   0.586   1.596   2.727  0.0939 -0.1590 -0.5302
 4281W        W20090  10.691   3.949  15.350  0.1272 -0.2963 -0.2482
 4282W        W20091   5.705   1.226   3.915  0.1100  0.1731  0.1541
 4283W        W20092  10.148   2.816  14.744  0.0151 -0.3272 -0.1628
 4284W        W20093  16.342   0.515  11.555  0.1144 -0.0204  0.2267
 4285W        W20094  13.362   8.344   3.434 -0.0391 -0.1437  0.0735
 4286W        W20095   1.221   3.638  13.145  0.3049 -0.2725  0.2265
 4287W        W20096   6.505   7.371  11.114 -0.0737 -0.1222  0.2083
 4288W        W20097  12.972   5.071   3.095  0.3735 -0.2097  0.0668
 4289W        W20098  12.423  17.752   2.855 -0.0561  0.0332 -0.0815
 4290W        W20099  17.112  11.570   4.073 -0.2643 -0.1428  0.1733
 4291W        W20100   5.327   8.228   5.998 -0.1184  0.0191 -0.0578
 4292W        W20101  17.198   7.832   4.013 -0.1106  0.1914 -0.1524
 4293W        W20102  11.420  10.609   0.822  0.1292 -0.1292 -0.0789
 4294W        W20103  16.737  10.725   3.518  0.0590  0.0728 -0.2192
 4295W        W20104  14.657   9.894  12.429  0.1803  0.0096 -0.0357
 4296W        W20105   6.639   9.096   0.067 -0.0935  0.1152 -0.3193
 4297W        W20106  13.205   9.688   1.645 -0.0485 -0.1853  0.1274
 4298W        W20107  17.401   1.428  10.670 -0.3151 -0.4088 -0.0207
 4299W        W20108   7.949   4.433  10.345 -0.3108 -0.1716 -0.0293
 4300W        W20109  11.066   5.294   1.948  0.4182 -0.1351  0.0017
 4301W        W20110  16.610  16.218   4.132 -0.2416  0.0238  0.0814
 4302W        W20111   5.742  13.229  12.408  0.1231  0.3879 -0.1781
 4303W        W20112   7.318  17.992   5.309  0.0535 -0.1336  0.1152
 4304W        W20113   8.121   8.193  14.006  0.2375  0.1286  0.1947
 4305W        W20114   3.766  14.422  14.258 -0.0740  0.2973 -0.2624
 4306W        W20115   5.704  10.665   5.233  0.0824 -0.3918  0.1607
 4307W        W20116  17.696   8.310   4.699  0.3401 -0.2201  0.0373
 4308W        W20117   9.112  15.511  13.039 -0.0077 -0.2251 -0.0979
 4309W        W20118  18.332   6.746   9.803  0.0157 -0.0358  0.1283
 4310W        W20119   0.923   2.793  10.422 -0.1286  0.2378  0.1407
 4311W        W20120  12.548  17.254  14.276 -0.2095 -0.0836 -0.0775
 4312W        W20121   4.076  16.530   0.740  0.0212 -0.0788 -0.0989
 4313W        W20122  12.023  17.541   2.628  0.0499 -0.0089  0.2625
 4314W        W20123  10.065  18.457  10.928  0.1339 -0.0887  0.0010
 4315W        W20124   9.299   8.516   0.536 -0.2681 -0.0511  0.3589
 4316W        W20125   4.687  11.438   3.515 -0.1964  0.2170  0.1223
 4317W        W20126   6.626   9.898  15.135 -0.0222  0.4984 -0.0196
 4318W        W20127   4.630   1.976  14.802 -0.1581  0.3675 -0.0375
 4319W        W20128  12.954  16.945  14.218  0.0941  0.0056 -0.1441
 4320W        W20129  18.387  17.265  10.898  0.1459 -0.1173  0.0696
 4321W        W20130   3.529   7.849   3.863 -0.0326 -0.0654  0.0309
 4322W        W20131   2.197  18.094   1.288 -0.2883  0.0216  0.0401
 4323W        W20132   7.413  17.482   3.474  0.1474 -0.0170 -0.1609
 4324W        W20133  17.333  11.164   0.384  0.1344  0.3915 -0.1571
 4325W        W20134   2.195   8.810   2.846 -0.1088  0.0214  0.0739
 4326W        W20135   4.973  13.051  13.431 -0.2119 -0.1721 -0.2043
 4327W        W20136  13.321   8.818   3.648  0.0855  0.1605  0.0639
 4328W        W20137   8.543   6.935   2.612  0.0160 -0.1221  0.1323
 4329W        W20138  12.558   6.685   0.908  0.1902  0.0484 -0.1057
 4330W        W20139   5.275   4.067   2.916 -0.0601 -0.0601 -0.1881
 4331W        W20140  13.014   2.758  14.955 -0.0208 -0.2436 -0.5082
 4332W        W20141   8.477   9.424  12.084  0.0606 -0.0637 -0.0913
 4333W        W20142  14.619   0.987  11.700 -0.0897 -0.0023 -0.2337
 4334W        W20143   4.077  12.134   1.665  0.6574  0.3287  0.1480
 4335W        W20144  16.087   1.132  10.975  0.1170  0.0482  0.1544
 4336W        W20145   1.983   8.670  12.586  0.0171 -0.3450  0.0467
 4337W        W20146   9.190   3.980   3.371  0.3037  0.2074 -0.2093
 4338W        W20147   0.272  15.294   2.788 -0.2338 -0.1259  0.0326
 4339W        W20148   1.617   1.884  12.919 -0.0609 -0.1038  0.0558
 4340W        W20149  16.690   7.275  12.533 -0.0637  0.2694 -0.4234
 4341W        W20150  12.447  11.947   5.092 -0.3374 -0.1717 -0.0495
 4342W        W20151  11.643   1.410   0.146  0.0654 -0.0360  0.2255
 4343W        W20152   4.823  18.578   2.803  0.0335 -0.1549 -0.0140
 4344W        W20153  10.053  14.433   3.056 -0.1989  0.2309  0.0961
 4345W        W20154   5.483   9.794  11.302 -0.2624 -0.1933  0.0081
 4346W        W20155  11.355  18.291   4.339 -0.0157 -0.2906  0.0783
 4347W        W20156   3.451   8.113   4.714  0.2391 -0.3750  0.0952
 4348W        W20157  15.307  17.510   1.234 -0.0491 -0.3492 -0.1308
 4349W        W20158  10.893  15.702   4.197  0.0926 -0.1719 -0.0055
 4350W        W20159  11.536   0.823  13.927 -0.1554 -0.0917  0.0337
 4351W        W20160   6.830  17.159   2.353  0.0115  0.2235 -0.0618
 4352W        W20161   8.671   2.802  14.802  0.2229  0.3580 -0.4341
 4353W        W20162   1.354   4.449  14.479  0.0683  0.0277  0.0790
 4354W        W20163  15.343  12.365  12.668 -0.1513  0.2476  0.0303
 4355W        W20164  12.624   5.625   0.494 -0.2242 -0.3421 -0.0285
 4356W        W20165  11.330   0.744   3.388  0.1009 -0.0540  0.2430
 4357W        W20166   5.047   9.387   4.488 -0.2091  0.0607 -0.0658
 4358W        W20167   0.956   6.804   0.096  0.1955 -0.0178 -0.5466
 4359W        W20168  11.792   2.779   1.593  0.2729  0.5399 -0.0078
 4360W        W20169  17.043  18.135   4.465 -0.1624 -0.3680  0.1060
 4361W        W20170  18.188  17.267   0.268  0.0000 -0.1342 -0.2121
 4362W        W20171  12.605  16.464  12.421 -0.0399  0.1677 -0.1681
 4363W        W20172  17.362   0.046  13.038 -0.1815 -0.0406  0.0116
 4364W        W20173   4.800  15.747   4.132  0.0857  0.1114 -0.1462
 4365W        W20174   0.376  14.449   1.480 -0.2281  0.0333  0.1458
 4366W        W20175  10.124   1.485  11.810 -0.1126  0.1118  0.0591
 4367W        W20176  12.715   4.899  11.950 -0.1339  0.0607 -0.0985
 4368W        W20177   8.231   9.342   5.389  0.0237 -0.0157 -0.4483
 4369W        W20178  16.611  16.297   3.487  0.0296  0.3333  0.2812
 4370W        W20179  15.330  10.208   4.691  0.0478  0.1843  0.0593
 4371W        W20180   6.828  15.299   0.154  0.0606 -0.1386 -0.0998
 4372W        W20181  10.584  16.467   4.956 -0.1281 -0.3272 -0.1691
 4373W        W20182   1.054  17.105  14.672 -0.1361  0.1689  0.1184
 4374W        W20183   3.060   8.779   0.180  0.1477 -0.0063 -0.0109
 4375W        W20184   9.124  16.603   2.152 -0.0345 -0.0328  0.0618
 4376W        W20185  17.560  10.842   1.866 -0.4050  0.3233 -0.0239
 4377W        W20186   3.107   5.973  12.425 -0.0034  0.0852  0.2714
 4378W        W20187   8.394   2.161  11.113 -0.2405 -0.2238 -0.0193
 4379W        W20188  15.262  13.775  14.073 -0.2642 -0.3577  0.2704
 4380W        W20189  10.675   8.957   5.882 -0.0471  0.1383  0.1263
 4381W        W20190  12.602  10.289  12.751 -0.0290 -0.1044  0.2487
 4382W        W20191   1.524   6.284   1.889  0.4533  0.0561 -0.0802
 4383W        W20192  14.404   0.580  15.443  0.0785 -0.1046  0.1117
 4384W        W20193   9.403   0.280  11.049  0.3063  0.1972 -0.0204
 4385W        W20194   3.503  13.576   1.842 -0.1118  0.4693 -0.1975
 4386W        W20195  13.671  14.757  11.843 -0.1057 -0.0369 -0.0206
 4387W        W20196   3.487   6.839   3.173 -0.3969 -0.1663 -0.0707
 4388W        W20197  16.910   9.483  11.681  0.0659 -0.4803 -0.1062
 4389W        W20198   3.292   0.291  14.302 -0.0740 -0.2598 -0.2133
 4390W        W20199  14.406  11.661  13.784  0.1763  0.1117 -0.0025
 4391W        W20200   0.893  12.381   0.286 -0.0272 -0.0201  0.0424
 4392W        W20201   1.413  16.693  12.643  0.3512 -0.1055 -0.1823
 4393W        W20202   5.300   1.079  11.700  0.3405  0.0182 -0.0052
 4394W        W20203   4.440  13.217  11.033 -0.1352 -0.0385  0.0511
 4395W        W20204   2.768   4.027   3.284  0.2995  0.0323  0.2370
 4396W        W20205   4.289   6.505  11.340  0.3885  0.2799  0.0330
 4397W        W20206   7.407  15.597   2.879 -0.0779 -0.0232 -0.1659
 4398W        W20207  15.037   7.508   4.637  0.1786 -0.0026 -0.1320
 4399W        W20208   2.769   1.571  11.126  0.0181  0.1127  0.0483
 4400W        W20209   7.045   2.307  13.781  0.0616  0.0982  0.6662
 4401W        W20210   1.085   6.212   3.117  0.0459  0.0635 -0.0459
 4402W        W20211   8.262  14.616   4.370 -0.0467  0.1738 -0.2781
 4403W        W20212  11.785   8.874   4.381  0.0513  0.0452 -0.0207
 4404W        W20213  15.586  16.406  11.979 -0.1316 -0.2124 -0.0403
 4405W        W20214   1.750   5.184   4.792 -0.0673  0.1808  0.0029
 4406W        W20215  17.880   4.080   4.440 -0.0343  0.1018  0.1004
 4407W        W20216  12.109   9.892   0.918 -0.1369 -0.1409  0.0090
 4408W        W20217  10.856  18.486   4.319 -0.1540  0.0562  0.0090
 4409W        W20218  17.021   7.030  10.230  0.2464 -0.0792  0.1000
 4410W        W20219  12.887   2.040   5.747  0.1396 -0.1816  0.0327
 4411W        W20220  13.864  13.443  15.561  0.2416  0.0974 -0.0567
 4412W        W20221   5.817   7.373   2.296  0.1811 -0.0110  0.2352
 4413W        W20222   1.276   2.817  15.481 -0.0492 -0.0812  0.1080
 4414W        W20223   0.007   8.668   3.871  0.3765  0.0822  0.1904
 4415W        W20224   8.022  10.881  12.029 -0.2675 -0.2888  0.0067
 4416W        W20225  15.689   9.693  10.973  0.1349  0.1085  0.2147
 4417W        W20226  14.731  13.175  10.851  0.0691 -0.1342  0.1251
 4418W        W20227  10.112  17.391  12.734 -0.2937  0.3574  0.0003
 4419W        W20228   2.233   5.305  13.105 -0.2074  0.2309  0.2127
 4420W        W20229  16.428   6.978   3.690  0.0243  0.1337  0.0052
 4421W        W20230   0.741   9.606   1.886 -0.0044 -0.1646 -0.0079
 4422W        W20231   5.594   6.363   0.996 -0.2425  0.1106  0.2080
 4423W        W20232  17.466   6.179   4.298  0.2634 -0.0712 -0.0219
 4424W        W20233   6.415   3.535   0.747  0.4094  0.1746 -0.1274
 4425W        W20234  12.584   7.675  14.543  0.0948 -0.2560 -0.1214
 4426W        W20235  15.435   9.325  10.725  0.0336  0.0625  0.1132
 4427W        W20236  13.811   2.500   2.113  0.3519  0.3182 -0.0155
 4428W        W20237  15.292   7.771   2.532 -0.1261 -0.0338 -0.0456
 4429W        W20238   1.302   8.496   3.389  0.2010  0.0113 -0.5223
 4430W        W20239  17.607   3.542   1.091  0.1229 -0.0905  0.2022
 4431W        W20240  17.732   0.684   9.703  0.1074 -0.3441  0.0324
 4432W        W20241  11.226   3.510   4.300  0.0223  0.0607  0.0513
 4433W        W20242  14.713   0.899  14.277 -0.2398 -0.2111 -0.0799
 4434W        W20243  15.224   1.311  14.219  0.3319  0.1077  0.2167
 4435W        W20244   1.952   9.405  15.150 -0.3398 -0.2452  0.1134
 4436W        W20245  11.932   4.016  11.215 -0.4177  0.1975  0.0520
 4437W        W20246   2.582   7.969   1.506  0.2019 -0.2338  0.2592
 4438W        W20247  18.247  14.160  11.810 -0.5951  0.0148  0.1021
 4439W        W20248   3.618  14.181  15.145 -0.0105 -0.3364  0.2205
 4440W        W20249   7.293  16.683  13.833 -0.2233  0.0842 -0.1763
 4441W        W20250  18.348   4.914  15.431  0.0588 -0.2346 -0.1018
 4442W        W20251   6.861   4.565   4.764 -0.0941  0.0840 -0.2913
 4443W        W20252   3.330   2.323   4.487 -0.4172  0.0766  0.0412
 4444W        W20253  15.315   7.402  15.100 -0.2123  0.0076 -0.2113
 4445W        W20254  14.335  17.588   2.727  0.1189  0.1569 -0.1308
 4446W        W20255  11.274   9.937  15.441 -0.0024 -0.2248 -0.0624
 4447W        W20256   8.939   3.900   2.135 -0.1047 -0.2167 -0.1667
 4448W        W20257   3.418  13.172   0.431 -0.0926  0.5497  0.0160
 4449W        W20258  15.196  11.888   1.740 -0.2361  0.1240 -0.0170
 4450W        W20259  15.578   9.619  12.000 -0.1639 -0.3451  0.0850
 4451W        W20260   0.392   4.361   3.522 -0.0499  0.1135 -0.4990
 4452W        W20261   7.600  12.199   4.921 -0.0631  0.1211 -0.3335
 4453W        W20262  13.384   8.131   1.425  0.1529 -0.2095 -0.0581
 4454W        W20263   0.093   1.017   0.522  0.2445  0.0377  0.1755
 4455W        W20264   7.659   7.253  10.899 -0.0978 -0.1002 -0.3141
 4456W        W20265   7.713  12.752   1.719  0.3097 -0.1133 -0.1319
 4457W        W20266   7.234   3.274  14.521 -0.0998 -0.0934  0.1305
 4458W        W20267   8.538  13.882   4.814  0.0580 -0.0313  0.1023
 4459W        W20268  18.375   3.391   3.292 -0.0936 -0.0605 -0.1116
 4460W        W20269  14.478  14.049  13.583  0.0678 -0.2923  0.0504
 4461W        W20270   9.806  13.966  11.474  0.1024 -0.0413  0.3504
 4462W        W20271   2.635  10.968   2.036  0.3271  0.0849 -0.0135
 4463W        W20272   9.807  14.765   2.723 -0.1343 -0.0888  0.2083
 4464W        W20273  14.707   8.683   3.883  0.2910 -0.3021 -0.2609
 4465W        W20274  12.101   0.038  11.300  0.0428  0.0228  0.1918
 4466W        W20275   6.418   9.328   3.355  0.0522  0.2888  0.4141
 4467W        W20276   2.564  15.995   3.638 -0.0023  0.0825 -0.1996
 4468W        W20277  11.102   5.501   3.827  0.0880 -0.2140  0.2312
 4469W        W20278  11.796  14.126  10.829  0.2291  0.1379 -0.0800
 4470W        W20279   3.929   4.291   2.537  0.2473  0.0859  0.0206
 4471W        W20280   7.306   5.780   9.643 -0.1101  0.1121 -0.1092
 4472W        W20281   3.841   5.484   3.090  0.0557  0.0925 -0.0590
 4473W        W20282   4.225   5.130   1.699  0.2991 -0.2737  0.0041
 4474W        W20283   2.879  10.948   4.466  0.1516  0.2827 -0.0438
 4475W        W20284   8.288   6.942  13.342  0.2303  0.2573 -0.0015
 4476W        W20285  17.737  17.328  14.024 -0.1394 -0.0620  0.1867
 4477W        W20286  11.464  16.123  11.172  0.1829 -0.1524 -0.3596
 4478W        W20287   0.459  16.478  10.363  0.3033  0.4176  0.0810
 4479W        W20288   5.360   5.305  11.868  0.0406  0.2146 -0.2796
 4480W        W20289  11.560  11.129   4.383 -0.0509 -0.0950  0.1918
 4481W        W20290  12.644   1.258  15.118  0.4384  0.1466 -0.0471
 4482W        W20291   7.627   6.297   2.364 -0.1175 -0.0589  0.0439
 4483W        W20292   3.390   2.797  15.225  0.0529 -0.0921 -0.1995
 4484W        W20293   0.643   0.162   1.173 -0.0572  0.1030 -0.4028
 4485W        W20294   4.911  17.545  15.110  0.1648 -0.0134 -0.2382
 4486W        W20295   2.606   8.482  12.531  0.1423 -0.1130  0.1658
 4487W        W20296   3.742  10.157  13.442 -0.2784 -0.2208 -0.1427
 4488W        W20297   0.004   5.158  12.231  0.1821 -0.1564 -0.0759
 4489W        W20298   6.616  17.441  11.439  0.2152  0.1370  0.0367
 4490W        W20299   9.021  11.841   2.722 -0.0847  0.1236  0.2294
 4491W        W20300   0.292  16.762  11.975 -0.1836  0.1363 -0.3316
 4492W        W20301   0.747   4.825  13.131  0.1371  0.1978 -0.1349
 4493W        W20302   9.599  17.118   1.946 -0.0075 -0.1131  0.1021
 4494W        W20303   4.021   6.215   2.189 -0.0021 -0.2374  0.2245
 4495W        W20304  17.396  15.673   2.267 -0.1684 -0.2303 -0.0174
 4496W        W20305  10.790   7.155   2.763  0.0491  0.0759 -0.0254
 4497W        W20306   7.567  13.035  15.388  0.0346  0.0275 -0.0009
 4498W        W20307   7.964  11.268  14.775  0.0216 -0.1053  0.1509
 4499W        W20308  17.432  16.748   4.456 -0.2295  0.2367 -0.0960
 4500W        W20309   1.408   1.503  10.271  0.0893  0.1263 -0.1584
 4501W        W20310   6.369  11.412   3.339 -0.0670  0.2406  0.2699
 4502W        W20311   0.269  10.567   0.454  0.4614  0.2869 -0.4123
 4503W        W20312  15.126   6.082  14.333 -0.1322 -0.1246 -0.2855
 4504W        W20313   6.102   8.502   0.059  0.0463 -0.1602 -0.4507
 4505W        W20314   6.598   3.055   0.882 -0.0255 -0.0244  0.0806
 4506W        W20315  15.611   4.979   2.094  0.0885 -0.1406  0.0829
 4507W        W20316   1.479  17.619  12.204 -0.0483  0.0800 -0.0451
 4508W        W20317   3.382   6.113  11.935 -0.0395  0.2060  0.3011
 4509W        W20318   6.048  18.285   1.683 -0.4168 -0.4056  0.0536
 4510W        W20319  17.529   0.243  11.472 -0.1258  0.0387 -0.2754
 4511W        W20320  17.753   6.116  10.328  0.2164 -0.1890  0.0055
 4512W        W20321   8.842  17.289  10.818 -0.2360 -0.2227  0.1812
 4513W        W20322  14.469   1.781   5.439 -0.2902 -0.0077 -0.5509
 4514W        W20323   2.436   1.267   4.649  0.0561  0.0253  0.5173
 4515W        W20324  10.465  18.413  12.666 -0.1013  0.1343 -0.2497
 4516W        W20325  15.382   0.467  13.115 -0.1702  0.3209  0.0642
 4517W        W20326  11.271   4.663  13.884  0.1657  0.1028 -0.2653
 4518W        W20327   6.017  11.432  11.831 -0.2901  0.2402  0.1494
 4519W        W20328   1.957   6.594   0.151  0.0576  0.0395 -0.2031
 4520W        W20329  18.582   8.951   1.611 -0.1026  0.0058 -0.3818
 4521W        W20330  17.684  13.362  15.096 -0.1769  0.0277  0.0668
 4522W        W20331   4.535  13.381  14.482 -0.0351  0.0504  0.1192
 4523W        W20332   7.838  10.910  11.492  0.0992 -0.2937 -0.1178
 4524W        W20333   7.649   7.334  12.205  0.1164  0.0840  0.4373
 4525W        W20334   2.114  17.638   0.387  0.1304 -0.0724 -0.0579
 4526W        W20335   2.323   9.604   4.842  0.1590 -0.1357  0.0937
 4527W        W20336  11.080  14.883   0.891  0.1348  0.1591 -0.1580
 4528W        W20337   1.184  16.728  15.014 -0.2901  0.1071  0.0306
 4529W        W20338   1.381   7.514  12.133  0.0255  0.4267  0.0016
 4530W        W20339   7.514  16.600   2.721 -0.0829 -0.4074  0.1311
 4531W        W20340  15.155   1.135   0.854 -0.3848 -0.0677  0.0735
 4532W        W20341  10.829  11.040  15.513  0.0481 -0.2961 -0.0231
 4533W        W20342  14.294  11.090  13.914 -0.1877 -0.1264  0.1530
 4534W        W20343  16.342   5.840   0.014 -0.0815 -0.0115  0.1008
 4535W        W20344  11.512   8.906  12.461 -0.1725  0.2463  0.1449
 4536W        W20345  10.465   7.631  14.897 -0.0347 -0.0100 -0.1638
 4537W        W20346   3.302  15.721   1.609 -0.1423  0.1730 -0.2281
 4538W        W20347  10.679   1.324   1.281  0.0185 -0.1895 -0.0420
 4539W        W20348   2.982   6.812   3.361  0.0418  0.0079  0.0736
 4540W        W20349  11.685  10.540  15.575 -0.1448  0.0344  0.1030
 4541W        W20350  12.036  10.486  12.709 -0.2599 -0.0670  0.1027
 4542W        W20351  13.679   1.668   4.627  0.2423 -0.2879  0.1698
 4543W        W20352  12.490   3.634  13.647 -0.0573 -0.3103 -0.0321
 4544W        W20353  16.321  10.082   1.128  0.2663 -0.2263  0.0793
 4545W        W20354  18.016  14.465  12.699 -0.0913 -0.4256  0.2598
 4546W        W20355  12.805  14.586   5.047  0.1669  0.0096  0.0470
 4547W        W20356  12.409  14.333  14.487 -0.0865  0.0757 -0.3488
 4548W        W20357   6.838   0.370   5.119  0.0482 -0.1092  0.1121
 4549W        W20358   5.040   1.812   3.357 -0.2195  0.1312  0.0912
 4550W        W20359   0.346   8.164  13.005  0.3776 -0.1701  0.0547
 4551W        W20360  10.296  14.869   1.751 -0.2293 -0.0474 -0.1575
 4552W        W20361  15.629  17.377   4.146  0.0481  0.4093  0.1099
 4553W        W20362  10.048   1.992   3.351 -0.1375  0.0471  0.2746
 4554W        W20363   4.025  11.489  12.945  0.1002 -0.0980 -0.1725
 4555W        W20364   3.854   8.452   4.651 -0.1360 -0.0948  0.4543
 4556W        W20365   8.886   3.044  15.217 -0.1184  0.0110 -0.0956
 4557W        W20366  15.915   0.041  14.389  0.2417 -0.0001 -0.2761
 4558W        W20367   9.683  15.621   1.892 -0.1890  0.0526 -0.0366
 4559W        W20368   3.176   8.837  11.518  0.2111 -0.0732 -0.2082
 4560W        W20369   1.970  15.448  11.472  0.0588  0.1159 -0.0532
 4561W        W20370   5.053   4.892  11.433  0.2497 -0.0096  0.0151
 4562W        W20371   6.945   8.929  14.017 -0.0512  0.0653 -0.2381
 4563W        W20372   2.036  13.990   1.287 -0.0767 -0.1473 -0.0811
 4564W        W20373  15.542   8.852  11.657 -0.0420  0.5399  0.0048
 4565W        W20374  15.300   5.369  11.899 -0.0226 -0.0550 -0.3100
 4566W        W20375   1.720   5.760  10.471  0.0485  0.1884  0.1521
 4567W        W20376  15.664  15.879  13.212 -0.0391 -0.0007 -0.1306
 4568W        W20377  16.354   0.284  11.106 -0.1622  0.1074 -0.0398
 4569W        W20378  15.096   5.800  12.234  0.2679  0.2636  0.4723
 4570W        W20379   0.761  12.701  12.455  0.2255 -0.0262 -0.1896
 4571W        W20380  11.287  15.407   0.118  0.0933 -0.1445  0.0462
 4572W        W20381   2.232  13.905   2.254  0.0507  0.2508  0.3528
 4573W        W20382  12.682   3.729  14.562 -0.1488 -0.0004 -0.3017
 4574W        W20383   3.639  17.263  14.047  0.1298 -0.1703  0.0504
 4575W        W20384   5.001   3.075  14.059 -0.0092  0.0130 -0.1822
 4576W        W20385   8.856   1.812  11.780  0.0727 -0.0214 -0.0245
 4577W        W20386   6.583   2.336   3.282  0.3855 -0.2862 -0.3988
 4578W        W20387   7.282   7.313  11.880  0.0188 -0.2921 -0.2767
 4579W        W20388  13.042   7.161   0.639  0.1601  0.1461 -0.1847
 4580W        W20389   9.759   2.712   0.594  0.0168 -0.0655  0.0475
 4581W        W20390  13.188  11.386  14.341  0.1114  0.1578 -0.0688
 4582W        W20391  18.622  17.895  14.817 -0.2803 -0.0171  0.0620
 4583W        W20392   6.430   1.965   4.648  0.0220  0.0339 -0.0675
 4584W        W20393   0.873   2.836   1.083  0.5243 -0.2449  0.0073
 4585W        W20394  11.572  18.655   5.753  0.1574  0.2926 -0.1391
 4586W        W20395  14.644  17.377   0.541 -0.0430  0.2626  0.0243
 4587W        W20396  16.463  11.037  14.352  0.3142  0.0396 -0.2676
 4588W        W20397  15.086  18.241   1.422  0.0122  0.0586  0.0298
 4589W        W20398   8.934   7.790  13.758  0.0929 -0.0777  0.1888
 4590W        W20399  15.004  16.401   3.183 -0.0096 -0.0677 -0.0116
 4591W        W20400   0.707   7.910  12.710  0.0801  0.1703 -0.1113
 4592W        W20401  15.979  10.775  11.017 -0.0687 -0.0854  0.3730
 4593W        W20402   2.990  13.990  15.280  0.2131  0.2028 -0.0082
 4594W        W20403   0.293  18.610   3.241 -0.0632 -0.0867  0.0199
 4595W        W20404   9.215  10.335  13.654  0.2788 -0.0501  0.0117
 4596W        W20405  10.229   5.381  12.515 -0.4279  0.1414 -0.0809
 4597W        W20406  10.699   3.544   5.126 -0.1822 -0.0384  0.0109
 4598W        W20407   1.756   7.859   2.076  0.1684 -0.0635  0.0018
 4599W        W20408  18.483   4.388   1.264 -0.1028 -0.3488 -0.0577
 4600W        W20409  11.279   7.110   0.918  0.1128  0.0631  0.2103
 4601W        W20410   8.433   6.401   4.058 -0.1361 -0.3141  0.2561
 4602W        W20411   8.503  14.668  11.801  0.0940 -0.3425  0.0593
 4603W        W20412   5.031   6.481   0.054  0.1113  0.0655  0.2723
 4604W        W20413   9.595  17.652   1.919  0.0462  0.1680 -0.0953
 4605W        W20414   1.697  11.918  12.447  0.0571 -0.1383  0.0947
 4606W        W20415  14.934   6.785  11.994 -0.2508 -0.0168 -0.0415
 4607W        W20416  12.742   0.613   4.725 -0.2096 -0.3038 -0.4429
 4608W        W20417  13.540   7.061   4.028 -0.0489  0.4368 -0.0402
 4609W        W20418  16.678  18.048   0.632 -0.0987  0.1090  0.1676
 4610W        W20419   7.402  11.745  10.400 -0.1987  0.1443  0.3908
 4611W        W20420   9.569   4.552   1.070  0.0507 -0.2922  0.0592
 4612W        W20421   0.317  16.809   0.540 -0.0113 -0.1818  0.0773
 4613W        W20422  13.184   2.542  13.531 -0.1715  0.0631 -0.1741
 4614W        W20423   8.516  12.012  13.322  0.2591  0.4206 -0.1401
 4615W        W20424   1.230  10.275  11.837  0.2957 -0.0052 -0.3367
 4616W        W20425   4.095  14.889   5.196  0.3998  0.1712 -0.1460
 4617W        W20426  14.140  14.632  12.031 -0.2603 -0.1438  0.0237
 4618W        W20427   3.806   8.489  12.939  0.0792 -0.0082 -0.0948
 4619W        W20428   0.659  15.883   2.614  0.1979  0.0382 -0.0163
 4620W        W20429  13.359  17.477  14.145 -0.0767 -0.1000  0.1879
 4621W        W20430  13.025   7.243   2.828  0.3822  0.1231 -0.0782
 4622W        W20431   9.601   1.192  11.901 -0.2226  0.0152 -0.0608
 4623W        W20432  11.384  10.237   4.393 -0.2169  0.0074 -0.0034
 4624W        W20433  11.741   4.657  10.884 -0.0312 -0.1421 -0.1438
 4625W        W20434  17.359  15.253   4.366 -0.0355 -0.2174  0.2405
 4626W        W20435   4.408  14.248   1.505 -0.0004 -0.1042 -0.0663
 4627W        W20436  15.683   9.181   5.636  0.0314 -0.1879  0.1757
 4628W        W20437  17.558   3.347   1.589 -0.3506 -0.1655 -0.0784
 4629W        W20438  14.388   5.307  12.609  0.2443  0.4699 -0.0425
 4630W        W20439   9.955   7.766   4.579  0.0701 -0.1131 -0.0831
 4631W        W20440  10.428   8.222   4.476  0.0122 -0.1403 -0.2582
 4632W        W20441   8.216  12.493   0.403 -0.0539  0.2059  0.1023
 4633W        W20442   4.648   6.330  15.339  0.0451 -0.0440  0.2263
 4634W        W20443   0.746  12.516  15.021  0.3997 -0.1414  0.0492
 4635W        W20444  16.260  16.203   0.778  0.1618 -0.0403 -0.1596
 4636W        W20445   0.543   1.715  14.928 -0.2761  0.0407  0.1395
 4637W        W20446   9.053  11.862  11.659  0.1613 -0.1458 -0.1008
 4638W        W20447  16.081  15.547  12.375 -0.2070 -0.3236  0.2344
 4639W        W20448  12.578  17.475  12.523 -0.2164  0.0605 -0.2632
 4640W        W20449  16.141   6.001   0.461  0.0815 -0.0822 -0.0649
 4641W        W20450   4.974  12.418   4.141 -0.1224  0.2929 -0.1921
 4642W        W20451   4.545  14.776  13.051 -0.0158 -0.1327 -0.0750
 4643W        W20452   7.502   9.365  13.005  0.1303  0.0202  0.3989
 4644W        W20453   1.846   2.186   1.184 -0.0900  0.1084  0.0194
 4645W        W20454  18.400   9.015   9.369  0.0889 -0.2901 -0.1853
 4646W        W20455   9.433  13.207  11.900 -0.2155  0.0546  0.2713
 4647W        W20456  11.857  15.620  15.057  0.1437 -0.0661  0.1084
 4648W        W20457   3.977  11.287   1.381  0.0788 -0.1776  0.0781
 4649W        W20458  14.924   4.670  15.456 -0.0285 -0.2988 -0.0414
 4650W        W20459   9.672  17.817   4.003 -0.0046  0.1224 -0.0960
 4651W        W20460  18.602  13.311  14.123  0.0840 -0.2150  0.2625
 4652W        W20461  12.066  16.478  14.242  0.1569 -0.3175 -0.0744
 4653W        W20462   1.245  16.853  13.064  0.3630 -0.1781  0.1151
 4654W        W20463   2.764   3.277  11.659  0.2001  0.2022  0.0662
 4655W        W20464  18.007  17.980  11.438  0.2105 -0.1676  0.0221
 4656W        W20465   1.046   3.455  15.512 -0.1296 -0.0189 -0.0167
 4657W        W20466  18.133  10.811   3.863 -0.0844  0.1366  0.0270
 4658W        W20467  16.041  10.513   0.969 -0.4302  0.1172  0.1893
 4659W        W20468  18.390  10.789  13.613 -0.1766 -0.0686  0.1873
 4660W        W20469   1.772   5.437   2.965  0.2280  0.0518 -0.0016
 4661W        W20470   3.288  11.514   4.226 -0.3245  0.0716  0.1815
 4662W        W20471   4.918   3.319  15.430 -0.3635  0.1169 -0.1745
 4663W        W20472   8.379  12.849   2.408  0.2574 -0.1445  0.0857
 4664W        W20473  11.925  14.506   5.074 -0.0148 -0.1433  0.0724
 4665W        W20474  13.765   5.140  13.631  0.1218 -0.2002  0.0644
 4666W        W20475   0.113  14.081   3.900  0.1077  0.2172  0.0604
 4667W        W20476  12.085   3.176  11.685 -0.0571 -0.2644  0.2503
 4668W        W20477   8.779   2.204   0.757  0.0690  0.0801  0.0696
 4669W        W20478   9.593  14.771   3.994 -0.1804 -0.1500 -0.0128
 4670W        W20479  15.051   3.217  13.730  0.2213  0.4527  0.0403
 4671W        W20480   2.215  13.697  13.565 -0.2206 -0.1240  0.0059
 4672W        W20481  13.896  12.377  13.737  0.3099  0.1284 -0.0208
 4673W        W20482   9.146  15.440   4.571  0.0897  0.1132  0.3496
 4674W        W20483  11.545  13.760   0.027 -0.0664 -0.0058  0.0791
 4675W        W20484   2.143  11.809   2.958  0.0206 -0.0698  0.0132
 4676W        W20485  17.761  12.351   0.373 -0.0679 -0.1212  0.1902
 4677W        W20486  13.635  10.561   1.969 -0.0767 -0.0247 -0.0941
 4678W        W20487  11.141   0.128  15.317  0.3468 -0.0543  0.2179
 4679W        W20488   1.375   6.069   0.646  0.0587  0.0406  0.0488
 4680W        W20489   5.366   7.343   4.517  0.0191 -0.0865 -0.1666
 4681W        W20490   6.688   4.507  12.076 -0.1956 -0.2690 -0.0037
 4682W        W20491   4.710  15.887  11.330 -0.0583  0.1456 -0.1423
 4683W        W20492   3.442  16.049   0.971  0.0389 -0.3550  0.0162
 4684W        W20493  15.994   8.753   0.511 -0.1231  0.0013 -0.1441
 4685W        W20494  14.467   7.610   2.739 -0.0252  0.2743 -0.4009
 4686W        W20495  17.220   0.998  12.699 -0.0486 -0.2051  0.1400
 4687W        W20496  10.159   6.283  15.296  0.0995 -0.0045  0.2304
 4688W        W20497   5.086   9.877  11.581  0.1275 -0.1376  0.0475
 4689W        W20498   9.474   3.495  14.323 -0.2027  0.0219  0.1554
 4690W        W20499  12.503   7.517  15.024 -0.0448  0.2933  0.4122
 4691W        W20500   6.576   2.586  11.967 -0.0782 -0.3756 -0.2801
 4692W        W20501   5.781   9.004  11.879  0.0505  0.0845 -0.2618
 4693W        W20502   2.179  16.800  15.230  0.0584  0.0268 -0.3728
 4694W        W20503   7.196  16.456  15.017  0.0463  0.0153 -0.1477
 4695W        W20504   5.271   2.503   3.555  0.1941  0.2242  0.2952
 4696W        W20505   0.210   3.437  15.378  0.1297  0.0219 -0.0666
 4697W        W20506  16.857  16.490  13.693  0.1694  0.0777 -0.2740
 4698W        W20507   9.075   8.931  11.388  0.1436 -0.0193  0.0550
 4699W        W20508  10.502   3.448  12.863 -0.0246 -0.0510 -0.2599
 4700W        W20509   7.914   9.549  11.506  0.0341 -0.1885 -0.0539
 4701W        W20510   6.196  10.684  11.564  0.2783  0.2363 -0.0336
 4702W        W20511  11.179   8.876   5.531  0.2770  0.0324  0.0917
 4703W        W20512   2.616  17.025  13.058 -0.2900  0.3424  0.2672
 4704W        W20513  13.160   3.527  14.789 -0.1809 -0.0375  0.1298
 4705W        W20514  13.210   0.148  15.455 -0.2100 -0.1206 -0.1799
 4706W        W20515   7.723  14.700  10.609  0.1996  0.0392  0.0769
 4707W        W20516   3.718  14.490  13.753 -0.1877 -0.0192  0.0260
 4708W        W20517   7.453   6.111  15.589  0.1466  0.0883  0.0612
 4709W        W20518  16.612   2.022  11.859  0.0431 -0.0824  0.1219
 4710W        W20519   7.450  12.455  14.810  0.5155  0.3097  0.0830
 4711W        W20520  12.162   3.626   5.452  0.0148  0.1741  0.1678
 4712W        W20521   7.554   9.535  12.392  0.1382 -0.4629  0.4295
 4713W        W20522   6.045   9.809   5.502  0.3831  0.3727  0.0430
 4714W        W20523   0.362  17.366   0.270  0.0143 -0.1231  0.1059
 4715W        W20524   4.942   6.191   4.304  0.0003 -0.1125 -0.2124
 4716W        W20525   2.087   8.479  14.079 -0.0539  0.1269 -0.0516
 4717W        W20526  14.389  18.177  15.590  0.2078  0.1157 -0.0718
 4718W        W20527  13.443  14.165   1.115  0.0750  0.0746 -0.2209
 4719W        W20528  15.721  10.855   0.853 -0.2804 -0.0177 -0.0828
 4720W        W20529  12.138   1.175   3.856  0.0284  0.1976  0.1389
 4721W        W20530   0.777   3.750  11.705 -0.1973 -0.0063 -0.2254
 4722W        W20531   6.219   3.805   2.148  0.3330 -0.0251  0.0848
 4723W        W20532   9.570  11.684   2.651 -0.2030 -0.1411  0.1593
 4724W        W20533   9.844   5.275   2.162  0.0383  0.2955  0.1666
 4725W        W20534  11.137   0.529   2.921  0.0672 -0.2390 -0.2479
 4726W        W20535   6.363   3.486  14.429  0.0100 -0.2234 -0.0245
 4727W        W20536   2.683   7.303  14.814  0.1543  0.2144  0.2634
 4728W        W20537   1.263  15.337   2.682  0.0399  0.4644 -0.0092
 4729W        W20538   5.344   1.925  14.214  0.1497 -0.2032  0.0813
 4730W        W20539  10.426   4.525   3.011 -0.1776  0.1634  0.1726
 4731W        W20540   7.742   8.620  14.837  0.0935 -0.0245 -0.2907
 4732W        W20541  11.741   8.671  12.076 -0.2755 -0.0852 -0.1388
 4733W        W20542  13.976   2.032   3.187 -0.0725 -0.0233  0.2413
 4734W        W20543  14.635  11.687  14.571  0.0463 -0.0682 -0.1726
 4735W        W20544   8.399   2.664   1.929 -0.0033  0.5674 -0.0965
 4736W        W20545   5.382   6.938   2.756 -0.0205 -0.1112  0.1469
 4737W        W20546   1.877  15.512  13.222  0.0182  0.0198  0.0214
 4738W        W20547   1.209   7.089  11.153 -0.2309  0.4501 -0.1176
 4739W        W20548  13.342  12.637  14.187 -0.2190 -0.2721 -0.1266
 4740W        W20549   5.164   5.286  13.251 -0.2569 -0.2675  0.1685
 4741W        W20550  11.111  14.565  11.354 -0.2259 -0.0697 -0.0615
 4742W        W20551  10.069   8.884   2.443 -0.1141 -0.2844 -0.1678
 4743W        W20552  17.325  12.411   1.700  0.3567 -0.1623  0.3362
 4744W        W20553  13.274  14.335   5.132 -0.0842  0.0914 -0.0208
 4745W        W20554  10.447   2.907  10.344  0.2732  0.0945  0.0620
 4746W        W20555   1.285  18.083  10.976  0.1081  0.0218 -0.3692
 4747W        W20556  13.682   3.747   3.302 -0.1094  0.0134  0.4268
 4748W        W20557   2.653   4.251  14.265 -0.1059  0.0474 -0.0290
 4749W        W20558   7.710   4.889   4.057  0.3239  0.1300 -0.1582
 4750W        W20559   7.138  15.127   2.578 -0.0837 -0.1333 -0.1613
 4751W        W20560   0.283   6.621   5.069  0.1917  0.0709  0.0232
 4752W        W20561  14.600   0.134  14.206 -0.3098  0.1720 -0.1350
 4753W        W20562  14.348  11.174   0.811  0.1246 -0.2474  0.2955
 4754W        W20563   1.979   1.629   4.558 -0.1646 -0.3441  0.1150
 4755W        W20564  15.222   9.376  11.655  0.1372 -0.0351 -0.1205
 4756W        W20565  14.662   8.645  11.281  0.0968  0.1405  0.1181
 4757W        W20566   8.516  14.200   2.199 -0.1262 -0.0330  0.1178
 4758W        W20567   0.050  10.522  13.892 -0.0205 -0.2460 -0.1175
 4759W        W20568   1.133  12.909   4.751 -0.1198 -0.0339  0.1481
 4760W        W20569  15.591  16.863   0.617  0.1427  0.0442  0.1133
 4761W        W20570   5.290   3.613   1.808  0.0391  0.1784  0.0404
 4762W        W20571  18.508   0.344   2.673  0.1882  0.0162  0.2920
 4763W        W20572   4.984   8.011   3.176  0.1454 -0.0413 -0.2167
 4764W        W20573   8.967  18.306  13.120 -0.2454 -0.2798  0.1309
 4765W        W20574  17.220  14.066   9.869 -0.2090  0.0059 -0.3096
 4766W        W20575  12.891  16.735   3.475 -0.0417  0.0007  0.0539
 4767W        W20576  10.046  16.649   5.763  0.2080  0.0368  0.0148
 4768W        W20577   4.625  14.857   0.669 -0.0885  0.4085 -0.0974
 4769W        W20578  10.869  14.756  15.025  0.3663 -0.0361  0.2899
 4770W        W20579  16.943  15.286  12.624  0.1261 -0.3782  0.0649
 4771W        W20580   8.881  13.608  13.114  0.0251 -0.0252  0.1994
 4772W        W20581   2.258   3.861  13.640 -0.0702  0.0367  0.1428
 4773W        W20582   2.535   6.842  11.350 -0.0138 -0.2155  0.2391
 4774W        W20583   4.789   4.132   4.274 -0.0118  0.1295  0.1299
 4775W        W20584  13.586   3.722  11.627  0.0051 -0.1175  0.2473
 4776W        W20585  10.642  13.544   3.183 -0.0361 -0.1020 -0.4895
 4777W        W20586  13.209   7.640   1.638 -0.1932  0.3094 -0.0649
 4778W        W20587   6.764  12.571   2.470  0.3223  0.2667  0.0912
 4779W        W20588  13.238   4.318  14.167  0.0172 -0.1425 -0.0656
 4780W        W20589  14.211  15.234   2.971 -0.1374 -0.2160  0.2622
 4781W        W20590   8.427  10.497  12.400  0.2415  0.1725  0.0073
 4782W        W20591   1.841  16.509  10.876 -0.0557 -0.0335 -0.0634
 4783W        W20592   7.023   9.887  10.781 -0.0031  0.1522 -0.0298
 4784W        W20593   0.745   4.164  10.311  0.1573  0.0258 -0.3027
 4785W        W20594   2.966   3.920   4.235  0.3219 -0.0824 -0.1147
 4786W        W20595   5.131  14.974   3.729 -0.2504  0.1878 -0.1534
 4787W        W20596   0.687   3.497  15.142 -0.1238  0.0784 -0.3805
 4788W        W20597   9.026   0.179   4.057  0.2660  0.3544  0.0346
 4789W        W20598  13.953  15.641   0.983  0.1030  0.0838 -0.2314
 4790W        W20599  17.020  13.502  10.540  0.2040 -0.0703  0.2365
 4791W        W20600  11.524  14.455   0.047 -0.1435  0.1545 -0.0193
 4792W        W20601   2.961   8.285   1.312  0.3945 -0.1341 -0.1068
 4793W        W20602   5.207  17.246  14.801  0.0752 -0.2547  0.1031
 4794W        W20603  17.490   5.397   1.910  0.3883  0.0550  0.0992
 4795W        W20604   0.143   4.558  11.628  0.0662 -0.1030 -0.1685
 4796W        W20605   7.916   0.500  14.972 -0.0580  0.0474 -0.1232
 4797W        W20606   6.954  11.083  13.665 -0.0249  0.0033  0.4287
 4798W        W20607  17.504   5.145  10.365 -0.3335 -0.2264  0.1808
 4799W        W20608  11.073  18.416   0.041 -0.0862 -0.1296  0.1586
 4800W        W20609  16.967  17.833   3.039 -0.2887  0.2644 -0.0253
 4801W        W20610   7.265  17.479   5.249 -0.0731  0.0753 -0.1088
 4802W        W20611  10.980  10.646   3.186 -0.1028  0.0378  0.1438
 4803W        W20612   3.659   7.691   2.832  0.0602  0.0506 -0.1096
 4804W        W20613  13.190   3.198   1.235 -0.0683 -0.2368 -0.1555
 4805W        W20614  17.527  17.757  12.406  0.0335 -0.1778  0.2980
 4806W        W20615   0.947  13.967  11.292  0.1458 -0.0377  0.0589
 4807W        W20616  16.509   7.624  13.827 -0.1826 -0.2237 -0.1214
 4808W        W20617   2.982  14.498   0.073 -0.0781  0.1412 -0.2131
 4809W        W20618  13.945   9.701  14.104  0.1019  0.2194  0.0587
 4810W        W20619  12.714   6.990   4.463  0.0118  0.2436  0.0715
 4811W        W20620  17.740   2.985  13.156 -0.0116 -0.2567  0.1700
 4812W        W20621   8.334  15.790  15.531 -0.2793  0.2528 -0.1856
 4813W        W20622  13.214   4.537   1.004 -0.1732 -0.1785 -0.0133
 4814W        W20623  15.082   0.988   3.365  0.0327 -0.1301  0.1483
 4815W        W20624   5.294  15.116  10.621 -0.0052  0.1617  0.0729
 4816W        W20625   8.953   2.913   1.526  0.1011  0.0415  0.0424
 4817W        W20626  16.692   1.008  14.634 -0.1843  0.5212  0.1625
 4818W        W20627   8.149  12.012  14.302  0.0426  0.0282 -0.1633
 4819W        W20628  15.500  16.209  12.426  0.3012  0.0978  0.0768
 4820W        W20629   5.503   6.477   1.908  0.0353 -0.1614 -0.1642
 4821W        W20630   5.908  13.208  13.856  0.3491 -0.4865 -0.0064
 4822W        W20631   9.942   4.246  12.957 -0.3092  0.0035  0.2846
 4823W        W20632   2.919   2.543  12.832 -0.3391 -0.0879 -0.0902
 4824W        W20633  17.412   5.969  11.311 -0.0806  0.0320  0.3196
 4825W        W20634   8.699  16.931  12.517 -0.0685 -0.2206 -0.1555
 4826W        W20635   7.178   5.659   3.660 -0.1154  0.1885  0.0986
 4827W        W20636   2.820   5.660  12.773 -0.2067 -0.0388 -0.0964
 4828W        W20637   4.621   2.736   1.982 -0.2215 -0.0387  0.0512
 4829W        W20638  14.446  18.549  12.543  0.0707  0.0300  0.1390
 4830W        W20639   1.661   5.339  14.280  0.1410  0.2107  0.2619
 4831W        W20640   6.445   6.213   5.573 -0.0440 -0.2783 -0.0998
 4832W        W20641   7.844   0.943  13.459  0.2104 -0.0447  0.2881
 4833W        W20642   4.812  11.194  13.547 -0.2890  0.1673 -0.1685
 4834W        W20643   9.921   6.522   5.138 -0.0245 -0.0048  0.2192
 4835W        W20644  12.831   0.175   0.173  0.1411 -0.1877 -0.1672
 4836W        W20645  13.827   5.714   5.009  0.2646  0.0157 -0.0740
 4837W        W20646  18.596   4.015  13.587  0.1974 -0.0084  0.1302
 4838W        W20647   7.335   3.154  14.968  0.1728  0.0881 -0.4356
 4839W        W20648   8.219  14.633  12.187  0.1611 -0.0797  0.1154
 4840W        W20649  16.284   2.897  10.274 -0.2802  0.0727 -0.4860
 4841W        W20650   1.209  18.668  15.079  0.1639  0.1386  0.1183
 4842W        W20651  11.242   8.304   0.245 -0.1489 -0.0155 -0.0851
 4843W        W20652   6.847  12.792  14.099  0.1710  0.2033  0.1025
 4844W        W20653  12.085  12.442   5.050  0.2799 -0.0347 -0.1422
 4845W        W20654   2.872  17.518   0.850 -0.0365 -0.0594 -0.1460
 4846W        W20655   1.207   8.914   3.130  0.0291  0.0754 -0.1566
 4847W        W20656  17.695  15.951  13.698  0.2203  0.1064 -0.0100
 4848W        W20657   8.854  14.268   2.569 -0.3600 -0.3771  0.1072
 4849W        W20658  16.313  10.663   1.918  0.2212  0.1496  0.0180
 4850W        W20659  15.657  16.901  10.806  0.2998  0.2047 -0.2158
 4851W        W20660   5.149   3.474  13.685  0.2848  0.2769  0.3419
 4852W        W20661  18.451  13.506   3.971  0.1439 -0.4895 -0.2087
 4853W        W20662   2.897  12.460  15.223 -0.1380 -0.1172 -0.3284
 4854W        W20663  11.593   0.197  14.967  0.3118 -0.0270 -0.0189
 4855W        W20664   4.266   8.678  13.002  0.5780  0.2018 -0.1459
 4856W        W20665   3.352  12.996  10.423  0.1532 -0.1868  0.4856
 4857W        W20666  10.568   3.824   1.267  0.2525 -0.1816  0.1208
 4858W        W20667  18.475  12.189  15.245 -0.0670  0.0691 -0.0563
 4859W        W20668  11.027   9.922   0.834 -0.0911 -0.1982 -0.1377
 4860W        W20669  13.892  12.773  12.312 -0.1906  0.1054 -0.0596
 4861W        W20670   0.876   9.524  10.218 -0.0702  0.2459 -0.1098
 4862W        W20671  15.615  14.720  10.905  0.0023 -0.0235  0.0064
 4863W        W20672   9.142   5.628  10.989 -0.0672  0.4369  0.0629
 4864W        W20673  17.866  11.340   4.658 -0.0931 -0.2186 -0.3601
 4865W        W20674   0.499   3.483  10.718  0.0007 -0.0884  0.1224
 4866W        W20675   8.577   5.238   1.232 -0.1085 -0.0372  0.0685
 4867W        W20676   7.989   8.758   0.531 -0.2688  0.0967 -0.1766
 4868W        W20677  16.447   0.101  13.431 -0.0821 -0.1261 -0.1404
 4869W        W20678   9.270  11.372  11.791 -0.2249  0.3708  0.0084
 4870W        W20679  10.142  11.405   1.134 -0.0123 -0.1986  0.1353
 4871W        W20680   9.283  17.974   3.607 -0.1933  0.2486 -0.3027
 4872W        W20681  14.975  16.238   0.562  0.1086 -0.2529 -0.2670
 4873W        W20682  17.278   2.579  11.851  0.2242 -0.1812 -0.0920
 4874W        W20683  14.848  13.362   0.458 -0.0478 -0.0042  0.4476
 4875W        W20684  11.800  11.622   4.701 -0.3149  0.2882 -0.0404
 4876W        W20685   7.515  16.939  15.494 -0.1282 -0.3494 -0.1651
 4877W        W20686  18.387  10.528  15.479  0.0761 -0.1115 -0.1849
 4878W        W20687   6.162   5.056  12.879 -0.4130  0.1852 -0.3333
 4879W        W20688   9.482   5.623   3.018 -0.0841 -0.1578  0.0110
 4880W        W20689   8.337   2.504   1.131  0.0689 -0.2487  0.2214
 4881W        W20690   6.256  18.079   4.197  0.0308  0.0323  0.0607
 4882W        W20691   4.997  18.040  14.977  0.1918  0.0600  0.0116
 4883W        W20692   3.529   7.433  14.682 -0.1289 -0.0292  0.3187
 4884W        W20693   4.063   3.403  15.478  0.0176  0.1319 -0.0093
 4885W        W20694   1.513   8.528  10.214  0.0570 -0.0402  0.0251
 4886W        W20695   7.999  10.250   5.354  0.0653 -0.1307 -0.1175
 4887W        W20696  15.660  14.235  10.969  0.0367  0.1784 -0.2838
 4888W        W20697   5.725   4.367  14.646 -0.0898  0.2648 -0.2245
 4889W        W20698  17.667   1.570  15.581 -0.1910  0.0883 -0.1051
 4890W        W20699  12.612   6.644   4.827  0.3237 -0.1319 -0.3471
 4891W        W20700  11.310  10.544   2.788  0.0894 -0.0944  0.3303
 4892W        W20701  10.893   0.872   5.003  0.1590  0.0923 -0.0044
 4893W        W20702  15.764   3.887  14.231  0.1144 -0.0700  0.2881
 4894W        W20703  14.500   4.350  14.687  0.1396  0.0663 -0.3077
 4895W        W20704   8.003  11.409   3.796 -0.1258 -0.1180 -0.0620
 4896W        W20705  13.774  15.079  11.224 -0.1804 -0.1573  0.0470
 4897W        W20706   7.581   5.746   5.213  0.2300  0.1057 -0.3108
 4898W        W20707   0.778   5.684  12.052 -0.0612  0.0749 -0.3766
 4899W        W20708   0.992   1.148  15.612  0.2586 -0.2408 -0.1174
 4900W        W20709   1.837  15.342   5.081 -0.2250 -0.1941 -0.0187
 4901W        W20710  10.530   9.409  15.149  0.3795 -0.1097  0.2740
 4902W        W20711   7.587  10.604  12.231  0.1033 -0.0472 -0.0992
 4903W        W20712   0.881   7.353   3.850 -0.2986 -0.0382 -0.0596
 4904W        W20713  15.772   9.445  15.471 -0.0545 -0.0500  0.0109
 4905W        W20714   9.057  17.327   2.756  0.0595 -0.0514  0.3205
 4906W        W20715   5.351   3.874   2.452  0.2460  0.0732  0.1999
 4907W        W20716  13.967  14.055  12.668 -0.1385  0.3787 -0.0233
 4908W        W20717   1.732   9.491   0.067  0.0593  0.2656  0.1517
 4909W        W20718   4.306  11.976  12.836  0.0383 -0.1794 -0.1481
 4910W        W20719   9.167   7.437  14.126 -0.3039 -0.1327 -0.2131
 4911W        W20720   9.926   4.246   5.101  0.2416  0.0210  0.3758
 4912W        W20721   8.816   6.099   4.415  0.0533 -0.2221 -0.1831
 4913W        W20722   9.993   3.575   2.743 -0.2966 -0.0845  0.0880
 4914W        W20723  13.466   3.251  11.451  0.1063  0.2437  0.0259
 4915W        W20724   3.791   3.786  11.239  0.0516 -0.0626  0.0310
 4916W        W20725  11.368   1.061   1.645  0.0909  0.3323  0.2505
 4917W        W20726   8.586  15.946  11.559  0.0191  0.1719  0.0360
 4918W        W20727  13.882  13.954   0.769  0.0521 -0.0614 -0.0635
 4919W        W20728  15.890  16.632  12.477 -0.0996 -0.1541 -0.2558
 4920W        W20729  12.778  10.529  11.596  0.2417  0.3643 -0.1676
 4921W        W20730  10.271  14.499  13.876  0.0804 -0.0984  0.0268
 4922W        W20731   0.013   9.623  15.023  0.1451 -0.0960 -0.3431
 4923W        W20732  18.368   2.684  13.813 -0.2324  0.1358 -0.1033
 4924W        W20733  13.999   9.531  11.895  0.3123 -0.1986 -0.3160
 4925W        W20734   1.184  17.983   4.743  0.2198 -0.1344 -0.0937
 4926W        W20735   4.435  13.772  13.089  0.2839 -0.1560  0.1467
 4927W        W20736   3.032  13.114   0.722  0.0012 -0.0283 -0.0118
 4928W        W20737  14.065   1.149  12.919 -0.0369 -0.0210  0.0626
 4929W        W20738   4.441   5.972  13.331 -0.0926 -0.1380 -0.0140
 4930W        W20739   3.277   2.278   3.096  0.0398 -0.0370 -0.1024
 4931W        W20740  15.282   3.668  14.447 -0.0587 -0.1939  0.2112
 4932W        W20741   9.740   6.827   1.352  0.2980  0.2966 -0.0898
 4933W        W20742  17.769  10.930  11.896  0.3821 -0.1833 -0.0045
 4934W        W20743  11.354  17.535  11.574 -0.0389 -0.2487 -0.3489
 4935W        W20744   6.976   5.687  13.533 -0.3285  0.0088  0.0299
 4936W        W20745  15.938  15.529   5.098 -0.1980 -0.0474  0.0196
 4937W        W20746   1.243   5.962   3.966 -0.0758 -0.1344 -0.1545
 4938W        W20747  17.868  14.174   0.681  0.0831 -0.2198 -0.0336
 4939W        W20748  17.667  16.359   2.000  0.2435  0.0691 -0.1336
 4940W        W20749   1.648  11.888   3.183 -0.0001  0.0359 -0.0056
 4941W        W20750  18.261  10.402   4.073  0.0976 -0.1220  0.1192
 4942W        W20751   3.829   5.552   0.338  0.2880 -0.2614 -0.1809
 4943W        W20752   9.374  14.745   3.215  0.1118  0.2030  0.1028
 4944W        W20753  18.442  12.466  14.292  0.1321  0.2744 -0.1026
 4945W        W20754   0.312  12.146  13.175  0.1237  0.1031  0.2845
 4946W        W20755  15.279   8.901  14.221 -0.0175 -0.4158 -0.1618
 4947W        W20756  11.062  17.647   5.517 -0.1216 -0.0259  0.3962
 4948W        W20757   5.046  16.154   0.115  0.1410 -0.0372  0.1695
 4949W        W20758   7.070  11.154  11.644 -0.1295  0.1831 -0.0924
 4950W        W20759   1.315   5.991   4.623 -0.0358  0.1030  0.2762
 4951W        W20760  11.698  12.695  11.655 -0.0222  0.0570  0.3314
 4952W        W20761   7.351   9.848  14.149  0.0511  0.2923  0.2965
 4953W        W20762  15.123   3.646  10.493  0.1408 -0.2153 -0.4517
 4954W        W20763   9.361  17.123  15.083  0.0563  0.1485  0.1850
 4955W        W20764   4.863   9.928   4.879 -0.0661 -0.1410  0.0961
 4956W        W20765   1.762   4.390  15.474 -0.0252  0.1057  0.3670
 4957W        W20766   0.061   4.286  15.463 -0.1705 -0.3447  0.0517
 4958W        W20767  17.008  17.015  13.821  0.1641 -0.2819  0.0830
 4959W        W20768   3.630  14.625   1.865 -0.0411 -0.0204 -0.1495
 4960W        W20769   4.933  14.783   5.670 -0.0255 -0.0424 -0.2043
 4961W        W20770  17.590  16.928   0.292  0.1519  0.0634 -0.1309
 4962W        W20771  17.451  15.576  15.473  0.2805  0.0076  0.0087
 4963W        W20772  16.806  17.752   1.803 -0.3155 -0.1328 -0.1130
 4964W        W20773   1.184   9.407  13.312 -0.2098 -0.1566 -0.4892
 4965W        W20774   9.342  14.485   0.326 -0.2816  0.0465 -0.4605
 4966W        W20775   1.155  11.031  14.496  0.0908  0.2276  0.1030
 4967W        W20776   0.703   4.229  11.144  0.3848  0.0033  0.0692
 4968W        W20777   3.725   2.042   4.742 -0.0380 -0.1705  0.1212
 4969W        W20778  14.564  17.138  12.322 -0.0581  0.1304  0.0953
 4970W        W20779   6.556  17.479  10.865 -0.0517  0.1274  0.1452
 4971W        W20780   1.322   1.580  14.718 -0.0822  0.0304  0.0707
 4972W        W20781  12.907  14.713  10.431  0.0354  0.1463  0.3748
 4973W        W20782  15.746   0.949  14.484 -0.1132  0.0860  0.4901
 4974W        W20783  14.828  13.028  13.174 -0.4058 -0.0352 -0.1721
 4975W        W20784   7.897   4.040   0.866  0.3326 -0.1539 -0.0789
 4976W        W20785  12.762  16.922   5.170 -0.1089 -0.2471 -0.0456
 4977W        W20786  17.538   2.469   2.306  0.2788  0.0295 -0.1223
 4978W        W20787  18.115   8.820   4.557  0.1035 -0.2105 -0.0608
 4979W        W20788  13.332   2.540  14.595 -0.1751  0.0087  0.0244
 4980W        W20789   0.250   2.302  10.680 -0.0442  0.0153 -0.0708
 4981W        W20790  17.945   9.917  12.074  0.1592 -0.2817 -0.0104
 4982W        W20791   1.464   1.705   4.576  0.3563  0.0946  0.0261
 4983W        W20792  17.518   6.767   1.912 -0.1515 -0.1008 -0.4827
 4984W        W20793   6.879   9.723  12.355 -0.1587 -0.1367  0.2133
 4985W        W20794  11.332   5.209   4.169  0.0257 -0.0352 -0.0408
 4986W        W20795   0.204   6.768  13.196 -0.3519  0.2507 -0.0060
 4987W        W20796   0.674   0.313   0.201 -0.0099 -0.1883  0.2818
 4988W        W20797  18.670   7.347   1.899 -0.1094 -0.0333  0.1326
 4989W        W20798  12.143   6.800   5.861 -0.0343 -0.2370  0.2906
 4990W        W20799  12.924   8.831  12.520  0.0557 -0.0658  0.0594
 4991W        W20800  11.057   9.196   1.950 -0.2175 -0.1678  0.0147
 4992W        W20801  13.877   7.771  14.022 -0.1359  0.0946 -0.0804
 4993W        W20802  17.599   5.925   3.467  0.0759 -0.3066 -0.3554
 4994W        W20803   7.310   5.784   2.158 -0.1897 -0.0216  0.0990
 4995W        W20804   5.229   2.431  13.506  0.1542 -0.1425  0.0024
 4996W        W20805  14.076   6.191  11.451 -0.2121  0.2795  0.0972
 4997W        W20806   9.989  18.046   4.454 -0.0335  0.2229  0.1564
 4998W        W20807  14.535   4.192   1.988 -0.2069 -0.1239  0.0622
 4999W        W20808  16.433  17.831  13.512 -0.0035 -0.0053  0.0506
 5000W        W20809   4.200   2.244   2.116  0.1238  0.0926 -0.2374
 5001W        W20810   2.493   2.408   5.956  0.4459 -0.0562  0.0647
 5002W        W20811   3.892   5.692  14.071  0.0995 -0.3453 -0.0849
 5003W        W20812  12.406  15.853   3.300  0.0640 -0.3326 -0.1095
 5004W        W20813   7.497  13.071  11.307  0.0608  0.0608  0.1210
 5005W        W20814   4.949  12.173   1.988 -0.2478  0.3083 -0.1190
 5006W        W20815  15.815  11.877   0.430  0.0568 -0.0431  0.1643
 5007W        W20816  14.760  10.250  10.801  0.0594 -0.0250 -0.1273
 5008W        W20817   9.903  15.273   3.953 -0.2973 -0.1116  0.0939
 5009W        W20818  11.705   4.679  13.532 -0.0157  0.1517 -0.3349
 5010W        W20819  14.229  10.961   3.454  0.0761  0.0482 -0.2886
 5011W        W20820  16.868  18.177  12.489  0.2059 -0.1151 -0.1009
 5012W        W20821   8.437  11.641   0.545  0.1343  0.2319  0.3313
 5013W        W20822  17.459   1.757   5.499  0.0660 -0.2611 -0.0087
 5014W        W20823   7.810  16.970  11.550 -0.2628 -0.2385 -0.0095
 5015W        W20824  14.015  18.000  11.628 -0.1216  0.0478 -0.1916
 5016W        W20825   4.916  16.109  13.357  0.0816 -0.1825  0.1996
 5017W        W20826  12.885   3.128   0.710 -0.1043 -0.0724  0.0288
 5018W        W20827   6.943  16.489  12.367 -0.0892  0.1871 -0.3480
 5019W        W20828  18.293   0.577   4.268  0.1235 -0.0359  0.1480
 5020W        W20829  11.146   4.477   5.705  0.0715 -0.0104 -0.1422
 5021W        W20830   0.291   7.690  15.471  0.1854  0.1583 -0.1522
 5022W        W20831  13.345  11.842   4.702 -0.0051 -0.0058 -0.1576
 5023W        W20832  18.269   1.905   1.865  0.1287  0.0669  0.0474
 5024W        W20833   3.711  16.491  14.840  0.2062 -0.0029 -0.2599
 5025W        W20834  10.804  12.637   5.309  0.0859 -0.0790  0.3607
 5026W        W20835  15.574   0.944  15.585 -0.1985 -0.3232  0.1509
 5027W        W20836   1.442   7.525  11.190 -0.0336  0.3151  0.1889
 5028W        W20837   8.197   7.411  10.816  0.2279  0.0014 -0.1437
 5029W        W20838  16.068  11.158   4.669  0.4131  0.1879  0.0922
 5030W        W20839  11.688   1.051   4.712 -0.2528  0.2457 -0.0451
 5031W        W20840  16.459   2.096  14.746  0.0075  0.3215  0.1313
 5032W        W20841   7.312   5.132   1.737 -0.0583 -0.1149  0.0036
 5033W        W20842   5.358  15.933  13.576  0.0984  0.0837 -0.0532
 5034W        W20843  10.264  12.977   3.175 -0.1025  0.1033  0.2015
 5035W        W20844  10.141   2.467  11.710  0.1465 -0.2039  0.0740
 5036W        W20845   7.165   1.048  11.150 -0.0099 -0.2812 -0.1608
 5037W        W20846  14.617  18.625   3.523 -0.4209  0.3669 -0.2100
 5038W        W20847  12.138  12.244  13.265 -0.2351 -0.0424 -0.0502
 5039W        W20848   4.283  16.558   2.907 -0.2262 -0.1233  0.3186
 5040W        W20849   9.266   8.914   2.052 -0.2037 -0.0614 -0.2538
 5041W        W20850  14.213  18.516   0.295 -0.1636  0.2965  0.0274
 5042W        W20851   6.417   0.075   5.916  0.1213 -0.0284  0.3549
 5043W        W20852  12.556  11.669  14.636  0.0548  0.0776 -0.1039
 5044W        W20853   2.693   7.476   0.610  0.2743 -0.1755 -0.0294
 5045W        W20854   7.718  11.402   5.244 -0.0018  0.2123  0.1078
 5046W        W20855   2.473   3.305   1.947  0.0665  0.0832  0.3845
 5047W        W20856  16.412   9.806   1.972 -0.0750  0.1052 -0.0118
 5048W        W20857  15.701  12.170   0.846  0.3383  0.1214  0.0279
 5049W        W20858   5.688   5.866   4.653 -0.0561 -0.1387  0.0085
 5050W        W20859   1.704  13.399   2.754 -0.1528  0.1949 -0.2042
 5051W        W20860  16.340  13.172  12.754 -0.2744  0.0499  0.2033
 5052W        W20861  10.056   8.453   3.623 -0.2733 -0.1289  0.0722
 5053W        W20862   2.161   5.858   0.455 -0.1473 -0.0570 -0.2852
 5054W        W20863   4.832   2.960   2.404 -0.1337 -0.2022 -0.2743
 5055W        W20864  16.606  17.402  12.165  0.2588  0.0516  0.2151
 5056W        W20865  12.423  16.436   4.297 -0.1623 -0.2842 -0.2662
 5057W        W20866   5.271   4.130   2.018  0.0785  0.3782 -0.1296
 5058W        W20867  11.062   2.712  11.720  0.0399  0.0946 -0.3347
 5059W        W20868   6.445  11.881  12.354  0.2174 -0.0066 -0.3059
 5060W        W20869  14.019  10.411  14.630 -0.0043 -0.2613 -0.0667
 5061W        W20870  13.661   1.887  13.896  0.0138 -0.0526 -0.1161
 5062W        W20871  16.651   2.455  14.445  0.2170 -0.1874  0.1315
 5063W        W20872   0.151   1.807   1.769  0.0274  0.0076  0.0636
 5064W        W20873  13.706   4.645   1.026  0.4729 -0.0167 -0.0446
 5065W        W20874  10.542  10.623  10.729  0.1024  0.0145 -0.0133
 5066W        W20875   3.615   3.663   1.116 -0.2459  0.0314 -0.0409
 5067W        W20876   2.636  15.282   2.495  0.2264  0.1849  0.1614
 5068W        W20877   6.211  12.625  12.908  0.1997  0.2034  0.1523
 5069W        W20878   3.355  13.796  14.963 -0.1235  0.0850  0.1403
 5070W        W20879  16.891  17.692  10.751 -0.2859  0.1804 -0.1275
 5071W        W20880   2.661   2.076   5.635  0.0873  0.0406 -0.0186
 5072W        W20881  15.172  17.182  15.267 -0.1563 -0.1780  0.1461
 5073W        W20882   1.874  17.985  12.910 -0.2458  0.1079 -0.1092
 5074W        W20883   1.478   3.910  12.287  0.0409 -0.0535 -0.1217
 5075W        W20884  16.030   4.532  12.505 -0.2112 -0.2066  0.0402
 5076W        W20885   1.264   7.648  11.661 -0.1829 -0.3298 -0.0349
 5077W        W20886  14.919   6.247   4.474 -0.6011  0.0147 -0.0069
 5078W        W20887   2.539   4.956  15.061  0.0711 -0.2017 -0.2584
 5079W        W20888   8.080   5.831  12.297  0.0530 -0.1877  0.0954
 5080W        W20889   6.620   3.974  14.291 -0.0917  0.3508 -0.1316
 5081W        W20890  14.957  12.417  15.211  0.2070 -0.4451  0.1561
 5082W        W20891   3.570   9.638   4.617 -0.0194 -0.1370 -0.0498
 5083W        W20892  13.823   7.362  12.963 -0.3499 -0.0779  0.0477
 5084W        W20893   9.458  10.100   0.433 -0.0944  0.0589 -0.0012
 5085W        W20894   2.949   0.749   1.311  0.1391  0.2070 -0.0393
 5086W        W20895  15.332   3.380   5.188  0.2058 -0.0756  0.1896
 5087W        W20896   0.313   3.163  13.137 -0.1116 -0.1374  0.4115
 5088W        W20897   7.489   7.947  11.241  0.2417 -0.2630 -0.3118
 5089W        W20898  12.767   7.694   0.800 -0.1023 -0.0500 -0.2166
 5090W        W20899  15.268   6.097  10.271  0.0182  0.1905 -0.3236
 5091W        W20900  10.119   1.997  10.987 -0.1136 -0.0237  0.4870
 5092W        W20901  11.819  12.328   0.945 -0.2456 -0.0217 -0.2413
 5093W        W20902   6.777   4.686   2.527  0.1642 -0.3294 -0.0852
 5094W        W20903   0.027  16.577   4.541  0.1475  0.0420 -0.1139
 5095W        W20904  13.218  17.317   4.418 -0.4113  0.1388  0.1052
 5096W        W20905   9.189  18.059   1.978 -0.1418  0.3343 -0.1705
 5097W        W20906  17.527  17.307   4.433  0.0559  0.0232  0.1400
 5098W        W20907  17.978   0.877   5.742 -0.0155  0.1196  0.0882
 5099W        W20908   2.277   3.792   1.906  0.0282  0.2052  0.0691
 5100W        W20909   4.323  17.526   2.369  0.0133  0.1929  0.1373
 5101W        W20910  11.157  11.963  11.324  0.1340  0.0134  0.1297
 5102W        W20911   9.971  14.357  13.044 -0.0325  0.1170 -0.1657
 5103W        W20912   8.550   2.303   5.069 -0.1826  0.3519  0.3121
 5104W        W20913  17.639   1.150  12.499 -0.0600  0.1946 -0.0456
 5105W        W20914  11.257   7.385   5.731  0.2695  0.2920  0.0137
 5106W        W20915  17.144  14.134  15.615  0.0858 -0.1843  0.0166
 5107W        W20916  15.651   6.204   3.699  0.0814  0.2019  0.0768
 5108W        W20917  15.041   0.881   2.672 -0.0436  0.1403  0.0833
 5109W        W20918  16.207  17.149  11.927  0.0017 -0.1582 -0.0837
 5110W        W20919   4.044   2.202   4.396 -0.0512  0.1732 -0.0090
 5111W        W20920   0.262  14.008  14.592  0.3246  0.0193  0.1343
 5112W        W20921   2.266  15.221  12.684 -0.0096  0.2908  0.1529
 5113W        W20922   3.163   0.003   0.538  0.1400 -0.0863 -0.5261
 5114W        W20923  17.268   1.726   2.518  0.1701  0.1445 -0.1622
 5115W        W20924  15.243  10.791   1.109 -0.2360  0.0942  0.2468
 5116W        W20925   3.065   4.765   3.347  0.2588 -0.1602  0.2778
 5117W        W20926   2.796   4.336  11.265  0.0761  0.1014  0.1364
 5118W        W20927  14.155   3.521   1.461  0.0989 -0.2120 -0.1121
 5119W        W20928  10.512   2.965  13.050  0.1651 -0.0251 -0.0659
 5120W        W20929   8.217  16.766  11.281  0.1173 -0.1003 -0.0849
 5121W        W20930   1.015   5.999   1.946  0.2786 -0.1101  0.1384
 5122W        W20931  14.188  15.214   5.136 -0.1001  0.2294  0.1601
 5123W        W20932  13.366  14.216  10.971  0.1330 -0.3937  0.1993
 5124W        W20933  17.160  10.921   4.695  0.0022  0.0763  0.1360
 5125W        W20934   6.422  16.763  11.758 -0.2043  0.2759  0.1077
 5126W        W20935  10.408   4.182   4.172  0.0306  0.0642  0.2555
 5127W        W20936  13.808   6.685   2.778  0.3277  0.1382 -0.1983
 5128W        W20937  17.527   4.162  13.178  0.0210  0.3040  0.0462
 5129W        W20938   9.616  17.176   1.120 -0.1053 -0.2291 -0.0903
 5130W        W20939  17.828   5.433  14.964 -0.0907  0.1778  0.0289
 5131W        W20940   5.998  13.642  12.412 -0.0331 -0.0111  0.2839
 5132W        W20941   1.667  16.077  15.141 -0.2777 -0.0123 -0.2746
 5133W        W20942   9.384   2.508   3.517 -0.1615  0.0298  0.2882
 5134W        W20943   1.605   2.675  14.471 -0.2910 -0.2330 -0.0893
 5135W        W20944   0.587  17.140   0.878 -0.0552  0.2068 -0.3491
 5136W        W20945  11.202   3.023   0.033  0.2183 -0.0456 -0.2448
 5137W        W20946   6.577   0.091  12.567 -0.1055  0.2272  0.4849
 5138W        W20947   3.034   0.192   4.703 -0.1265 -0.4336  0.2162
 5139W        W20948   2.288  14.234  11.583  0.3264 -0.0400 -0.2837
 5140W        W20949  18.328  16.180   4.691  0.2367  0.1100  0.0755
 5141W        W20950  10.149   7.395  11.141  0.2214 -0.0489 -0.0923
 5142W        W20951  14.844   9.361   1.864  0.2882 -0.1546  0.0260
 5143W        W20952   9.730   4.331   9.737  0.0048 -0.1835 -0.1308
 5144W        W20953  15.821  12.075  12.416 -0.0414  0.1915  0.0309
 5145W        W20954  16.339   6.130  10.980  0.0432 -0.2087  0.2883
 5146W        W20955  15.336   9.362  13.262 -0.0170 -0.0897 -0.0321
 5147W        W20956  12.350  12.124  12.099  0.0141 -0.3453  0.2579
 5148W        W20957  10.247  12.527  12.551  0.2011  0.3340  0.2715
 5149W        W20958  13.612  18.391  15.240  0.0272  0.0480  0.2248
 5150W        W20959   4.166  11.807  14.745 -0.0209  0.0081 -0.5726
 5151W        W20960   0.581  10.768   5.111 -0.3754  0.1738 -0.1926
 5152W        W20961   5.704   9.449  11.589 -0.1806  0.0094  0.2313
 5153W        W20962   1.363   6.451  12.238 -0.0540  0.3301  0.0202
 5154W        W20963   8.990  15.453   1.304 -0.1766  0.0894  0.0506
 5155W        W20964   6.104  14.580  11.688  0.1968 -0.2479 -0.0339
 5156W        W20965   5.081   5.893  11.212  0.0076 -0.2494 -0.1159
 5157W        W20966  10.977  15.582   4.885 -0.0491  0.2143  0.0465
 5158W        W20967   3.849  15.951  15.225 -0.1501  0.1527 -0.1721
 5159W        W20968   1.713  18.342  11.119 -0.0581  0.0165 -0.2416
 5160W        W20969   9.000  12.560  15.259  0.0054 -0.1030  0.0686
 5161W        W20970  10.220   9.452  13.544 -0.1653  0.0355 -0.0887
 5162W        W20971  12.116  11.789  10.295 -0.0355  0.0751  0.1130
 5163W        W20972  17.658  12.176  10.840 -0.2597  0.0138 -0.0111
 5164W        W20973   9.314   5.805   0.396  0.1090  0.0297 -0.0887
 5165W        W20974   9.635   9.469   4.126 -0.0321 -0.0038 -0.0622
 5166W        W20975   8.861   4.884  13.757 -0.0708 -0.0386  0.2602
 5167W        W20976   4.916   7.229  13.413  0.0758 -0.2221 -0.1632
 5168W        W20977  18.125   9.106   2.284  0.1819  0.0064  0.0884
 5169W        W20978  13.780  10.292  10.848 -0.2854  0.0479  0.1110
 5170W        W20979  14.063   3.797   0.088 -0.1670 -0.0810  0.0017
 5171W        W20980   8.864  15.877  14.971  0.1472 -0.4370 -0.4328
 5172W        W20981  17.749   8.627  12.838  0.1869  0.0537  0.1486
 5173W        W20982   1.669  17.629  12.640  0.0689 -0.0243  0.1541
 5174W        W20983  17.367  12.464  11.544 -0.2482  0.4346 -0.2057
 5175W        W20984  12.071   0.508  11.064  0.1199  0.1260 -0.3121
 5176W        W20985   9.581  15.788   3.040  0.1639  0.0336 -0.1670
 5177W        W20986  18.001  10.610   1.649  0.1524  0.3302 -0.0238
 5178W        W20987   4.115  17.853   0.368 -0.1600  0.2841 -0.0696
 5179W        W20988  15.445   6.263   4.645 -0.0535  0.1272  0.0432
 5180W        W20989   6.889  12.810   4.359  0.2403  0.2287 -0.3596
 5181W        W20990   0.571   2.529  14.320 -0.2566 -0.0782  0.2056
 5182W        W20991   1.832  14.114   0.395  0.0110 -0.0253  0.0383
 5183W        W20992  16.759   4.671   4.419  0.3721  0.0372 -0.2585
 5184W        W20993  12.222  12.554  12.357  0.0224 -0.2439 -0.0999
 5185W        W20994   3.885  18.460  10.983 -0.2060  0.1525  0.1920
 5186W        W20995   2.841  14.935   4.557  0.3539  0.2171  0.1997
 5187W        W20996  10.011   7.216  10.548  0.1654 -0.1040 -0.2305
 5188W        W20997   8.793  13.009   1.182  0.0800  0.3082  0.0428
 5189W        W20998   7.807   8.982   3.743  0.1991 -0.2460  0.0098
 5190W        W20999   1.734   0.034  11.479  0.1298 -0.0457  0.0978
 5191W        W21000   5.109  10.777  10.040  0.0235 -0.0603  0.0208
 5192W        W21001   0.690  10.322   1.257 -0.2149 -0.5936  0.1813
 5193W        W21002  14.987  17.633   9.398 -0.1165  0.0764  0.1201
 5194W        W21003   8.360   8.548   0.932 -0.1982  0.1534 -0.1278
 5195W        W21004  10.631   1.855  12.960  0.0016 -0.2450 -0.3161
 5196W        W21005   6.897  13.247  12.567 -0.0819  0.0950 -0.2493
 5197W        W21006  13.457   9.913  12.629  0.2226 -0.1947 -0.0839
 5198W        W21007  13.355   9.508   4.259 -0.3498  0.0511 -0.2251
 5199W        W21008   0.306  11.370  12.634  0.2157 -0.1642  0.3325
 5200W        W21009  18.065   9.097   0.808  0.3703  0.1229 -0.1530
 5201W        W21010   1.556   9.015  12.502 -0.1200  0.1858 -0.0712
 5202W        W21011   8.371   7.004  12.789  0.1695  0.2388  0.0575
 5203W        W21012  16.394  17.514   1.665  0.2216  0.2474  0.2716
 5204W        W21013  13.401  14.010   2.320 -0.0750 -0.1393  0.0242
 5205W        W21014  10.747   7.351  12.780  0.2302  0.0117 -0.0945
 5206W        W21015   5.028   3.796  15.562  0.0331  0.4578  0.0367
 5207W        W21016  14.011   4.206   4.441  0.0597 -0.1375 -0.2747
 5208W        W21017   0.392  15.915   1.455 -0.1016 -0.1811  0.0803
 5209W        W21018  13.248   4.920   4.277 -0.0839 -0.3076  0.3041
 5210W        W21019   3.323   3.781  14.349  0.1587 -0.2032 -0.0851
 5211W        W21020  14.950  14.673   3.604  0.0190 -0.0130 -0.1828
 5212W        W21021  18.032  10.242  12.397  0.1906 -0.4930 -0.0539
 5213W        W21022   3.837   9.608   2.584 -0.3429 -0.0765 -0.1755
 5214W        W21023   6.288   3.054   2.755  0.0219 -0.0544  0.0591
 5215W        W21024  17.789   5.404  12.348 -0.1708  0.0448  0.1818
 5216W        W21025   9.790  11.483   0.409 -0.1552  0.1374  0.1264
 5217W        W21026   0.984   8.782  10.964  0.0742 -0.1082  0.1197
 5218W        W21027  17.889   7.751  10.447 -0.2810  0.1437  0.2572
 5219W        W21028   9.631  12.698   3.421  0.2720  0.1537  0.0206
 5220W        W21029  14.881  15.887   4.752  0.2503  0.0512  0.0593
 5221W        W21030  17.571  10.182   1.492  0.2041 -0.2818 -0.0973
 5222W        W21031  17.351  13.335  11.910 -0.1289  0.2180  0.1204
 5223W        W21032  14.825   3.108  11.188 -0.3970  0.1318 -0.3082
 5224W        W21033  13.232   1.223  13.361  0.3409 -0.0006 -0.0744
 5225W        W21034   2.557  13.223   3.927  0.0563 -0.0194 -0.0016
 5226W        W21035  10.362  17.562   3.931 -0.0083 -0.2529  0.1350
 5227W        W21036  16.896  12.470   3.034 -0.0423  0.0946 -0.2216
 5228W        W21037  16.934  16.470  10.916 -0.0185 -0.2138 -0.2386
 5229W        W21038  13.063   9.496  12.079 -0.1864 -0.1364 -0.0780
 5230W        W21039   5.879   7.036   4.633 -0.1302 -0.1192 -0.2093
 5231W        W21040  16.068   9.711  11.972  0.0121  0.1094  0.0665
 5232W        W21041   2.235   7.084   1.094  0.2914 -0.0531 -0.1560
 5233W        W21042  18.220  10.676  11.675 -0.0314  0.3491  0.2177
 5234W        W21043  15.705  16.387   1.341  0.1509  0.1374 -0.0216
 5235W        W21044   9.524  17.816  12.785 -0.0297  0.2750 -0.0501
 5236W        W21045   9.697   4.138  14.895  0.0642 -0.1344 -0.2090
 5237W        W21046   5.972  10.725  12.070  0.1459  0.1553  0.3344
 5238W        W21047  12.859   1.233   0.028  0.3180  0.2988  0.0819
 5239W        W21048   8.670   8.715  12.254 -0.4900 -0.0182 -0.3921
 5240W        W21049  17.306  13.868   1.720  0.0913  0.1384  0.0613
 5241W        W21050   4.248   5.055   5.013 -0.0297 -0.0684  0.2556
 5242W        W21051   4.446   5.711   3.807  0.1863  0.1121  0.1491
 5243W        W21052  15.777   1.689  12.659 -0.0235  0.0035  0.0307
 5244W        W21053   9.919  14.055   3.459 -0.1022  0.2329 -0.1670
 5245W        W21054  11.999   2.248   1.888 -0.0725 -0.0540 -0.0485
 5246W        W21055   6.749   4.764  11.618 -0.0895 -0.3438  0.0966
 5247W        W21056  14.321   3.450   3.298  0.0618  0.1235 -0.1120
 5248W        W21057   8.156   9.922  13.631  0.1172 -0.1425  0.1256
 5249W        W21058   1.156   8.788   1.405  0.2911  0.3897  0.2057
 5250W        W21059  11.185  14.081  15.497  0.0721  0.1500  0.3806
 5251W        W21060   6.672   2.401   1.414 -0.0619 -0.1566  0.0288
 5252W        W21061  15.261   8.148   4.221 -0.0528  0.4530 -0.2280
 5253W        W21062   2.748   3.856   1.938 -0.0330  0.2074  0.2677
 5254W        W21063   7.667  12.127   1.040  0.3872  0.1485  0.1377
 5255W        W21064   9.247   0.666  13.678  0.2725  0.3274 -0.2568
 5256W        W21065  10.208   4.184   5.574 -0.2721  0.4832  0.0858
 5257W        W21066  13.123   2.071  14.425 -0.0523 -0.1056 -0.1807
 5258W        W21067  12.235  11.165   1.641  0.2679  0.1024  0.0528
 5259W        W21068   0.903  12.163  13.333  0.1514 -0.1571  0.3475
 5260W        W21069   4.545  17.141   1.329  0.1409  0.2821  0.2288
 5261W        W21070   2.434   8.698   4.539 -0.0994 -0.0504 -0.1924
 5262W        W21071  10.647  13.861  12.390 -0.0466  0.3948  0.3166
 5263W        W21072   9.247   7.718  15.382 -0.1742 -0.3323  0.1255
 5264W        W21073  13.940   1.480   5.081 -0.1061 -0.0378  0.3372
 5265W        W21074  10.195  16.556   0.542 -0.0889  0.2496 -0.1730
 5266W        W21075  14.031   6.855   0.852 -0.1867 -0.1109 -0.0943
 5267W        W21076   7.045  15.229  15.339 -0.3357  0.0793  0.0458
 5268W        W21077   1.221  11.922  12.798  0.2278 -0.0247 -0.0989
 5269W        W21078   6.456   4.426   0.767 -0.2925  0.1168  0.0191
 5270W        W21079  11.347  14.541  15.193  0.1420  0.1932  0.0913
 5271W        W21080  14.716  12.171   3.855 -0.1291 -0.1168  0.1384
 5272W        W21081  13.710   7.059   2.445 -0.2211  0.3091  0.0694
 5273W        W21082  18.613   3.241   0.155  0.1076  0.0303  0.2924
 5274W        W21083  17.979  11.258  12.401 -0.1116 -0.6707 -0.3257
 5275W        W21084   2.718   3.510   3.437 -0.3467  0.0615 -0.1540
 5276W        W21085   2.527   7.506   5.347  0.0728 -0.0915 -0.1373
 5277W        W21086   6.071  13.158   4.810 -0.2491  0.1183 -0.2160
 5278W        W21087   0.724   7.955   1.657 -0.2338  0.1030 -0.1237
 5279W        W21088   5.895   1.107   0.083 -0.0416  0.0746 -0.2621
 5280W        W21089   6.646   8.915  10.867 -0.1004 -0.0378 -0.1125
 5281W        W21090  11.476  17.296   5.505  0.0514 -0.1828 -0.1713
 5282W        W21091   6.224   3.855  14.033  0.1063 -0.1568  0.1210
 5283W        W21092  18.441   6.941   3.640  0.3072  0.2703 -0.2336
 5284W        W21093  15.419   9.626   2.580 -0.0426 -0.2225  0.2812
 5285W        W21094   3.754   1.730   0.149  0.0990 -0.2019 -0.0317
 5286W        W21095   7.298  13.062  10.760 -0.1122 -0.0767 -0.1020
 5287W        W21096   3.884  10.541   1.887  0.0138  0.0566 -0.0244
 5288W        W21097   4.718   2.755   2.942 -0.0357 -0.1268  0.2389
 5289W        W21098   8.114  13.257  13.658  0.0298 -0.1197 -0.1570
 5290W        W21099   4.057   0.107   2.122  0.2160  0.0839 -0.0421
 5291W        W21100  17.013  17.908   0.983  0.1080 -0.1553 -0.0300
 5292W        W21101  12.807   9.295   4.942  0.0652 -0.4236 -0.2721
 5293W        W21102   2.973   9.112   3.883 -0.1513  0.1919 -0.0544
 5294W        W21103   9.660   9.801  14.759  0.0529 -0.2532  0.1091
 5295W        W21104  12.572   6.086   0.826  0.0484 -0.0195 -0.2214
 5296W        W21105  16.539  18.369  14.790 -0.3099  0.0939  0.1211
 5297W        W21106  17.006   0.685   4.238  0.2162  0.1080  0.1900
 5298W        W21107   1.146  16.851  13.858 -0.0758  0.1370  0.1529
 5299W        W21108   2.792  18.186   0.944  0.2438 -0.1251 -0.0651
 5300W        W21109   9.913  15.712   0.897  0.3897  0.0089 -0.0502
 5301W        W21110  12.978  14.922   1.685  0.1326  0.1251 -0.2547
 5302W        W21111   7.767  16.858  13.127 -0.1738  0.3292  0.0848
 5303W        W21112  13.403  13.373   0.483 -0.2551  0.2077 -0.1764
 5304W        W21113   3.880   8.567   2.059 -0.0725 -0.0440 -0.2175
 5305W        W21114  16.628   3.447  14.765  0.0028 -0.2890 -0.0380
 5306W        W21115  16.286   2.529   0.637 -0.0232 -0.1393  0.2727
 5307W        W21116  11.032   1.006  12.496 -0.1375  0.0362 -0.0212
 5308W        W21117   5.307  16.010   2.829  0.1679 -0.0919 -0.2846
 5309W        W21118  13.077   1.618   5.460  0.1408  0.2529 -0.0008
 5310W        W21119  10.369   3.424  13.415  0.2468  0.2765  0.2256
 5311W        W21120  14.917  17.725  11.844  0.0126 -0.1483  0.2901
 5312W        W21121  14.781  15.842  12.799  0.1922  0.2676  0.1560
 5313W        W21122   5.363   3.360   0.035  0.2011 -0.1379 -0.0098
 5314W        W21123  15.677   0.137   3.686 -0.3386  0.1486 -0.0339
 5315W        W21124   1.042   5.888  13.215  0.1143  0.0752  0.1714
 5316W        W21125  16.214   6.234   3.306 -0.0225  0.0662  0.1097
 5317W        W21126   4.329  15.413  11.184  0.0762  0.0956 -0.0838
 5318W        W21127   6.270   7.564   0.833  0.2447 -0.0680 -0.0624
 5319W        W21128   3.813   5.996  14.751 -0.1583  0.2518  0.5909
 5320W        W21129  14.659   5.936   2.088 -0.0622 -0.1202  0.1469
 5321W        W21130   3.470   4.390  13.690 -0.1124 -0.2796  0.0626
 5322W        W21131   1.551  10.997  13.665  0.2178  0.0142  0.3386
 5323W        W21132   7.061  17.334   0.586  0.1340 -0.2661 -0.0511
 5324W        W21133   0.006   2.331  15.058  0.1511 -0.1577 -0.1654
 5325W        W21134   0.347  15.920   2.009 -0.0170  0.1074 -0.1880
 5326W        W21135  18.167   2.251  13.465  0.2468 -0.0204 -0.0243
 5327W        W21136  11.037  14.664   2.221 -0.3557  0.1792  0.0293
 5328W        W21137  13.141  12.623  11.889  0.0576 -0.1322  0.0455
 5329W        W21138  12.067  10.856   1.218 -0.2469  0.2660 -0.2276
 5330W        W21139   7.893  10.219   3.993 -0.2517 -0.0246  0.2005
 5331W        W21140   9.016  15.785  14.160 -0.1360 -0.1602  0.1433
 5332W        W21141  10.295  17.919   0.525  0.2177 -0.0431 -0.1393
 5333W        W21142   1.491  15.311  11.330 -0.1806 -0.1941 -0.0677
 5334W        W21143  17.173  13.151   2.130 -0.0566 -0.2797 -0.0574
 5335W        W21144  16.988  16.993   2.881  0.1427  0.0841  0.0554
 5336W        W21145   4.944   2.944   0.627  0.0735 -0.1783  0.2747
 5337W        W21146  16.492  11.439  13.297 -0.0756  0.0476  0.0808
 5338W        W21147   7.755  10.633  15.410  0.1765  0.0091 -0.2157
 5339W        W21148   8.490   0.461   0.205  0.2003  0.0859 -0.4184
 5340W        W21149   8.920   5.925  11.275  0.0151  0.0556 -0.0321
 5341W        W21150  17.871   3.266   3.402 -0.1656  0.1205  0.2191
 5342W        W21151  15.553   9.553  12.860  0.0661 -0.0646  0.2504
 5343W        W21152  11.727   8.465  14.652  0.2359 -0.0589 -0.1282
 5344W        W21153   2.106  16.803  13.791 -0.0227 -0.0120  0.0201
 5345W        W21154  14.954   0.723  13.460 -0.0248  0.0207 -0.2075
 5346W        W21155  11.590  12.296   3.603  0.0862 -0.0162 -0.1029
 5347W        W21156   9.481  15.539   1.369 -0.2538 -0.1494  0.1398
 5348W        W21157   0.315  14.411  10.770 -0.0503  0.0486  0.0930
 5349W        W21158   6.104  11.303   2.944 -0.1829 -0.1804 -0.3275
 5350W        W21159  10.644  17.352   4.284 -0.0923  0.3980  0.0959
 5351W        W21160  11.866   4.041   5.573 -0.3213 -0.3080  0.0436
 5352W        W21161  13.181  10.685   0.303  0.0016 -0.2433 -0.0574
 5353W        W21162   0.850  10.838  11.182  0.0911 -0.0064  0.0269
 5354W        W21163  18.200  17.438  14.054  0.0810  0.0716  0.0650
 5355W        W21164   3.165   7.024  14.042  0.1169 -0.0328  0.1833
 5356W        W21165   1.765  14.975   4.798 -0.3284  0.0610 -0.1009
 5357W        W21166   1.042   6.341  15.216  0.2076 -0.0956  0.1315
 5358W        W21167  18.558   5.548   1.667  0.3333  0.2690 -0.0832
 5359W        W21168  14.947  15.062   1.411  0.0569  0.1853  0.0232
 5360W        W21169   9.374   9.416  11.272  0.3085  0.2172  0.0516
 5361W        W21170   2.699   8.655  11.247 -0.3645 -0.0710 -0.2068
 5362W        W21171   6.954   3.021   5.180  0.1028  0.1239 -0.0915
 5363W        W21172   2.103  14.758   3.884  0.1672  0.0416  0.1492
 5364W        W21173   5.712   0.366  14.993  0.2145  0.2689 -0.0774
 5365W        W21174   9.481  16.813   5.703 -0.1818 -0.0795 -0.1275
 5366W        W21175   9.908   4.499  12.507  0.0992  0.2302 -0.4805
 5367W        W21176   8.549  13.796  12.716  0.0852  0.3320 -0.2665
 5368W        W21177   5.345  11.331  11.173 -0.1003  0.0823 -0.1682
 5369W        W21178  13.866   9.699   3.585 -0.2115 -0.1847  0.0744
 5370W        W21179   5.871  17.576  12.783 -0.2017  0.1055  0.0166
 5371W        W21180  11.749  13.495   5.137 -0.4044  0.0606  0.1808
 5372W        W21181  15.482   0.796  11.967 -0.2529 -0.0372  0.2566
 5373W        W21182  16.196   7.994  13.819 -0.0629 -0.0956 -0.1888
 5374W        W21183   6.244  10.684  15.594  0.3345 -0.1480 -0.3252
 5375W        W21184   7.921  14.203  11.962 -0.0052  0.2567 -0.1025
 5376W        W21185   9.500   0.406   1.751  0.0110 -0.0165 -0.2678
 5377W        W21186  10.842  15.106  11.167 -0.3052  0.0133  0.1563
 5378W        W21187  12.814  10.696   4.755 -0.0434 -0.1957 -0.0899
 5379W        W21188   8.707  14.493  15.285  0.2157  0.3025 -0.0133
 5380W        W21189  15.833  14.792   1.971  0.0997  0.0479  0.0566
 5381W        W21190  11.141   9.922   2.429 -0.3196 -0.1134  0.1600
 5382W        W21191  17.633   2.861   3.294 -0.1529 -0.0264  0.0392
 5383W        W21192  14.532   7.298   2.351  0.1607 -0.0146  0.2583
 5384W        W21193   0.020  17.856  15.330  0.1424 -0.0701 -0.0402
 5385W        W21194   7.681   2.854  14.003  0.0085  0.0853 -0.0328
 5386W        W21195   4.671  12.075   5.254 -0.1167  0.3075 -0.0036
 5387W        W21196   6.488   8.900   1.652  0.0731  0.0214 -0.1390
 5388W        W21197  18.153   7.883  10.018 -0.0815 -0.3151 -0.0922
 5389W        W21198   6.332  17.044   3.025 -0.1745  0.2167  0.1541
 5390W        W21199   0.906   6.885   2.119 -0.2847 -0.1877  0.2508
 5391W        W21200   6.051   7.495   3.285  0.1018 -0.0365 -0.5592
 5392W        W21201   2.162   8.036   1.881 -0.0057  0.2071 -0.2336
 5393W        W21202   9.353  14.910   4.725 -0.3491  0.0186  0.1761
 5394W        W21203   9.262   2.294  11.269 -0.0977  0.0865  0.3247
 5395W        W21204   9.072   8.530  13.321  0.2041  0.0609  0.2411
 5396W        W21205   3.185   3.189   1.535 -0.0484  0.0858 -0.3818
 5397W        W21206  10.855  15.014   1.776 -0.0156  0.0554 -0.2646
 5398W        W21207   8.231   7.645   1.830 -0.0906  0.1133  0.3275
 5399W        W21208  17.695  15.347   1.910  0.2614  0.1150 -0.1571
 5400W        W21209  16.709  18.601   1.827  0.0644  0.2552 -0.1027
 5401W        W21210   5.607   3.950   3.864  0.1967 -0.0943 -0.1253
 5402W        W21211   7.977   8.566   2.734  0.0935  0.1639 -0.0924
 5403W        W21212  15.834   6.419  12.386  0.0787 -0.0861  0.1100
 5404W        W21213   6.364  13.361   2.935  0.1257 -0.3451 -0.0782
 5405W        W21214  17.160   0.567  11.767  0.2702  0.2657 -0.0550
 5406W        W21215   7.712   9.147  14.784 -0.0555  0.1748  0.2476
 5407W        W21216   0.852   9.117   3.980 -0.2102 -0.0518 -0.0986
 5408W        W21217  16.881   1.949  12.584  0.0214 -0.1506 -0.0916
 5409W        W21218   9.398  10.399   1.216 -0.1148  0.1547 -0.2830
 5410W        W21219  14.373  17.642   1.823 -0.0456 -0.1013 -0.4289
 5411W        W21220  15.799   9.811  12.432 -0.1509  0.0971  0.0329
 5412W        W21221  11.350   7.032  14.385 -0.3355 -0.3327 -0.4960
 5413W        W21222   1.964   4.858   0.168  0.0983  0.5519 -0.1336
 5414W        W21223   5.936   9.576   3.561 -0.2684 -0.0780 -0.1496
 5415W        W21224  11.827  17.716  14.476 -0.0130 -0.2213 -0.0341
 5416W        W21225  17.390  17.763   3.381  0.0014  0.0255 -0.1963
 5417W        W21226  14.521   1.880  12.851  0.0184 -0.1081  0.0012
 5418W        W21227  11.446   3.591  12.253 -0.1814  0.0970 -0.1445
 5419W        W21228   4.237  15.046  10.805 -0.0681  0.0613  0.0503
 5420W        W21229   4.070   0.970   0.103  0.1884 -0.1765 -0.1537
 5421W        W21230   0.944   5.398   3.908  0.2267 -0.0793 -0.2805
 5422W        W21231   4.839  18.228   1.633  0.1486 -0.0441 -0.2542
 5423W        W21232   8.798  13.301   0.724 -0.1475 -0.2562 -0.1171
 5424W        W21233  10.595  10.616   5.881  0.3508 -0.2301 -0.3740
 5425W        W21234  16.620   8.220   9.484 -0.0641 -0.1162  0.1071
 5426W        W21235   6.151  11.575   1.442 -0.1870  0.0532 -0.1144
 5427W        W21236  15.380  17.222  11.013  0.3190 -0.1837 -0.0626
 5428W        W21237   8.993   8.098   1.336  0.1979 -0.2766  0.1200
 5429W        W21238  14.230   1.087   4.917  0.1811 -0.0240 -0.0831
 5430W        W21239   3.699   5.753   3.878 -0.2681 -0.3178  0.1424
 5431W        W21240  17.736  10.874  11.376 -0.0324  0.0606 -0.0273
 5432W        W21241   8.274   3.515  14.344 -0.0840 -0.4291 -0.1660
 5433W        W21242   0.298   6.269   4.240  0.3051  0.0512  0.0547
 5434W        W21243  10.027  15.836  12.703 -0.0316 -0.0648 -0.2335
 5435W        W21244  12.528   1.483  13.498  0.2033 -0.0948  0.2557
 5436W        W21245   8.209  14.503  15.238  0.1093  0.0501 -0.3222
 5437W        W21246   8.751   4.044   2.564  0.0752 -0.4563  0.3349
 5438W        W21247   8.199  14.737  14.708  0.0284 -0.0754 -0.2655
 5439W        W21248   3.167  17.320   0.145  0.1365 -0.0259 -0.1129
 5440W        W21249  12.616  13.926  10.495  0.1122  0.1633 -0.2074
 5441W        W21250   9.055   7.117   4.699 -0.1919 -0.2904  0.2551
 5442W        W21251   5.813   7.678   0.633 -0.0779  0.3244  0.2784
 5443W        W21252   5.182  14.718   0.003 -0.1957  0.0683  0.2744
 5444W        W21253  17.889   7.775  11.826 -0.1522  0.1051  0.2572
 5445W        W21254   7.810   3.378  13.287  0.1273 -0.2403 -0.1553
 5446W        W21255   5.095  15.747   0.572 -0.0137 -0.0342  0.0223
 5447W        W21256  10.463  16.729   1.883  0.0023  0.2401 -0.2220
 5448W        W21257  14.246   0.510  13.966  0.0926  0.2693 -0.1684
 5449W        W21258   5.534   5.202  11.413  0.1219  0.0333 -0.2490
 5450W        W21259   4.701  16.146   1.581  0.1889  0.1982 -0.1765
 5451W        W21260   6.051   4.404   5.218 -0.3763 -0.0632 -0.1343
 5452W        W21261  18.384   3.958  12.557  0.1606 -0.1961  0.0894
 5453W        W21262  13.964  17.005   0.238  0.2525  0.2778 -0.0422
 5454W        W21263  10.096   0.172  13.721  0.0031  0.0016  0.1368
 5455W        W21264   1.791   5.881   2.691 -0.4824  0.1382 -0.0798
 5456W        W21265   2.356   0.315   0.360  0.1741 -0.1038  0.4003
 5457W        W21266  12.212  10.526  11.807  0.1305 -0.3365  0.1481
 5458W        W21267   4.931  14.804  10.331 -0.3148  0.0132  0.1451
 5459W        W21268   7.176  11.946   3.756  0.0906  0.1843 -0.0595
 5460W        W21269  12.281  14.275  12.773  0.0701  0.0376 -0.2866
 5461W        W21270   3.971  10.548   2.488 -0.2191  0.0741 -0.2397
 5462W        W21271  11.524   6.445  12.392  0.0934  0.2182  0.3099
 5463W        W21272   2.373  12.184   5.171  0.1854  0.1706 -0.1049
 5464W        W21273   3.817   2.241  13.082  0.0863 -0.2821  0.0280
 5465W        W21274  13.004  11.846  15.252 -0.0424  0.1869  0.0235
 5466W        W21275   3.115   6.503   5.231  0.0798 -0.1644  0.0729
 5467W        W21276   2.981   7.984   2.513 -0.0448  0.0449  0.1783
 5468W        W21277   2.017   2.409  13.491  0.3287  0.0308  0.1206
 5469W        W21278   3.890  13.707   3.358 -0.1702 -0.1326  0.0820
 5470W        W21279   6.238  11.419  11.172  0.0194  0.1375 -0.0966
 5471W        W21280  11.737   0.366  13.547 -0.2665 -0.1465  0.2776
 5472W        W21281  17.092   8.426   2.938  0.0116  0.0609  0.0138
 5473W        W21282   1.810  10.061   3.704 -0.1173  0.0226 -0.1156
 5474W        W21283   4.336  18.278  14.521 -0.0591 -0.0282 -0.0750
 5475W        W21284  12.114   7.350  11.094  0.2657  0.0388 -0.2462
 5476W        W21285   9.041  18.478  13.780 -0.1340  0.0136 -0.0101
 5477W        W21286  15.127   6.045  13.269 -0.1759 -0.0967  0.1322
 5478W        W21287   6.232   0.566   4.529 -0.2206  0.2580 -0.1432
 5479W        W21288  11.181   1.495   2.937  0.1204 -0.0416 -0.0578
 5480W        W21289   8.725   9.663  12.537 -0.0579  0.0028  0.0730
 5481W        W21290   0.819   4.221  13.823 -0.2416  0.0272  0.1517
 5482W        W21291  15.453  15.789   5.136  0.4049  0.0463 -0.0970
 5483W        W21292   9.098   4.416  11.675 -0.1796 -0.0544  0.1266
 5484W        W21293   7.720  12.244  10.385  0.2889 -0.0540 -0.0071
 5485W        W21294   6.535  10.215  12.298  0.1262 -0.2261  0.6544
 5486W        W21295   4.541  13.115  13.073 -0.0248  0.0773  0.0102
 5487W        W21296  18.624  10.783  11.448 -0.0741 -0.1336  0.0996
 5488W        W21297   7.469   7.113   3.493 -0.0478  0.0171 -0.3349
 5489W        W21298  14.402  13.644  12.289  0.1174 -0.5052 -0.2607
 5490W        W21299   6.492  17.951  12.726  0.0544  0.2794 -0.2143
 5491W        W21300  12.760  14.151  14.196  0.4656 -0.1638 -0.4026
 5492W        W21301  11.795  16.018   6.071  0.2535 -0.0632 -0.0480
 5493W        W21302   5.568  10.324   3.852 -0.0786 -0.0203 -0.5185
 5494W        W21303   4.627   0.451  11.173 -0.1162 -0.1675  0.1709
 5495W        W21304  15.343  17.885  11.587  0.0877  0.5790 -0.0700
 5496W        W21305   1.476   4.589  14.971  0.2655  0.1220 -0.0218
 5497W        W21306   4.373   0.774  13.657  0.0399  0.2123 -0.0589
 5498W        W21307  16.430  18.564   0.910  0.1765 -0.1156 -0.0219
 5499W        W21308   8.346  15.447  11.423  0.1782 -0.1041  0.1473
 5500W        W21309   2.990  13.808   0.211  0.1927 -0.0595 -0.0538
 5501W        W21310   2.088   9.209  13.674  0.0576 -0.1241  0.1003
 5502W        W21311  13.225  11.931  10.551 -0.2683  0.0063 -0.0862
 5503W        W21312  16.618  12.606   0.653  0.1086 -0.4144 -0.2062
 5504W        W21313   1.597   9.510   2.637 -0.1097  0.2201 -0.1615
 5505W        W21314  13.054   2.736  12.532 -0.1181 -0.1428 -0.0986
 5506W        W21315  15.201  16.785   9.519  0.3202 -0.1405  0.2338
 5507W        W21316   4.113  14.711   0.540 -0.0390 -0.0058 -0.5417
 5508W        W21317  10.105  17.534  10.618 -0.0689  0.0287 -0.1304
 5509W        W21318   2.934  13.546  13.309  0.0181 -0.0579  0.2460
 5510W        W21319  14.178  10.639   4.816  0.0794 -0.0751  0.2809
 5511W        W21320   1.084  15.553   0.739  0.0613 -0.1375 -0.0047
 5512W        W21321   1.206   4.651   2.721  0.1927 -0.2288  0.1477
 5513W        W21322   1.468  15.966  12.457  0.0916  0.0695  0.2363
 5514W        W21323  10.232  10.170   3.795 -0.0238 -0.0509  0.1821
 5515W        W21324   2.995  17.020  11.338  0.1448 -0.1655 -0.2894
 5516W        W21325   1.689  17.814  11.256  0.0045  0.1195 -0.2262
 5517W        W21326   5.022   1.590   5.688  0.3946  0.0571 -0.1566
 5518W        W21327   9.813  10.820  12.120 -0.1653 -0.1716 -0.0898
 5519W        W21328  15.036   7.124   0.784  0.2985  0.0223  0.2108
 5520W        W21329   0.388  14.624  12.225 -0.0140 -0.2396 -0.2468
 5521W        W21330  15.798   2.968  10.418 -0.2048  0.4603  0.1628
 5522W        W21331  16.072   0.495   2.237  0.1080 -0.1157  0.2117
 5523W        W21332   6.074   5.431  15.308  0.0872 -0.3427  0.1702
 5524W        W21333   7.897  17.444   5.031  0.1026 -0.1519 -0.0052
 5525W        W21334   2.279   5.761   4.221  0.0574  0.0445 -0.1330
 5526W        W21335   6.590   8.444   0.134  0.0524  0.0816  0.1919
 5527W        W21336   5.739  17.523  14.775 -0.2436 -0.0378 -0.1348
 5528W        W21337   8.473  11.555   3.685 -0.0197  0.2105  0.1475
 5529W        W21338  10.353  11.661  13.398  0.0845  0.0580  0.2214
 5530W        W21339  10.669   2.416   3.942 -0.2405 -0.0646  0.3480
 5531W        W21340   4.123   8.441  11.129  0.1880  0.1926 -0.2415
 5532W        W21341  15.946   8.515   4.464  0.0772 -0.0549  0.0190
 5533W        W21342  14.265   6.956  15.602  0.0605 -0.0528 -0.3227
 5534W        W21343  10.189  15.857  11.220 -0.3010  0.1301  0.0934
 5535W        W21344   6.785  10.574   3.847 -0.3233 -0.0723 -0.1428
 5536W        W21345  17.478   6.034  10.755 -0.1617  0.0561 -0.0865
 5537W        W21346   7.741   2.175  11.875  0.1814 -0.0539  0.0872
 5538W        W21347  11.367  15.512   4.315 -0.2941  0.0174  0.1902
 5539W        W21348   7.338   4.809   0.902 -0.0810  0.1986  0.1149
 5540W        W21349  16.057  17.740  10.773 -0.0427  0.1605  0.1206
 5541W        W21350  12.277   8.910  12.940 -0.1863  0.2375 -0.2584
 5542W        W21351  17.779  12.232  13.296 -0.1607  0.0286 -0.0812
 5543W        W21352   8.985   1.284   2.816 -0.1716 -0.1969  0.1535
 5544W        W21353  13.148  12.103   0.494  0.1602 -0.1114  0.0362
 5545W        W21354   2.821  18.405   2.591 -0.1364  0.0624 -0.1055
 5546W        W21355  14.219   5.992   4.049 -0.0715 -0.1211  0.0212
 5547W        W21356   3.356   1.439  12.573 -0.2884  0.1708  0.1791
 5548W        W21357   6.642   0.436   1.215  0.2314 -0.0040  0.1258
 5549W        W21358  13.608   3.493  15.078  0.2443 -0.0905 -0.0953
 5550W        W21359   9.639   3.071  14.434 -0.0435  0.0454  0.2899
 5551W        W21360   6.429   7.349  12.940  0.0246 -0.0323 -0.0895
 5552W        W21361   5.240  12.017   4.271  0.2699 -0.1664 -0.1852
 5553W        W21362   8.465   6.945   3.346  0.0340  0.0035  0.2225
 5554W        W21363   9.930  13.326   1.088  0.1154  0.0970 -0.5716
 5555W        W21364   3.337   9.376   5.440 -0.0450  0.0714  0.2303
 5556W        W21365  18.256   2.386  12.854 -0.2027 -0.0769 -0.1606
 5557W        W21366  11.533   4.227   5.193 -0.1686  0.1292 -0.1001
 5558W        W21367   8.039   9.050  11.609 -0.0773  0.0502 -0.0974
 5559W        W21368   1.840  17.486  14.162 -0.4026  0.1248  0.2280
 5560W        W21369  13.309   3.023  13.172 -0.0259 -0.0726 -0.3763
 5561W        W21370   7.270   5.175  10.902 -0.0970  0.1694  0.3052
 5562W        W21371  12.102   4.893  15.102 -0.2022 -0.1888 -0.2531
 5563W        W21372   5.530   7.765  11.146  0.0470  0.1043  0.0042
 5564W        W21373  14.042   1.425  15.307  0.0362 -0.0856 -0.0293
 5565W        W21374  10.588   5.046  13.989  0.0556  0.0925 -0.3932
 5566W        W21375   1.357   4.937  12.000 -0.3116 -0.1266 -0.1766
 5567W        W21376  13.444   6.204  10.805 -0.0740 -0.3596  0.0959
 5568W        W21377  13.581  15.315  15.459 -0.0259  0.2345  0.3340
 5569W        W21378  14.066  17.294   5.363  0.1698  0.1284  0.1406
 5570W        W21379  12.040   8.543   4.104  0.1805 -0.2223 -0.0672
 5571W        W21380   5.361   2.484   5.846  0.5321  0.0019 -0.0064
 5572W        W21381  15.171  14.414  15.448 -0.0656  0.0344  0.1582
 5573W        W21382   1.519  18.327   1.443  0.2173  0.3498  0.1914
 5574W        W21383   5.947   6.028   4.256 -0.1063 -0.2324  0.1116
 5575W        W21384  14.603  17.654   5.197 -0.0408  0.1833 -0.0165
 5576W        W21385   6.160  17.165  14.825  0.0534  0.4065  0.0956
 5577W        W21386   1.061  18.606   2.590 -0.0497  0.1099 -0.3174
 5578W        W21387   0.537  10.597   1.734  0.3649  0.3940 -0.2572
 5579W        W21388   9.755   0.366   0.342  0.1261 -0.3392 -0.3393
 5580W        W21389  11.431   6.209  12.832 -0.1563 -0.3249 -0.3050
 5581W        W21390  16.793  15.321  10.823 -0.0941 -0.0581  0.1859
 5582W        W21391  13.131  15.122  14.738  0.1760 -0.0960 -0.0178
 5583W        W21392  17.209   1.799   0.104 -0.0647  0.1188  0.1768
 5584W        W21393  14.109   1.916  14.268  0.1242  0.0143 -0.0120
 5585W        W21394  17.579  10.506   0.726  0.4409  0.4302  0.0506
 5586W        W21395  17.418  11.654   3.108 -0.0342 -0.1737 -0.2287
 5587W        W21396   1.482   3.800   4.335 -0.0657 -0.2435  0.1525
 5588W        W21397   3.119  15.095   2.598  0.0821 -0.1053 -0.1080
 5589W        W21398   5.813   2.006   0.392  0.3013 -0.0846 -0.0980
 5590W        W21399  15.165  11.906   3.809  0.1083 -0.0198  0.0958
 5591W        W21400  17.211   6.897  10.921  0.1514  0.0586 -0.0560
 5592W        W21401   7.476   9.569  14.573 -0.1570 -0.1943 -0.1295
 5593W        W21402  16.978   8.454   1.209 -0.2250  0.0052  0.0569
 5594W        W21403   7.762  12.918   3.397  0.1810 -0.1991 -0.1034
 5595W        W21404  18.311   7.514   0.774 -0.3420  0.0000 -0.1358
 5596W        W21405   7.371   0.398   4.230  0.0796 -0.1702 -0.0142
 5597W        W21406   9.197   2.832   4.339  0.0185  0.0606 -0.1197
 5598W        W21407  11.287  11.657  15.007  0.0577 -0.1050  0.1523
 5599W        W21408   5.339  15.044   2.851  0.1107 -0.2090 -0.0129
 5600W        W21409  10.718  13.636   4.614  0.1483 -0.1316 -0.0727
 5601W        W21410  18.014  10.085   3.080 -0.1603 -0.0474 -0.1811
 5602W        W21411   4.836   9.775   1.538 -0.0090 -0.2752 -0.1031
 5603W        W21412  18.440   0.882   9.908  0.2854  0.1474 -0.0481
 5604W        W21413  14.748   1.533   1.855 -0.0788 -0.0129 -0.0662
 5605W        W21414   5.017   5.008   2.949  0.0310  0.1105  0.0196
 5606W        W21415  12.813  18.621   4.468 -0.0128 -0.1651  0.2077
 5607W        W21416   3.664   4.744   1.530 -0.2139  0.2324 -0.0625
 5608W        W21417   0.232  12.092   2.685 -0.1709 -0.1766 -0.0256
 5609W        W21418   4.514  13.635  11.309 -0.1274 -0.0352  0.1218
 5610W        W21419   2.385  17.773  12.777  0.1739  0.2685  0.1460
 5611W        W21420   6.639   1.480   3.909  0.1235 -0.1416 -0.2042
 5612W        W21421   3.680   4.420  10.465 -0.2572  0.0565 -0.0064
 5613W        W21422   6.455  15.717   3.751 -0.0936 -0.2208  0.0565
 5614W        W21423   7.672  16.951  14.135  0.0479  0.3555 -0.1884
 5615W        W21424   2.142  10.506   0.022  0.0881 -0.1749  0.1052
 5616W        W21425  10.680  16.283  14.758  0.0839 -0.0194 -0.1238
 5617W        W21426   5.737   5.710   5.124  0.1061  0.1214  0.2746
 5618W        W21427  14.384  11.967   1.302  0.2177  0.1356  0.1452
 5619W        W21428   7.113   3.988  14.092  0.1312 -0.1308 -0.0364
 5620W        W21429  10.501  14.890   3.111  0.0895 -0.3293 -0.2097
 5621W        W21430   8.048  15.997   4.286 -0.1254 -0.5338 -0.1878
 5622W        W21431  14.402  17.119   0.957 -0.2613 -0.4063 -0.1499
 5623W        W21432   5.668   5.492   5.574 -0.0256  0.0853  0.1413
 5624W        W21433   6.252  17.941   3.483 -0.1021  0.0993  0.0433
 5625W        W21434  11.214  18.651  12.333 -0.0869  0.0155  0.2376
 5626W        W21435   8.828  17.682  13.399  0.0430 -0.1801 -0.0724
 5627W        W21436   0.876  11.136   2.967  0.1822 -0.4018 -0.2024
 5628W        W21437   4.342  14.898   3.869 -0.0062  0.0599 -0.2696
 5629W        W21438  12.247   5.786   2.571 -0.0935  0.1051 -0.1411
 5630W        W21439  13.621  10.181  12.137 -0.1613  0.0417 -0.1435
 5631W        W21440   5.390  10.978  13.657 -0.0847 -0.0670 -0.2497
 5632W        W21441  18.661   4.532   1.908 -0.1409 -0.0310  0.0117
 5633W        W21442   9.430  11.372  12.817 -0.0128  0.0310  0.3285
 5634W        W21443  12.786   3.562   1.424  0.2589  0.2766  0.1511
 5635W        W21444   2.230  16.262  10.640  0.1126 -0.0375  0.0606
 5636W        W21445   3.524  14.850   5.190  0.0585 -0.2670  0.1024
 5637W        W21446   8.384   4.068  15.254 -0.0729 -0.4052 -0.1699
 5638W        W21447   0.798  17.026   2.520 -0.1013  0.0340  0.3024
 5639W        W21448   7.611   0.797   5.617  0.0224 -0.0384 -0.0490
 5640W        W21449  10.392  15.496  15.046 -0.2426 -0.1087 -0.0179
 5641W        W21450  18.111   0.293  11.302  0.4778  0.0184 -0.3190
 5642W        W21451  13.229  11.777  11.509  0.2420 -0.1451  0.0411
 5643W        W21452   7.526   8.645   3.515  0.2026  0.1006 -0.1260
 5644W        W21453   6.979  15.700  15.506 -0.0258  0.1567 -0.1995
 5645W        W21454   9.452   6.488   2.494 -0.2632 -0.2987 -0.0691
 5646W        W21455  15.579   5.234   2.666 -0.0047 -0.0942 -0.3014
 5647W        W21456   8.468  16.130   2.779 -0.0306 -0.0114  0.0962
 5648W        W21457  11.035   7.159  11.487  0.0265 -0.0389  0.0440
 5649W        W21458  13.995   5.229  12.291 -0.1571 -0.1852 -0.1307
 5650W        W21459  16.641   4.337  11.060  0.3454 -0.0951  0.3673
 5651W        W21460  10.638   6.121  14.018  0.0100  0.0956  0.1499
 5652W        W21461  11.152  15.054  15.293  0.3792  0.3915 -0.4193
 5653W        W21462   8.431   3.900   2.213 -0.2344  0.0302  0.3199
 5654W        W21463  18.126   8.372   1.514  0.2006  0.1466  0.1065
 5655W        W21464  15.209  15.085   3.751  0.0615 -0.0348  0.4651
 5656W        W21465  15.842   7.055  13.484 -0.1565 -0.3596 -0.1295
 5657W        W21466  17.985   6.177  10.790 -0.3054 -0.0173 -0.0925
 5658W        W21467   8.732   1.498   4.629  0.3023  0.0506  0.0587
 5659W        W21468   8.034  11.234  13.862 -0.0023 -0.0513 -0.0491
 5660W        W21469   1.004  15.714  12.494 -0.0391 -0.0190  0.2306
 5661W        W21470   3.338   9.354  14.992  0.2751  0.3386 -0.0896
 5662W        W21471   9.153  11.333   4.760 -0.1991  0.0191  0.2867
 5663W        W21472  12.140   6.526  12.516 -0.0209 -0.1911 -0.1800
 5664W        W21473   6.772   6.541  14.785  0.2312 -0.1210  0.0465
 5665W        W21474  17.997   0.492  13.546  0.0933  0.0176 -0.0591
 5666W        W21475  14.361  15.708   5.134  0.0029  0.0093  0.5083
 5667W        W21476  11.707  17.715   0.298 -0.0056 -0.3697 -0.1464
 5668W        W21477   6.675   6.948  11.256 -0.1865 -0.0817  0.0529
 5669W        W21478   6.375   8.992   2.568  0.0781 -0.1033  0.2197
 5670W        W21479  10.122  15.426   4.980  0.1527 -0.1075  0.0623
 5671W        W21480   7.379  11.729  12.148  0.0998  0.1608 -0.1531
 5672W        W21481  13.485  18.065   3.622 -0.3465  0.3301 -0.0872
 5673W        W21482   9.217   9.063  13.754 -0.0466 -0.0698  0.0692
 5674W        W21483  13.007  16.705   0.222  0.1377  0.1561 -0.0674
 5675W        W21484  16.399  12.474   4.045 -0.0500 -0.1206 -0.1044
 5676W        W21485   3.137  17.269  13.107  0.1475  0.1007  0.0584
 5677W        W21486   7.843  17.313   1.903 -0.1171  0.0152  0.0474
 5678W        W21487   5.100   7.945   1.873 -0.0669 -0.0062 -0.0927
 5679W        W21488  10.199   3.346   2.348 -0.0788  0.0462  0.2673
 5680W        W21489   8.603  13.090   4.609 -0.3199 -0.0280 -0.1419
 5681W        W21490  15.948   1.567   0.463 -0.1208 -0.3471 -0.0769
 5682W        W21491  10.971   7.602   4.805 -0.0942 -0.1903  0.0780
 5683W        W21492   0.121  17.209  12.002 -0.0609 -0.0159  0.1049
 5684W        W21493  14.078  17.479  11.426 -0.0667 -0.0666 -0.0917
 5685W        W21494   4.094  14.937  11.305  0.0168 -0.4871  0.1738
 5686W        W21495  17.520  13.247  13.449 -0.0532 -0.1044  0.2125
 5687W        W21496  17.327   7.423  14.172  0.0026 -0.1368 -0.0184
 5688W        W21497  16.719   7.756   0.719 -0.5286  0.0262  0.0749
 5689W        W21498  17.636  12.464   4.113  0.1009 -0.0663  0.0677
 5690W        W21499  13.589  13.899  13.253 -0.0461  0.0926  0.1031
 5691W        W21500  14.855   4.185   5.027  0.3384  0.1958  0.0025
 5692W        W21501   1.518  13.828   0.055 -0.3759 -0.2884  0.1956
 5693W        W21502  16.350   2.892   5.061  0.1165 -0.0735 -0.2110
 5694W        W21503   7.911  12.317  14.574 -0.0297 -0.1372 -0.1661
 5695W        W21504   9.825  12.818   0.139 -0.1283 -0.0543  0.0308
 5696W        W21505   4.807   7.925  10.134 -0.0247 -0.0547 -0.1678
 5697W        W21506  12.261   6.907  10.875 -0.1095  0.0786 -0.1827
 5698W        W21507   7.975   9.853   3.521 -0.2295 -0.0024  0.0405
 5699W        W21508   8.897  12.264   3.074  0.1115  0.0502  0.3720
 5700W        W21509  11.737   8.150   0.298  0.4252  0.1169  0.0388
 5701W        W21510   6.256   6.143  14.103  0.1991  0.3385 -0.0382
 5702W        W21511   3.918   4.434  15.433 -0.1732  0.0182 -0.0193
 5703W        W21512   7.294  11.673   2.060 -0.2428  0.3008  0.0307
 5704W        W21513   0.327   2.457  15.424  0.3265 -0.0693  0.0788
 5705W        W21514   9.689  16.853   2.395  0.3659 -0.1017 -0.0759
 5706W        W21515  13.307   4.220  12.706  0.1244  0.0071 -0.1656
 5707W        W21516  18.075  15.848   5.068 -0.2148  0.0860  0.0582
 5708W        W21517   4.816   2.298  11.220 -0.0503  0.1820  0.1194
 5709W        W21518  12.578   6.561   2.863 -0.3744  0.0321 -0.1522
 5710W        W21519   6.491   0.976  13.173 -0.0480  0.3514  0.0935
 5711W        W21520  16.841   7.571  13.372 -0.0440 -0.0104 -0.2309
 5712W        W21521  10.431   9.874  14.127  0.0137 -0.0163  0.0474
 5713W        W21522   4.991   2.269  13.035 -0.1381  0.0023  0.1201
 5714W        W21523   4.123  14.912  11.798 -0.0691 -0.0720  0.1624
 5715W        W21524  13.271   5.797   2.422 -0.2514 -0.2618  0.1828
 5716W        W21525   3.068  18.157   1.344 -0.2132  0.0485 -0.0636
 5717W        W21526   6.233  12.188  12.717  0.0461  0.2848  0.1386
 5718W        W21527  13.069  11.756   3.594 -0.2144  0.0905 -0.1663
 5719W        W21528  16.871  14.928  13.349 -0.1763 -0.1032 -0.1880
 5720W        W21529   3.395   0.727   3.284  0.0293 -0.2673  0.0766
 5721W        W21530   2.456  11.298  14.601 -0.1310  0.0480 -0.1929
 5722W        W21531   8.240   7.671   5.223  0.1590 -0.3253  0.1147
 5723W        W21532  13.399   0.053   5.768 -0.2961 -0.2672  0.0764
 5724W        W21533   0.481  14.875   1.774  0.0398 -0.1508  0.1604
 5725W        W21534   1.468   6.515   1.443  0.0145 -0.2651  0.0375
 5726W        W21535  14.469   6.330  14.938  0.0307  0.3152 -0.2693
 5727W        W21536  14.710   6.011  12.031  0.0104  0.1191  0.1287
 5728W        W21537   6.893   9.912   1.049  0.1529 -0.0549  0.0013
 5729W        W21538   0.972   7.674  10.927 -0.4133  0.1584 -0.0999
 5730W        W21539  12.333   9.488   0.736 -0.1265 -0.2345  0.1476
 5731W        W21540   5.492   7.213  14.510 -0.1857  0.0417  0.3753
 5732W        W21541  13.562  17.944   2.757  0.0111 -0.1420  0.0131
 5733W        W21542  16.041  12.589  13.446  0.1178 -0.1371  0.0096
 5734W        W21543  14.780  13.873  11.683  0.1106 -0.0273  0.2059
 5735W        W21544  16.296   0.014  12.055  0.3682 -0.1299  0.6816
 5736W        W21545   4.981  15.085   4.611  0.1300 -0.0592  0.1104
 5737W        W21546  17.446  15.598  13.206 -0.2745  0.0639  0.3375
 5738W        W21547   3.557  10.298  15.146 -0.3879 -0.3588  0.1136
 5739W        W21548  18.622   9.672   3.945 -0.1631 -0.0986  0.0790
 5740W        W21549  17.136  13.774   3.177  0.2765  0.0812 -0.2878
 5741W        W21550  13.399  13.883  12.065 -0.4235 -0.1825 -0.1213
 5742W        W21551   8.238   7.647  15.313 -0.2094 -0.2156 -0.0019
 5743W        W21552  15.090   1.803   2.918  0.0829  0.0491 -0.0164
 5744W        W21553  15.744   2.463   1.946  0.2075 -0.0389  0.3678
 5745W        W21554   7.500   1.054   1.045  0.0058 -0.5403  0.3793
 5746W        W21555   8.618  16.210   1.170 -0.2658 -0.0182 -0.0950
 5747W        W21556   9.154   6.717  13.574 -0.2831 -0.3064 -0.0529
 5748W        W21557   4.487  12.563   4.074 -0.0132  0.0457  0.0587
 5749W        W21558   5.527   8.487   9.477  0.0925  0.2531 -0.2529
 5750W        W21559  10.873   4.223  13.223  0.3368 -0.0359 -0.1318
 5751W        W21560   5.591  16.763   3.522 -0.2060  0.2779  0.0082
 5752W        W21561  15.291  17.810   1.759  0.1704  0.0606  0.2378
 5753W        W21562   0.960   2.675   1.662  0.2551  0.1125  0.2163
 5754W        W21563  18.390  14.413   3.735 -0.1945 -0.0920  0.0206
 5755W        W21564   9.033  10.867   4.630  0.0506  0.2635 -0.1004
 5756W        W21565  16.852  10.113  15.307 -0.2076  0.0498 -0.1450
 5757W        W21566  10.219  12.025   3.640  0.2756  0.1195  0.0863
 5758W        W21567   2.603   1.442   4.160  0.3517 -0.1737  0.0518
 5759W        W21568  11.682   6.380   2.844 -0.1564 -0.1613  0.1553
 5760W        W21569   2.632  11.541   4.141 -0.1021  0.0111  0.2283
 5761W        W21570  14.808   1.043   5.004  0.1057  0.0310  0.1817
 5762W        W21571  16.826  15.939   4.806  0.0412  0.1630 -0.2261
 5763W        W21572   9.589   3.313  15.423 -0.0604 -0.2087 -0.1739
 5764W        W21573  14.648  14.991  11.829 -0.1146 -0.1170  0.0372
 5765W        W21574  10.005  16.797   2.942  0.1936 -0.0096  0.0981
 5766W        W21575   0.762   3.522  13.168 -0.0590 -0.0445 -0.0909
 5767W        W21576  12.560  16.234   5.627 -0.1137  0.2310  0.0070
 5768W        W21577   4.875   0.214  15.271 -0.1194 -0.4487 -0.2183
 5769W        W21578   4.209  13.676  12.337 -0.2201 -0.3217  0.1856
 5770W        W21579   0.227   9.432   0.876  0.2234  0.2836 -0.1131
 5771W        W21580   8.392  11.762  15.422 -0.0247 -0.1059 -0.1958
 5772W        W21581   5.004  13.429  13.766 -0.4756 -0.2244  0.0232
 5773W        W21582   2.331  15.110   2.131  0.1386 -0.1253  0.1051
 5774W        W21583  10.497   4.170   0.356  0.0060  0.0549 -0.0513
 5775W        W21584   4.172   8.238  12.599 -0.2551  0.2002 -0.1856
 5776W        W21585  11.982   3.632  12.237  0.3190 -0.0184  0.0222
 5777W        W21586  17.237  18.435   2.985  0.2359  0.2360 -0.1710
 5778W        W21587  16.632  16.269   1.218 -0.0463 -0.0592  0.0559
 5779W        W21588  12.457   2.477  13.745 -0.0001 -0.1739 -0.1103
 5780W        W21589   1.503  10.877  14.973 -0.0388  0.0235  0.0522
 5781W        W21590   1.633   8.017  10.293  0.0083  0.0220 -0.0686
 5782W        W21591  17.716   4.779  14.676 -0.1902  0.0254  0.1697
 5783W        W21592  10.728   0.622  14.603 -0.1737 -0.0275 -0.1620
 5784W        W21593   6.399   9.146   4.897 -0.0206  0.1891  0.4960
 5785W        W21594   2.427   0.639   5.210  0.1927  0.4165 -0.2123
 5786W        W21595  14.636   2.527   3.364  0.0952  0.0309  0.0961
 5787W        W21596   8.108   5.401  13.681  0.2524  0.0719  0.0495
 5788W        W21597   3.197  14.083  11.634  0.0078  0.3775  0.1327
 5789W        W21598   8.131   5.051   0.661  0.1033 -0.0110 -0.2580
 5790W        W21599  17.692   9.659   0.011 -0.0454 -0.1740  0.0424
 5791W        W21600  16.504  17.283  10.878 -0.0652 -0.0253 -0.1644
 5792W        W21601   7.448   7.953   1.918  0.0960  0.0253 -0.0225
 5793W        W21602   6.935  18.138  14.296  0.1137  0.0509  0.0205
 5794W        W21603   3.264   5.933   5.635 -0.0167 -0.0318 -0.0043
 5795W        W21604  10.035  14.775   0.003  0.0695  0.0440  0.2558
 5796W        W21605  17.812  18.269  14.039 -0.1398  0.2050  0.2561
 5797W        W21606  10.736   0.640   2.649  0.3122 -0.0543  0.0307
 5798W        W21607   6.237   7.040  13.760 -0.0081  0.1838  0.0149
 5799W        W21608   9.604  10.008  13.697 -0.0903 -0.0815  0.2493
 5800W        W21609   8.578  17.677   1.371 -0.2954 -0.1962 -0.3074
 5801W        W21610  16.354   5.903  13.875  0.0364  0.0759 -0.0275
 5802W        W21611  11.592  13.865  11.940 -0.0852  0.0801 -0.0601
 5803W        W21612  17.983  10.746  12.402 -0.1964 -0.0961  0.0428
 5804W        W21613   6.689  16.380  15.009 -0.0130  0.1358  0.0129
 5805W        W21614  13.492  17.863  15.469 -0.0128 -0.2403 -0.0824
 5806W        W21615  14.013   5.566  13.109  0.1205  0.0258  0.1188
 5807W        W21616   7.853   3.823   1.444 -0.0858  0.1354  0.0003
 5808W        W21617  17.570  17.265   5.905 -0.0560 -0.0848  0.0151
 5809W        W21618   1.093   1.180  12.712 -0.1245 -0.0871 -0.5170
 5810W        W21619  13.706   2.370  10.607 -0.0062  0.5240  0.0075
 5811W        W21620  18.131  11.148  14.470 -0.1704 -0.0808  0.1289
 5812W        W21621   6.504   0.094   4.811 -0.1803 -0.0832  0.0644
 5813W        W21622   8.755  17.497   4.234  0.0506  0.1280  0.0665
 5814W        W21623   2.554   5.512   0.368 -0.2020 -0.1220 -0.0472
 5815W        W21624  17.086   9.432  14.182 -0.0016  0.3102 -0.3017
 5816W        W21625   8.467  14.809   5.132  0.3330  0.0039 -0.0549
 5817W        W21626  17.687   7.734   4.138 -0.2288 -0.1080 -0.1388
 5818W        W21627   6.940   3.755   5.358 -0.3988  0.2320 -0.0915
 5819W        W21628   3.465   3.216  13.133  0.0335  0.1427 -0.3054
 5820W        W21629   0.742   3.779   2.930  0.1736 -0.0571 -0.0746
 5821W        W21630   7.380  16.025   1.962 -0.0902  0.0874 -0.1100
 5822W        W21631   7.615   3.929   4.607 -0.4666 -0.1533 -0.3172
 5823W        W21632  16.322  15.641   4.281 -0.0568 -0.3129 -0.0464
 5824W        W21633   8.511   1.335  15.213 -0.1573  0.0616  0.4066
 5825W        W21634   8.321   2.460   5.467  0.0052 -0.2197 -0.0534
 5826W        W21635  16.334  15.221  15.135  0.0883  0.2229 -0.3750
 5827W        W21636  11.943  12.683   3.543  0.2267 -0.0930 -0.1472
 5828W        W21637  17.893  10.225  10.691  0.2735 -0.0409 -0.0716
 5829W        W21638  16.857  10.899  13.709  0.0590  0.0651 -0.0011
 5830W        W21639  11.090  13.480  13.369  0.1158  0.1324  0.1128
 5831W        W21640  11.899   2.227   2.404 -0.0137  0.0089  0.1732
 5832W        W21641   1.047   6.566   1.785 -0.0098  0.2921  0.0585
 5833W        W21642   7.063   2.260   0.628 -0.1178  0.3516 -0.0622
 5834W        W21643  13.120  11.817   2.879  0.1668 -0.0759 -0.0431
 5835W        W21644  18.491   5.196   0.162 -0.2851 -0.0575 -0.1640
 5836W        W21645   9.243  14.976   2.818  0.0939  0.1090 -0.0687
 5837W        W21646   9.014  10.892   0.524  0.1808  0.0269 -0.2696
 5838W        W21647  12.405  18.181   3.786 -0.2744 -0.0105  0.4106
 5839W        W21648   4.420   1.172   1.196 -0.1707  0.1393  0.0635
 5840W        W21649   3.002   6.599  10.576 -0.1068  0.0955  0.1906
 5841W        W21650   4.701  10.134  13.515  0.1965 -0.1292  0.0497
 5842W        W21651  15.657   3.824  11.882 -0.1253 -0.2454  0.2853
 5843W        W21652   6.437   0.340  12.185 -0.0947 -0.0592 -0.0176
 5844W        W21653  14.158  13.492   2.006  0.0387  0.1028 -0.1563
 5845W        W21654  12.258  11.919  10.793 -0.0179 -0.0305  0.0110
 5846W        W21655   7.381   7.397  10.411  0.0830 -0.1288  0.0194
 5847W        W21656  11.274  13.870   0.929 -0.1504 -0.0777  0.1824
 5848W        W21657   1.515  12.785  13.019  0.1160 -0.0377 -0.2502
 5849W        W21658   4.144  10.827   4.192  0.0814  0.2876 -0.0124
 5850W        W21659   8.243  13.878  11.696  0.1710 -0.2190  0.2455
 5851W        W21660  12.762   5.337   0.925  0.1851 -0.0455  0.0408
 5852W        W21661   9.279  12.417  12.506  0.1083 -0.3119  0.0428
 5853W        W21662   5.651   8.506   0.774  0.3166  0.1243  0.1270
 5854W        W21663  17.823   1.190   3.833  0.1775  0.2646 -0.0392
 5855W        W21664  14.301  14.353   1.351  0.0446 -0.0421  0.1368
 5856W        W21665   1.666   6.547  13.185  0.3661 -0.1008  0.1466
 5857W        W21666   6.913  16.281  15.419  0.0018  0.4007  0.1536
 5858W        W21667   8.343  15.492  12.429  0.2143  0.1562 -0.3458
 5859W        W21668  15.927   8.061   3.541 -0.0736 -0.2068  0.5145
 5860W        W21669   1.238  18.257  14.774 -0.1825  0.4404 -0.2025
 5861W        W21670   9.059   5.157   0.516  0.3161 -0.0349  0.3662
 5862W        W21671   2.950   0.076  15.218 -0.0941 -0.0717  0.2879
 5863W        W21672   4.018   8.642   1.214  0.3267  0.2618  0.4753
 5864W        W21673  13.955   0.245   5.514 -0.0012 -0.2157 -0.0759
 5865W        W21674   3.427   1.728  14.452  0.2728 -0.1061  0.3201
 5866W        W21675   9.884  17.818   2.479  0.2389  0.3955  0.2238
 5867W        W21676   3.941  14.216  15.532 -0.0301 -0.3976  0.0331
 5868W        W21677   3.425  14.949  11.143 -0.0303  0.1130 -0.0764
 5869W        W21678   8.150   4.271   0.362  0.3126  0.1561  0.1258
 5870W        W21679   4.668   1.132  12.398  0.0424 -0.0667  0.1712
 5871W        W21680  18.577  12.265  11.760  0.0793  0.0567 -0.1300
 5872W        W21681   7.413  12.784   2.976 -0.2569  0.0027  0.2078
 5873W        W21682  12.153   8.114   3.194  0.0285 -0.1340  0.1108
 5874W        W21683   7.097   5.035   0.384  0.1694 -0.1105 -0.0020
 5875W        W21684   9.469  16.817  13.224  0.1815  0.1695 -0.0376
 5876W        W21685  16.190   1.649  14.517 -0.0434  0.1972  0.1114
 5877W        W21686   1.553   0.278  14.382 -0.0872  0.0929  0.1858
 5878W        W21687   1.019  10.477   0.062 -0.1879  0.0281 -0.2647
 5879W        W21688   6.196   7.167  11.641 -0.1773 -0.3244 -0.2120
 5880W        W21689   9.781  16.326   0.736 -0.2839 -0.2381  0.1935
 5881W        W21690  14.828   8.148  14.786 -0.1490 -0.2237  0.2992
 5882W        W21691   3.031   7.714  10.707 -0.2508 -0.1101 -0.1064
 5883W        W21692  15.414  16.530  11.217  0.2113  0.2810  0.2198
 5884W        W21693  12.203   5.175   3.971  0.0339  0.2654  0.0131
 5885W        W21694  16.277  17.992   2.194  0.1224 -0.0502  0.2588
 5886W        W21695   3.350   7.319  12.358  0.1357  0.0371  0.0969
 5887W        W21696   4.716   4.589   4.796  0.2500  0.0458  0.2463
 5888W        W21697  12.658  13.145   4.495 -0.0643  0.4023 -0.2878
 5889W        W21698  18.006  12.253  14.496 -0.1983  0.1612 -0.2081
 5890W        W21699   2.246   9.637   3.315 -0.3919 -0.0536 -0.2210
 5891W        W21700  13.160   6.856   1.012  0.2786 -0.2188 -0.0152
 5892W        W21701  16.779  12.150  12.163  0.1917 -0.0583  0.0515
 5893W        W21702   6.263  14.022  11.328  0.2012  0.2832  0.4486
 5894W        W21703  11.122   6.039   3.654  0.3776 -0.1151 -0.0126
 5895W        W21704  14.319   5.013   1.684  0.1558 -0.0008 -0.0681
 5896W        W21705   0.401  14.913   0.784 -0.2524  0.0885  0.1230
 5897W        W21706   0.451   5.365  12.522 -0.0601 -0.2956  0.1198
 5898W        W21707   8.787  12.453   1.079  0.0196 -0.2889  0.1085
 5899W        W21708  17.899   1.295   0.349 -0.1261 -0.0863  0.2720
 5900W        W21709   2.247  11.680   5.212 -0.0051 -0.0934 -0.0772
 5901W        W21710   3.421   6.460   4.866 -0.0887  0.2344 -0.1435
 5902W        W21711   8.284   6.475  13.003  0.2815  0.0527 -0.0260
 5903W        W21712   4.247  10.790   2.163 -0.0493  0.0665  0.2423
 5904W        W21713   3.866  13.788   2.122  0.3452 -0.0860 -0.1063
 5905W        W21714  17.790  18.209   3.820 -0.3804 -0.1094  0.0192
 5906W        W21715  13.507  16.756  13.584 -0.3147  0.1710  0.0953
 5907W        W21716   1.687   8.737   0.141  0.4193  0.0935  0.3265
 5908W        W21717  12.969   1.760  11.819  0.0864 -0.2853 -0.1415
 5909W        W21718  17.121   2.654  14.589 -0.0059 -0.1481  0.2219
 5910W        W21719   5.696   9.298  13.803 -0.0609 -0.1400  0.1345
 5911W        W21720   9.212   4.864  11.933 -0.0200 -0.1905  0.1295
 5912W        W21721  10.597  14.641   3.947  0.0171 -0.0459 -0.3387
 5913W        W21722   3.485   9.334   3.771  0.1062 -0.1089 -0.0577
 5914W        W21723   8.680   7.605  10.745 -0.1817 -0.0198  0.2190
 5915W        W21724  12.705   7.019  11.154 -0.1915  0.0363 -0.2029
 5916W        W21725  15.603   5.545  14.416  0.2420 -0.1664 -0.0276
 5917W        W21726  12.896  15.308   2.053 -0.3810  0.0923 -0.0874
 5918W        W21727  11.137   1.095   0.003  0.0356 -0.2360 -0.1990
 5919W        W21728  10.478  15.334  11.698  0.2289 -0.0865 -0.3399
 5920W        W21729   8.947  14.198   4.804  0.1428 -0.0314 -0.1723
 5921W        W21730   9.438   9.965   3.388  0.1024  0.2129 -0.0686
 5922W        W21731   2.343   2.662   4.498  0.0485  0.0584 -0.4361
 5923W        W21732  11.530  12.679   1.737  0.2133  0.0001 -0.1320
 5924W        W21733   7.927   8.128  14.782 -0.2483  0.0376  0.1678
 5925W        W21734   1.717   3.381  13.061 -0.0594 -0.2304  0.0756
 5926W        W21735   3.813   4.532  13.379 -0.0354 -0.2268  0.0185
 5927W        W21736  17.602  11.673   1.876 -0.0351 -0.0370  0.0518
 5928W        W21737   5.767   1.774  13.933 -0.0085  0.0491 -0.0309
 5929W        W21738   9.141  13.143   2.948 -0.0380 -0.0989 -0.0202
 5930W        W21739  13.207  16.293   0.659  0.0324 -0.0630 -0.2207
 5931W        W21740   5.818   4.410  11.819 -0.2425 -0.3364 -0.2358
 5932W        W21741  17.415  11.166  13.449  0.1438  0.0280 -0.1338
 5933W        W21742  13.930   5.613   4.042  0.0874  0.2168 -0.1052
 5934W        W21743   2.466  12.960   2.637 -0.1211  0.1950  0.1872
 5935W        W21744  16.317  11.917  12.154 -0.0635 -0.1097 -0.1480
 5936W        W21745   2.386   4.111   0.998 -0.1228  0.1441 -0.2717
 5937W        W21746   5.916   5.388  13.170 -0.0642  0.1500  0.2250
 5938W        W21747  17.129   7.039  15.171 -0.0126  0.0943  0.2745
 5939W        W21748   3.461  10.611   1.142 -0.1010  0.1035  0.0538
 5940W        W21749   3.927   1.256  13.428 -0.0454 -0.1473  0.2925
 5941W        W21750   1.630   6.040  13.200 -0.1413  0.1523 -0.0205
 5942W        W21751   8.368   7.969   4.757 -0.0830  0.2355  0.2888
 5943W        W21752  13.429  17.691  13.712  0.0409  0.2154  0.2212
 5944W        W21753  17.085  11.142   1.818 -0.1919 -0.1713 -0.0837
 5945W        W21754  12.902   9.863   1.290 -0.0732  0.1661  0.1102
 5946W        W21755   4.819   8.181  11.937  0.2552  0.3066  0.1185
 5947W        W21756  12.917  11.520  13.832  0.1647  0.2877 -0.5639
 5948W        W21757  10.664   4.540   5.607 -0.3473 -0.0067 -0.2376
 5949W        W21758   9.794   7.141   0.947 -0.3889 -0.0040 -0.1952
 5950W        W21759   5.969   3.484  10.179 -0.0734 -0.0648  0.1825
 5951W        W21760  16.718   2.702  13.150 -0.0897  0.0349 -0.2595
 5952W        W21761   4.711  14.181  10.838  0.1605  0.0080 -0.0938
 5953W        W21762   6.468   7.192   3.560 -0.2972 -0.1150  0.3350
 5954W        W21763  13.891   0.380  15.351  0.1034  0.0503  0.0389
 5955W        W21764  11.349   1.765  14.204 -0.1168  0.0685  0.2041
 5956W        W21765  17.218   1.627  14.649  0.0234  0.0321 -0.2038
 5957W        W21766  12.654   6.045  12.579 -0.0650 -0.2801 -0.1094
 5958W        W21767   4.690   9.208  14.978 -0.1895  0.1107 -0.0872
 5959W        W21768  16.404  16.267  13.559 -0.1291 -0.2740 -0.2525
 5960W        W21769  10.390   9.288   2.391 -0.0127  0.6870 -0.1506
 5961W        W21770  14.488   4.030  12.488  0.0433 -0.1307  0.1701
 5962W        W21771   0.816   6.523  12.820 -0.0990 -0.0190  0.1792
 5963W        W21772  16.461  16.217  15.014 -0.2142  0.5252 -0.0077
 5964W        W21773   0.085  10.783   0.843  0.2928  0.0166 -0.1817
 5965W        W21774  13.776  10.673   2.832  0.0452 -0.0194  0.0577
 5966W        W21775   7.977   8.286  10.460  0.0619 -0.2715 -0.2150
 5967W        W21776  11.984  13.401   0.031  0.0251 -0.0451 -0.0307
 5968W        W21777   8.079   5.838   5.836 -0.0396  0.0457  0.0462
 5969W        W21778  13.136  10.551  13.928 -0.1405  0.0258  0.2359
 5970W        W21779   0.161  15.182  10.886  0.1705  0.0743  0.2289
 5971W        W21780   0.879   3.363  14.345 -0.0626 -0.1231 -0.0800
 5972W        W21781   3.430   4.816  14.157  0.0541 -0.0495 -0.2915
 5973W        W21782   9.184   6.332   0.531 -0.4367 -0.3350 -0.1497
 5974W        W21783   6.450   8.933   4.185  0.1995 -0.2099  0.1953
 5975W        W21784   0.243  12.085   0.814  0.1790  0.0419  0.1437
 5976W        W21785  10.521  11.883  14.703 -0.4165 -0.2146  0.2437
 5977W        W21786  10.997  14.431  13.194 -0.0069  0.1887 -0.2861
 5978W        W21787   7.568   2.853  11.224  0.0224  0.1701  0.2182
 5979W        W21788  15.099  11.285  11.289  0.0743  0.1903  0.0894
 5980W        W21789  11.860   4.958   5.406 -0.0085 -0.0451  0.2229
 5981W        W21790  10.109   3.852  13.794 -0.0174  0.2595 -0.0994
 5982W        W21791   6.276  14.569   2.836  0.0074  0.1988 -0.1031
 5983W        W21792   8.116   2.269   1.622  0.0241  0.0175 -0.1510
 5984W        W21793   4.681  10.161  14.039 -0.3814 -0.1713 -0.0251
 5985W        W21794  18.288  14.833   4.490  0.2196 -0.2365  0.1728
 5986W        W21795   6.284  16.602   3.234  0.0583  0.1192 -0.2426
 5987W        W21796  14.484   3.887  14.927 -0.2818  0.1071 -0.3066
 5988W        W21797  11.832   4.832  11.611 -0.1089  0.0943  0.1229
 5989W        W21798   1.351   9.668  10.730  0.3894  0.1343  0.2178
 5990W        W21799   5.455  12.130   2.052 -0.1537 -0.2683 -0.0277
 5991W        W21800  10.478   5.105   3.640 -0.2665 -0.1470 -0.2335
 5992W        W21801   4.275   4.678   2.491 -0.1654  0.1144  0.0561
 5993W        W21802   3.177  17.561  12.270  0.0175  0.3479 -0.0822
 5994W        W21803  18.545   7.974  10.943 -0.1855 -0.0806  0.0950
 5995W        W21804  10.809   9.446  11.455  0.0899 -0.0826 -0.0871
 5996W        W21805   9.231   5.345  10.110  0.1088 -0.1132 -0.3417
 5997W        W21806  10.500   7.686   4.621  0.0148  0.2835 -0.0724
 5998W        W21807   1.317  10.631  13.191 -0.0387 -0.0787  0.3549
 5999W        W21808   3.268   2.179   5.007 -0.0706 -0.0647 -0.4628
 6000W        W21809  15.254   2.107   2.529 -0.0093  0.2774  0.0189
 6001W        W21810   9.027  11.056   0.065  0.2088 -0.0134  0.0066
 6002W        W21811   5.460  11.165  12.645  0.1467 -0.0131 -0.0051
 6003W        W21812  14.015  18.426  12.215 -0.0278  0.2180 -0.0050
 6004W        W21813   8.790  13.900  11.385  0.2934 -0.0648  0.0836
 6005W        W21814   4.997   5.431  15.529 -0.3047  0.1004 -0.0464
 6006W        W21815   9.714   9.343  12.606 -0.1035 -0.0724 -0.0945
 6007W        W21816  13.800   2.074   1.919  0.5263 -0.0193  0.1729
 6008W        W21817   1.732  13.053   2.426  0.0855  0.2434  0.2175
 6009W        W21818  10.720   6.417   2.149 -0.3295  0.1200  0.1034
 6010W        W21819   4.873  14.467  11.286  0.0353  0.1254 -0.1876
 6011W        W21820  17.229   7.101  14.640 -0.2074  0.0255 -0.2233
 6012W        W21821  14.127  13.873   3.123  0.0952  0.1135  0.2257
 6013W        W21822  11.784  10.418   4.136 -0.3655  0.0208  0.2662
 6014W        W21823   4.131  10.711  11.040  0.0824 -0.0751 -0.0208
 6015W        W21824  12.893  14.248  14.738 -0.1616  0.0003 -0.0249
 6016W        W21825   9.013  15.932  10.548  0.4197 -0.2566 -0.0204
 6017W        W21826   6.711  11.411   5.494  0.1523  0.0720 -0.1679
 6018W        W21827  15.200   4.157  13.713  0.0146  0.1077  0.0398
 6019W        W21828  14.038   2.835   2.765 -0.1850 -0.0702 -0.4023
 6020W        W21829  12.967   8.474   0.219 -0.0899 -0.2617 -0.1485
 6021W        W21830  15.520  18.483   1.548  0.0266  0.4000  0.1068
 6022W        W21831   8.084   2.195   2.169 -0.2680  0.2984 -0.1421
 6023W        W21832   7.508   3.037  15.436  0.1295  0.0622  0.0743
 6024W        W21833  16.268   2.485   2.644 -0.0687  0.0800  0.0107
 6025W        W21834   5.817   3.228  11.508 -0.1430  0.1221 -0.1430
 6026W        W21835   4.538   1.950   0.790  0.2082 -0.2297 -0.0475
 6027W        W21836   7.517  13.055   6.091  0.0552  0.2399  0.1062
 6028W        W21837   2.405  17.434   0.723 -0.1224 -0.0126 -0.1978
 6029W        W21838   5.709  13.634   4.087 -0.0633  0.1725  0.0615
 6030W        W21839   9.669   7.549   5.368 -0.3084 -0.0234  0.0956
 6031W        W21840  13.380  14.822  12.905  0.3453 -0.0588  0.3793
 6032W        W21841  16.680   2.540   2.901  0.0804  0.0467 -0.0654
 6033W        W21842  14.861  18.036   5.021  0.1919  0.2698 -0.1150
 6034W        W21843   2.757   1.585   1.230  0.0288 -0.0460  0.1288
 6035W        W21844  13.354   3.451  13.504 -0.1811 -0.1960  0.2280
 6036W        W21845   8.812   5.912  12.591  0.2635 -0.2421 -0.2309
 6037W        W21846   1.321   8.207  13.677 -0.4250 -0.1037  0.1454
 6038W        W21847   2.798  10.214  12.218  0.0847 -0.0696  0.0873
 6039W        W21848  16.709   1.248   4.887 -0.0879 -0.1004 -0.1422
 6040W        W21849  17.713  13.819   3.069 -0.0235 -0.0775  0.0973
 6041W        W21850   3.863   3.569  10.786  0.2024 -0.4490  0.0218
 6042W        W21851  16.829  14.300   2.543 -0.0252  0.3055  0.0178
 6043W        W21852   5.807  17.920   2.544 -0.1458 -0.0590 -0.2303
 6044W        W21853   3.718  15.629  14.802 -0.0135  0.4112 -0.1160
 6045W        W21854   2.480   5.926  13.581  0.0285  0.1741  0.2635
 6046W        W21855  16.645   0.760   1.061  0.0268 -0.0263 -0.0136
 6047W        W21856   0.270   9.806   2.823 -0.1073 -0.3333  0.2502
 6048W        W21857  14.524  14.130   3.100 -0.3203 -0.0036 -0.1163
 6049W        W21858  17.887   1.873   4.470 -0.1498 -0.0081 -0.1146
 6050W        W21859   9.526   6.666  13.190 -0.1112  0.0596 -0.3546
 6051W        W21860   0.717  10.212   3.929 -0.0596 -0.1544 -0.2312
 6052W        W21861   6.850   4.055   3.502 -0.0557 -0.0848  0.1437
 6053W        W21862  14.944  18.594   4.882  0.1185  0.0241 -0.0570
 6054W        W21863   9.807   0.307  10.327  0.2399  0.1176  0.0627
 6055W        W21864  14.315   5.849  12.725 -0.1260  0.0322 -0.0553
 6056W        W21865   2.948  13.427   1.831  0.0167  0.1840 -0.1760
 6057W        W21866   4.168   0.693  11.312 -0.0077 -0.2160  0.0145
 6058W        W21867  18.622  10.657   2.268 -0.0290  0.2274 -0.0473
 6059W        W21868  18.519   9.611  13.911 -0.2505 -0.1009  0.2379
 6060W        W21869   0.636   7.895   0.072 -0.1829 -0.1913  0.1721
 6061W        W21870   4.558   9.074   0.124  0.3227 -0.0621 -0.1230
 6062W        W21871   4.109  18.364   3.702  0.0657  0.0771  0.1941
 6063W        W21872  14.583  11.330   3.530  0.0380 -0.0905 -0.1813
 6064W        W21873  16.799   1.248  13.608 -0.0268 -0.0571  0.1073
 6065W        W21874  18.606   5.569   3.792 -0.6761 -0.0041  0.2386
 6066W        W21875   9.219  14.962  11.502  0.2349  0.3144 -0.3233
 6067W        W21876   3.180  15.605   5.539  0.1989  0.1133 -0.2789
 6068W        W21877  17.277  14.247   2.209  0.1791  0.2486 -0.3090
 6069W        W21878   2.215  11.317  15.578  0.0043  0.0358 -0.0663
 6070W        W21879  11.188  15.009   4.421  0.0342  0.2214  0.0636
 6071W        W21880   3.261  16.050  11.323  0.2296  0.2404  0.1254
 6072W        W21881  13.501  16.348   5.803  0.0197 -0.2134  0.2167
 6073W        W21882   5.334   2.551   0.725 -0.0796  0.0595  0.3156
 6074W        W21883   5.802  15.900   3.230 -0.0924  0.1663 -0.1794
 6075W        W21884   6.838  10.047   4.011  0.0341  0.0990 -0.0678
 6076W        W21885   5.316  10.797  12.279 -0.0569  0.0228  0.2610
 6077W        W21886  10.477  17.961   4.930  0.3480 -0.3096  0.2125
 6078W        W21887   1.000  18.129  14.356 -0.1095  0.3311 -0.1965
 6079W        W21888   7.321   2.968   1.590  0.0552  0.0095 -0.5404
 6080W        W21889  18.142  18.368  11.741  0.0487  0.1790 -0.0651
 6081W        W21890   3.621  18.572   2.187 -0.0954  0.6148 -0.0505
 6082W        W21891   7.503   7.109   1.713 -0.3309  0.2349  0.0713
 6083W        W21892   7.927   5.106  11.629 -0.0225  0.0045 -0.0027
 6084W        W21893  17.013   5.180  14.445 -0.1401 -0.3128  0.1333
 6085W        W21894  12.541  13.286  11.917  0.4834  0.4444 -0.2436
 6086W        W21895  12.905  13.699   5.033 -0.2261  0.1775 -0.1391
 6087W        W21896   2.329  13.523   1.366 -0.0731  0.0637  0.0506
 6088W        W21897  14.847   4.665  12.987  0.1606  0.0388 -0.3513
 6089W        W21898   5.463  13.963   5.844 -0.0181  0.1841 -0.0185
 6090W        W21899   4.588   2.310  13.544 -0.1456  0.3897 -0.4010
 6091W        W21900   3.519   5.838  12.778  0.0634 -0.0534 -0.1025
 6092W        W21901  13.141   4.830  14.896  0.0290  0.0963  0.1871
 6093W        W21902   8.452   1.571   2.510  0.0256 -0.1038  0.2677
 6094W        W21903  15.153   2.498   5.681  0.2728 -0.0756  0.0874
 6095W        W21904  14.220  11.456  15.201 -0.4091  0.1565  0.0115
 6096W        W21905  15.577  12.009  13.013 -0.1322 -0.3820 -0.1308
 6097W        W21906  18.416   3.870   3.070  0.3207  0.3313 -0.1474
 6098W        W21907  11.016  12.694   0.376  0.4083  0.2074 -0.1140
 6099W        W21908  10.334  11.369   0.573 -0.0794 -0.0671  0.1914
 6100W        W21909   0.631  16.878  13.723 -0.0376 -0.2370 -0.1522
 6101W        W21910  14.153  17.695  12.793 -0.2082  0.1105  0.0397
 6102W        W21911  13.181  17.136  13.831 -0.0070 -0.1732 -0.0774
 6103W        W21912  11.841   1.698  13.952  0.2322  0.1840 -0.2635
 6104W        W21913  13.651   4.888  12.074 -0.3671 -0.1143 -0.0905
 6105W        W21914   0.933   6.474   3.474 -0.1547  0.0784  0.0423
 6106W        W21915  17.730   3.935  11.948 -0.0276 -0.0147 -0.0420
 6107W        W21916   0.252  16.221  11.028 -0.0013 -0.0378  0.1275
 6108W        W21917  17.282   5.554   1.391  0.1920 -0.2053 -0.0028
 6109W        W21918   8.441  18.267   4.977 -0.3276 -0.0313  0.1829
 6110W        W21919   9.931   1.149  14.325  0.0131 -0.3458 -0.0806
 6111W        W21920  11.763  14.100   5.758 -0.0744 -0.1989 -0.2085
 6112W        W21921   0.254   4.644   2.786 -0.3451 -0.0653  0.1244
 6113W        W21922  17.603   7.200   2.163  0.0713  0.0913 -0.0156
 6114W        W21923  13.062  15.210   4.338 -0.0003  0.0279 -0.3190
 6115W        W21924  10.407  15.457   3.394 -0.2244  0.2437 -0.0085
 6116W        W21925   0.228  16.530   2.900  0.0604  0.3153 -0.0086
 6117W        W21926   7.097   4.235   4.473  0.0291 -0.4135  0.2879
 6118W        W21927   9.629   3.505  13.078  0.1777 -0.1932 -0.2210
 6119W        W21928   3.290  15.710   3.236  0.1353  0.2182  0.0597
 6120W        W21929  11.314   5.713  11.920  0.0371  0.3211 -0.1772
 6121W        W21930   6.066   5.606  14.160  0.2019  0.0536 -0.0354
 6122W        W21931  17.485   7.196   1.628  0.3200  0.5911  0.3559
 6123W        W21932   5.865   3.674   3.453  0.0997  0.0350  0.0719
 6124W        W21933   7.089   3.897  11.522  0.1454  0.0357  0.3842
 6125W        W21934   7.813   4.793   2.986  0.0695 -0.0770 -0.2199
 6126W        W21935   5.336   2.013  15.095 -0.1714 -0.2456 -0.0567
 6127W        W21936   5.600  13.050   1.053  0.2847  0.0570  0.0367
 6128W        W21937   3.575   2.519  13.511  0.0459 -0.1251 -0.0982
 6129W        W21938   3.158   1.810  14.909  0.6260  0.1050  0.0500
 6130W        W21939  16.468   7.669  12.303  0.0811 -0.3197 -0.0542
 6131W        W21940  18.003   2.809   2.039 -0.0081 -0.2564  0.1373
 6132W        W21941   2.991   7.572   1.492  0.0474  0.2340 -0.0587
 6133W        W21942  18.342  15.574  11.595  0.2209 -0.3498  0.5401
 6134W        W21943   9.169  13.498   0.016  0.2367 -0.0606  0.1566
 6135W        W21944   9.552  13.178  14.291 -0.1355 -0.0433  0.0060
 6136W        W21945   8.626   1.278   0.706 -0.0130 -0.1482  0.0142
 6137W        W21946   5.884   7.004  10.681  0.3269  0.2708 -0.1905
 6138W        W21947  10.043   3.249  13.035 -0.1814 -0.0819  0.0427
 6139W        W21948   8.594  12.496   3.675 -0.0922  0.0186 -0.1180
 6140W        W21949   8.335   0.045   4.222  0.0802 -0.2025  0.0955
 6141W        W21950  12.920   5.239  15.296  0.0633 -0.1415  0.0807
 6142W        W21951   2.658  10.967  12.901  0.0292  0.2706  0.1081
 6143W        W21952  13.538   8.246   1.938 -0.0561  0.2527 -0.1325
 6144W        W21953   3.232   9.317  12.585  0.3901  0.0000  0.1008
 6145W        W21954   8.290   8.209   0.565 -0.0947  0.2039 -0.0727
 6146W        W21955   2.214  16.069   2.054  0.2161 -0.0666  0.0135
 6147W        W21956  13.965   7.378   1.080 -0.1516 -0.3281 -0.1031
 6148W        W21957  12.951   9.627   3.956 -0.2153  0.0059 -0.1548
 6149W        W21958   8.934  16.307  11.314  0.1272 -0.2215 -0.0308
 6150W        W21959  15.623   4.701   2.786 -0.3802 -0.0853  0.0719
 6151W        W21960   7.793   0.001  12.918  0.0384  0.2205  0.0394
 6152W        W21961   4.157   0.142   1.184 -0.1366 -0.4489 -0.0394
 6153W        W21962  11.015   6.451  12.352  0.0447 -0.1570  0.0939
 6154W        W21963  10.166  16.341  14.586 -0.0685 -0.1683  0.3554
 6155W        W21964   9.806   5.523  14.700 -0.1021 -0.0603 -0.0929
 6156W        W21965   8.819  10.222  11.065  0.1694  0.1761  0.1117
 6157W        W21966   9.200  12.952   0.861  0.1729 -0.0203  0.0264
 6158W        W21967   6.406   8.419   4.185 -0.0041 -0.0218 -0.1312
 6159W        W21968   3.672   2.134   3.484  0.3803  0.1074 -0.0009
 6160W        W21969  13.587   3.956  14.876  0.0370  0.3509 -0.0232
 6161W        W21970   9.911   7.879   1.483 -0.0543  0.1493  0.2464
 6162W        W21971   1.643   5.003   4.268 -0.1318 -0.0446  0.0072
 6163W        W21972   4.979   7.482   5.626 -0.3450 -0.0616  0.3464
 6164W        W21973   0.922   8.314  10.019  0.2756  0.2500 -0.0661
 6165W        W21974  17.841   9.645   2.161 -0.3824  0.0774  0.0086
 6166W        W21975  11.784  13.535  11.608 -0.2200  0.0113 -0.0673
 6167W        W21976  12.633  10.727  14.406  0.0727 -0.4150  0.1645
 6168W        W21977  14.451   1.182   1.553  0.2941 -0.2393 -0.1044
 6169W        W21978   3.973  17.294   4.485 -0.0986  0.0271 -0.0870
 6170W        W21979   8.830   9.318  11.248  0.2624  0.1285  0.2149
 6171W        W21980  10.229   0.126   2.020  0.1038 -0.3196 -0.1556
 6172W        W21981  17.215  16.455   1.788  0.0651  0.1440 -0.0240
 6173W        W21982  16.366   0.104  14.584 -0.1422 -0.1097  0.4043
 6174W        W21983   7.640  16.983   2.389  0.0830 -0.5530  0.1393
 6175W        W21984  17.633  15.150  13.999 -0.1255  0.0943 -0.2687
 6176W        W21985  18.213  17.499  12.990  0.0036  0.2133 -0.1301
 6177W        W21986  14.668   8.318   5.614 -0.1435 -0.0501  0.0132
 6178W        W21987   0.324   2.019   2.160  0.0679 -0.1854  0.2082
 6179W        W21988   1.057  13.273   4.386 -0.0505  0.1928  0.0202
 6180W        W21989   4.940   5.776   0.815 -0.0528 -0.0005 -0.0771
 6181W        W21990   7.677   7.051  13.331 -0.2218  0.2007  0.1048
 6182W        W21991   4.691  18.187  11.449  0.4952 -0.0709  0.1628
 6183W        W21992   8.979  18.040  11.473  0.3274  0.1713 -0.1170
 6184W        W21993  13.905   3.289  15.458 -0.1358 -0.0029  0.1018
 6185W        W21994   8.981   7.224   6.302  0.0232  0.0898 -0.2221
 6186W        W21995   8.342   4.641  14.569 -0.1543 -0.1949 -0.3439
 6187W        W21996   5.429   5.398  10.872  0.1751 -0.2719 -0.3822
 6188W        W21997  18.307   4.704   4.120  0.0200  0.1911  0.1052
 6189W        W21998  15.407   1.997   3.412 -0.2057  0.0007 -0.2106
 6190W        W21999  15.893  10.496  12.337 -0.2819  0.1788  0.1056
 6191W        W22000  13.129   9.437  14.889 -0.3806  0.3943  0.1339
 6192W        W22001   1.899   4.527   3.938  0.0068 -0.0997 -0.1496
 6193W        W22002   6.248   1.807   0.615 -0.0005 -0.2533  0.0895
 6194W        W22003   1.673  17.118   4.609  0.1674  0.1067  0.0325
 6195W        W22004  17.313  16.395   3.720  0.0520  0.0936  0.0165
 6196W        W22005  16.435   4.757   2.217  0.0132  0.0946 -0.3526
 6197W        W22006  11.640  14.873   3.063 -0.0677 -0.0403 -0.0614
 6198W        W22007  10.704   9.436   3.665  0.1366  0.4486  0.1488
 6199W        W22008  15.884   9.984  15.346  0.1129 -0.1066  0.1622
 6200W        W22009   9.199   8.754   2.608  0.0901  0.0026 -0.0963
 6201W        W22010   1.751  11.409  10.047  0.1243  0.0748 -0.1086
 6202W        W22011  15.908   8.342   5.020 -0.0594  0.0639 -0.1021
 6203W        W22012  12.595   0.539   0.537 -0.0367  0.1953  0.2763
 6204W        W22013   2.682  17.244   1.211 -0.0462 -0.2109  0.1064
 6205W        W22014   8.414  17.731  14.200  0.0287 -0.0234 -0.0711
 6206W        W22015  16.004   8.095  13.333 -0.1851  0.2840 -0.0501
 6207W        W22016   0.736   2.803   2.060 -0.2814  0.1143 -0.0146
 6208W        W22017  15.787  17.432   1.373 -0.1735 -0.4187  0.1502
 6209W        W22018  12.645   3.063   4.718  0.4607  0.2854 -0.0922
 6210W        W22019  12.079   3.742  10.749  0.2337  0.1097 -0.2349
 6211W        W22020   1.084  12.260   3.868 -0.1569  0.0872 -0.0430
 6212W        W22021   9.516   0.119  13.680 -0.0632  0.1531  0.0238
 6213W        W22022   1.064  17.067   3.122 -0.2366 -0.1336  0.1293
 6214W        W22023   6.913  12.796   3.442  0.0259 -0.3721  0.0825
 6215W        W22024   0.236   5.850  10.669 -0.1034  0.0299  0.2508
 6216W        W22025  10.586   4.978   2.683 -0.1244  0.1394  0.0603
 6217W        W22026   2.273  13.585   4.135 -0.1295  0.2865  0.2549
 6218W        W22027   1.901   3.762  10.676 -0.0032 -0.1087 -0.3455
 6219W        W22028  12.170   2.616   3.559  0.0581 -0.0975 -0.0976
 6220W        W22029   7.120  13.490  14.627  0.0992  0.3456  0.0670
 6221W        W22030   3.502   9.978  10.517 -0.0020  0.1871 -0.0455
 6222W        W22031   2.534   5.206  14.187 -0.0971 -0.4253  0.0094
 6223W        W22032  13.312  16.036   2.197  0.0460  0.1473 -0.1028
 6224W        W22033   7.614   6.855   0.183 -0.2584  0.4660  0.2263
 6225W        W22034  12.878   2.823   3.254  0.1215 -0.0374 -0.1024
 6226W        W22035   0.175   5.498   3.002 -0.3552  0.2732  0.2750
 6227W        W22036   7.485  14.670  13.235 -0.0976 -0.2368 -0.1016
 6228W        W22037   1.165   1.681   1.956 -0.1242 -0.1601  0.0824
 6229W        W22038   2.050   6.795   0.619  0.1993  0.0358 -0.0420
 6230W        W22039   2.300  11.854   4.708 -0.0866  0.0221 -0.0201
 6231W        W22040   2.372   3.960   0.259  0.2293 -0.2205 -0.1511
 6232W        W22041   3.496   1.578   1.954 -0.1136  0.0210 -0.0653
 6233W        W22042  16.735  15.479   4.006 -0.2102  0.0653  0.0746
 6234W        W22043  16.840  11.786  14.082  0.1976  0.2239 -0.3891
 6235W        W22044  12.687  15.353   3.935 -0.1997  0.1152 -0.2647
 6236W        W22045   8.463  16.943  14.651  0.1632  0.0971 -0.2222
 6237W        W22046  17.011  15.897   5.766  0.1459 -0.2874 -0.2404
 6238W        W22047   1.741  15.478   0.743  0.1007  0.2771 -0.1859
 6239W        W22048  11.826   3.211   2.415  0.1322  0.0613 -0.3876
 6240W        W22049   7.514   9.169   4.682  0.1152  0.1033  0.1313
 6241W        W22050   7.567  13.250  14.294 -0.1756  0.0749 -0.2376
 6242W        W22051  13.235  15.789   1.459  0.2721  0.2233 -0.3925
 6243W        W22052   4.518  11.399  15.136  0.0139 -0.0107 -0.2655
 6244W        W22053   0.293   2.454   3.062  0.0874  0.3069 -0.0469
 6245W        W22054  11.777   4.225   1.915 -0.0222  0.1315  0.0134
 6246W        W22055  14.921   0.327  15.353 -0.0642  0.1239  0.1953
 6247W        W22056  12.994   8.189  10.858  0.2069  0.0600 -0.0077
 6248W        W22057  17.190   6.928   2.264  0.0478 -0.1730  0.0236
 6249W        W22058   6.099   4.663   1.717 -0.1317 -0.2583  0.2079
 6250W        W22059  10.337   7.188   5.395  0.0031  0.2218 -0.2520
 6251W        W22060   2.015   6.913  13.266 -0.0859 -0.3509  0.3351
 6252W        W22061   3.794  16.812  13.935  0.0196  0.1989 -0.3526
 6253W        W22062  18.266   3.798  11.802 -0.3301  0.1607  0.1569
 6254W        W22063  12.887   2.569  13.048 -0.1169 -0.0462  0.0693
 6255W        W22064   0.276   8.849   1.973 -0.0071  0.2584 -0.0973
 6256W        W22065   7.123  18.414   1.506  0.1218  0.4744 -0.1473
 6257W        W22066  18.055   8.300   2.929  0.2458 -0.1409  0.2691
 6258W        W22067   5.997   5.878  15.484  0.0923  0.1908  0.1652
 6259W        W22068  17.253   8.024  14.998 -0.0417 -0.0705  0.0480
 6260W        W22069  12.107  18.112  14.746  0.3446 -0.0801 -0.0185
 6261W        W22070   6.383   0.586   3.743  0.3009 -0.4116  0.0349
 6262W        W22071  17.925  16.885   3.226 -0.1000 -0.2673  0.0093
 6263W        W22072  15.077  16.386  12.145 -0.2582  0.1621 -0.1075
 6264W        W22073  11.627   0.501  11.277 -0.2891 -0.2772 -0.3723
 6265W        W22074   4.571   7.153   4.326  0.1215  0.1782  0.0253
 6266W        W22075   2.484   8.170   0.969 -0.0459  0.3683 -0.0369
 6267W        W22076  11.502   9.020  15.334  0.4771  0.0169 -0.2487
 6268W        W22077   1.363   0.249  12.702  0.2301 -0.0472 -0.1144
 6269W        W22078  17.016   1.289  14.938  0.2138 -0.0034  0.0509
 6270W        W22079   6.502  17.757   1.659 -0.2231 -0.0472 -0.1823
 6271W        W22080  12.774   1.721   1.900  0.1175  0.1652 -0.4295
 6272W        W22081   8.965  11.453   5.920 -0.0536 -0.1468  0.2943
 6273W        W22082   6.051  13.716  13.879 -0.0447 -0.0264 -0.1038
 6274W        W22083   5.249  12.559   3.424 -0.0731 -0.1321  0.0819
 6275W        W22084  14.808  13.422  13.660  0.1652  0.1023  0.0758
 6276W        W22085  16.206  10.129  12.203 -0.2688 -0.2745 -0.0739
 6277W        W22086   5.623   5.349   3.359 -0.0006 -0.1474  0.1744
 6278W        W22087   8.265  12.474   2.764  0.0282  0.1163  0.1075
 6279W        W22088   4.290  16.580   3.810  0.0211 -0.0374 -0.0182
 6280W        W22089   7.922   3.999   4.228  0.1985  0.2823  0.0526
 6281W        W22090  12.407  17.774  13.946 -0.0039  0.3519 -0.1399
 6282W        W22091   3.983   0.396   3.018 -0.0794  0.0858  0.1670
 6283W        W22092  12.372   0.774   3.734 -0.3508  0.1919  0.0401
 6284W        W22093   5.571   7.122   1.819  0.1133 -0.2422 -0.2170
 6285W        W22094   5.500  14.030   3.016  0.0094  0.1774 -0.1722
 6286W        W22095   5.123   8.210   9.822  0.2324 -0.0883 -0.0157
 6287W        W22096   1.970  18.255  10.244 -0.0514  0.0546 -0.1621
 6288W        W22097  14.133   4.534   1.664  0.0242 -0.0551 -0.0346
 6289W        W22098   4.617  17.209   2.604 -0.1619  0.0740 -0.3672
 6290W        W22099   2.444  13.159   0.034 -0.2066  0.0300 -0.1855
 6291W        W22100  10.502   0.314  11.499  0.2306 -0.3521 -0.2941
 6292W        W22101  12.930  17.039   4.730  0.2731  0.3598  0.1119
 6293W        W22102   8.389   8.576   2.184 -0.1408  0.3498 -0.1793
 6294W        W22103   9.350  11.809  13.617  0.1273  0.2277  0.0983
 6295W        W22104  16.295   7.484  15.613  0.2110 -0.3658  0.2158
 6296W        W22105   8.556   6.386  14.931  0.1198  0.0613 -0.6843
 6297W        W22106   3.817   9.837  13.994  0.2415  0.0307 -0.1055
 6298W        W22107   7.529   7.818  12.104 -0.0025  0.1211  0.2049
 6299W        W22108  10.695   3.558   0.822  0.0487 -0.1555  0.0084
 6300W        W22109  15.154   2.948   1.861 -0.1629 -0.1807 -0.0191
 6301W        W22110   9.572   2.260   0.335 -0.1460  0.0276  0.6229
 6302W        W22111   6.985  16.925   1.843  0.2284  0.0585  0.0724
 6303W        W22112   7.234  14.660   2.900 -0.1701  0.2042 -0.2031
 6304W        W22113  12.694  14.550   4.285 -0.0857 -0.0640  0.5233
 6305W        W22114  13.194   4.823   3.782 -0.0142 -0.3676 -0.2372
 6306W        W22115   6.166  14.012   0.901  0.1685 -0.3431 -0.2915
 6307W        W22116   1.584  14.749  15.367  0.0893  0.1083  0.0946
 6308W        W22117  13.145  12.388   1.486 -0.2883  0.1851  0.2000
 6309W        W22118  14.743   2.912   3.025  0.0885  0.0708 -0.3149
 6310W        W22119   6.668   9.200  14.597  0.3758  0.2565  0.3076
 6311W        W22120  12.553   8.943   3.283  0.1006  0.0061  0.1068
 6312W        W22121   9.089  13.677   0.559  0.2557  0.1882 -0.1115
 6313W        W22122   2.983  13.458  14.516 -0.3054  0.1250  0.1464
 6314W        W22123   6.839   5.181  12.139  0.1499  0.1130  0.1563
 6315W        W22124  11.173  16.526   4.938 -0.0477 -0.1983 -0.0642
 6316W        W22125  13.658  12.649  14.976  0.1634 -0.1478  0.0117
 6317W        W22126   5.956  15.323  14.782 -0.2059  0.1676 -0.2129
 6318W        W22127  16.407   9.074  12.306 -0.1974  0.0020 -0.2429
 6319W        W22128  13.361   5.784  15.324  0.0923 -0.5467  0.3995
 6320W        W22129   8.276   6.912   3.829 -0.0781  0.2940 -0.3462
 6321W        W22130   0.426   2.002   1.425  0.3423 -0.0090  0.0758
 6322W        W22131   3.103  18.019  11.557 -0.0111  0.3466 -0.0289
 6323W        W22132  15.516   3.428   1.057 -0.0760  0.2042  0.0590
 6324W        W22133   9.572   9.058   2.467  0.1898  0.0056  0.2862
 6325W        W22134  16.204   5.578   4.754  0.0495  0.0672 -0.0748
 6326W        W22135   8.837   1.359  14.290 -0.1101  0.0363  0.3115
 6327W        W22136  14.386   6.020   0.169  0.0083  0.1740  0.0067
 6328W        W22137   5.598  18.002  14.204 -0.0607  0.1683  0.0858
 6329W        W22138  15.519  14.531   0.698 -0.1049 -0.0103  0.0296
 6330W        W22139   2.905   3.369   5.589  0.1728  0.0472  0.0788
 6331W        W22140  10.751  12.419  12.748  0.5667 -0.2541 -0.1528
 6332W        W22141   0.857  17.787   3.792  0.2962  0.0064 -0.0350
 6333W        W22142  16.075   8.028   4.598 -0.0427 -0.0480  0.1028
 6334W        W22143   7.801  13.630  11.873  0.3214 -0.0168 -0.0467
 6335W        W22144  16.653   1.269   1.845  0.0933  0.0906  0.1113
 6336W        W22145  15.554   4.059  14.684  0.1229  0.0416 -0.1252
 6337W        W22146   4.196  10.799   2.920  0.1244  0.1777  0.2742
 6338W        W22147  14.506  13.162   5.332  0.0781 -0.0854 -0.3277
 6339W        W22148   1.714   7.366   2.068  0.0891  0.0407 -0.2370
 6340W        W22149   6.664  11.417   0.598  0.1730 -0.1063 -0.2717
 6341W        W22150   8.416  10.513  14.370  0.2606  0.2153  0.0436
 6342W        W22151  10.965  15.236   4.006 -0.1817 -0.3232  0.2118
 6343W        W22152   6.452   4.748   4.550 -0.1417  0.1538  0.2508
 6344W        W22153   6.020   0.998  13.571  0.0864  0.4272 -0.2959
 6345W        W22154  16.942   3.768   3.352  0.0364 -0.1644 -0.0268
 6346W        W22155   7.908   4.404   4.583  0.2875  0.3030 -0.1645
 6347W        W22156  10.686  15.105   4.889  0.1201 -0.1632  0.2337
 6348W        W22157  11.420  18.384   5.294 -0.0971 -0.0858  0.4030
 6349W        W22158  17.449  13.304   1.534 -0.1394  0.0066 -0.1418
 6350W        W22159  13.211  13.901   4.589 -0.1448 -0.0616 -0.1068
 6351W        W22160  13.422  16.522   3.845 -0.0575  0.0273  0.1591
 6352W        W22161  12.525   1.406  12.072 -0.0947 -0.0148 -0.1157
 6353W        W22162   4.538  17.307  15.274 -0.1552 -0.2285 -0.0746
 6354W        W22163  17.316   9.519   3.216 -0.0950 -0.0023  0.0624
 6355W        W22164  10.578   8.065   2.311 -0.1151 -0.0092 -0.0256
 6356W        W22165  16.881  15.158  14.534  0.0913  0.0727  0.0127
 6357W        W22166   6.556   7.565  12.018  0.1115  0.0768 -0.2193
 6358W        W22167  15.325  10.228  14.528  0.0598 -0.0685 -0.1519
 6359W        W22168  10.780  17.851   5.848 -0.1055  0.0560 -0.0804
 6360W        W22169   9.645   5.439  15.166  0.0265  0.1752  0.0057
 6361W        W22170   5.568   2.306   4.558  0.1460 -0.0305  0.0902
 6362W        W22171   5.734   0.215  13.089 -0.0706  0.1922  0.0565
 6363W        W22172  17.498   4.630   0.334 -0.0381 -0.2172  0.0157
 6364W        W22173  17.486   0.051   2.110 -0.1828 -0.0037 -0.2985
 6365W        W22174  10.792  17.900   1.404 -0.1244  0.0423 -0.0560
 6366W        W22175   5.315  11.835  14.167  0.3266  0.0158 -0.4786
 6367W        W22176   3.655   7.317   5.340 -0.0453  0.1119 -0.0599
 6368W        W22177  15.697  13.817  13.800  0.2142  0.0857 -0.2881
 6369W        W22178  17.782  11.757   3.508 -0.0995 -0.0495  0.2989
 6370W        W22179   3.040  15.610  14.820  0.2089  0.2076 -0.0419
 6371W        W22180  12.594   9.077   2.721 -0.1669 -0.2642 -0.1355
 6372W        W22181  17.010   3.473  15.077  0.1488  0.3043  0.1008
 6373W        W22182   6.701  17.747  13.285 -0.0387  0.2542  0.2237
 6374W        W22183   2.040   0.432   4.451  0.0262  0.1527 -0.1607
 6375W        W22184  13.293   0.921  14.983  0.2782 -0.1782 -0.1482
 6376W        W22185  15.673   0.595  12.432 -0.1133 -0.1519  0.1053
 6377W        W22186  16.322  13.664   4.824 -0.1452  0.2167  0.0277
 6378W        W22187   5.839  11.881   3.890 -0.0010 -0.2448  0.2186
 6379W        W22188   9.513  14.580  11.369  0.0399  0.0678  0.2162
 6380W        W22189  14.678  17.423   2.190 -0.1466  0.0366 -0.1054
 6381W        W22190  11.422   0.804  11.662  0.0047 -0.0791 -0.1388
 6382W        W22191   5.230   2.356   1.156 -0.0172 -0.2757 -0.1138
 6383W        W22192   3.474   9.382  13.164  0.3534 -0.0124 -0.0240
 6384W        W22193  13.434   1.692   3.752 -0.0131 -0.1003  0.1523
 6385W        W22194   9.735   8.658  10.998  0.0115 -0.0025  0.1747
 6386W        W22195   8.766  13.144  11.412 -0.4941  0.1690 -0.0922
 6387W        W22196  15.020  16.374   4.864 -0.0621 -0.0593 -0.1669
 6388W        W22197   5.686  17.733   3.421 -0.2841  0.1010 -0.2370
 6389W        W22198   9.772   0.586  13.640  0.2171  0.0668 -0.0304
 6390W        W22199  18.506  13.525   0.795  0.3612 -0.0623 -0.0021
 6391W        W22200   0.288  16.224  11.808 -0.1055 -0.0744 -0.1818
 6392W        W22201  14.397   4.625  11.059  0.2467  0.2615 -0.2490
 6393W        W22202   7.098  14.759  12.364  0.1430 -0.1410  0.1045
 6394W        W22203  15.781   8.062   4.200  0.0975 -0.2074  0.1163
 6395W        W22204   3.758   4.354  11.421 -0.1989 -0.1218  0.3149
 6396W        W22205  12.083  11.442  12.710  0.1127  0.0954  0.2352
 6397W        W22206  10.403  13.312   3.545 -0.0515 -0.1035  0.2050
 6398W        W22207   3.077   6.901  11.330  0.2095 -0.3425 -0.1776
 6399W        W22208   6.884  17.926   2.127 -0.1413 -0.0269  0.0685
 6400W        W22209   4.622  18.547  12.164  0.1586  0.1677  0.1210
 6401W        W22210  17.738   3.272  15.521 -0.0607  0.0263  0.2241
 6402W        W22211   5.034  15.060  13.210  0.1661  0.2334 -0.1832
 6403W        W22212   6.668  14.483   0.893 -0.1799 -0.1458 -0.5175
 6404W        W22213   0.869  13.289  13.897  0.1332 -0.0730 -0.0330
 6405W        W22214  11.879   9.539   3.768 -0.1183 -0.1690  0.1695
 6406W        W22215  16.513  13.026   5.288 -0.0325  0.1355 -0.2697
 6407W        W22216   0.416  11.527   2.429 -0.1788 -0.1979 -0.1366
 6408W        W22217   0.829   1.848  13.976  0.1862  0.0178 -0.1001
 6409W        W22218  16.356  12.158   4.836  0.1500  0.1631  0.2077
 6410W        W22219  10.909   0.899   0.404  0.1134  0.2843 -0.2855
 6411W        W22220  15.584   6.347   5.392  0.0284 -0.0955 -0.0501
 6412W        W22221   2.584  15.067  12.274  0.0014  0.0809  0.0598
 6413W        W22222  12.835  14.057   4.275 -0.2367 -0.2916 -0.2919
 6414W        W22223   0.278  14.877   4.600 -0.0775  0.2362 -0.2667
 6415W        W22224   0.146   7.966  14.076  0.0663 -0.1922 -0.2160
 6416W        W22225  12.475   6.044  10.713 -0.0404  0.2614 -0.0270
 6417W        W22226  13.086   0.603   5.238 -0.1008 -0.0331  0.1137
 6418W        W22227  11.787   3.531  11.368  0.0423  0.1804  0.3815
 6419W        W22228  13.600   4.543   4.467  0.5924  0.0294 -0.0772
 6420W        W22229  14.326  13.471  13.590  0.0788 -0.4351 -0.2748
 6421W        W22230  15.061  15.982  11.089  0.1719  0.1477  0.0784
 6422W        W22231  11.849  12.133  11.759  0.1319 -0.3203 -0.3506
 6423W        W22232  12.024   2.902  10.661  0.0288  0.1412 -0.0955
 6424W        W22233  16.117   7.371   1.215 -0.2440  0.3098 -0.0110
 6425W        W22234  17.181   6.405  11.024  0.3006 -0.2000  0.0134
 6426W        W22235   9.342  13.379  12.947 -0.2382 -0.3155  0.0879
 6427W        W22236   7.184  18.467   2.815  0.1555 -0.2906  0.0041
 6428W        W22237   2.354  14.607  12.049 -0.0718  0.1651 -0.0749
 6429W        W22238   9.163   5.150   5.743  0.1627  0.0193  0.0500
 6430W        W22239   2.595   3.912  15.412 -0.0975  0.0821 -0.0454
 6431W        W22240   7.637   0.881  12.412 -0.0051  0.0143 -0.0615
 6432W        W22241   4.326   8.164  15.368  0.1831 -0.3215  0.0757
 6433W        W22242   5.439  12.582   1.120 -0.0483 -0.0305 -0.2028
 6434W        W22243   9.997   8.687  11.588  0.2371 -0.1365  0.1588
 6435W        W22244  17.477  10.454  10.706 -0.0584 -0.3331  0.3058
 6436W        W22245  10.576   7.713  11.947 -0.2204  0.2692 -0.0609
 6437W        W22246  10.893   4.976  13.621  0.2511  0.1347  0.0535
 6438W        W22247   6.623   8.497  13.750  0.0783 -0.1514  0.0989
 6439W        W22248   4.475   5.395   0.946 -0.4391  0.0923  0.1740
 6440W        W22249  14.385   2.187   5.174  0.2679  0.0403  0.1567
 6441W        W22250  18.522  10.309  11.535  0.1981  0.1806  0.0877
 6442W        W22251  10.965  11.626   5.117  0.0476 -0.0650 -0.0118
 6443W        W22252  16.166  17.982   4.904  0.5428  0.1122  0.3756
 6444W        W22253   7.609  15.292   5.009  0.4561 -0.1663  0.4544
 6445W        W22254   0.627  10.560  12.678  0.3352  0.2926 -0.0141
 6446W        W22255   5.150   3.306   4.642  0.0806  0.0319 -0.1079
 6447W        W22256   6.114   9.000  13.227  0.0591  0.1597  0.1038
 6448W        W22257  11.073   0.124   5.866 -0.1671  0.0408  0.0184
 6449W        W22258  10.457  16.945   4.437 -0.0437 -0.1341 -0.0095
 6450W        W22259   1.990   0.373   4.969 -0.3721  0.1015 -0.0636
 6451W        W22260   1.989  12.508   1.424  0.0814 -0.4468  0.0145
 6452W        W22261   8.823   2.164  14.032  0.2188  0.0266 -0.1682
 6453W        W22262  17.462   8.710   2.565 -0.2550 -0.1565 -0.0069
 6454W        W22263  12.070   9.593  11.599  0.1226 -0.3440  0.0673
 6455W        W22264   4.938   8.377   2.780 -0.1407 -0.0870  0.3727
 6456W        W22265  16.233  17.427   5.576 -0.1955  0.2218 -0.0714
 6457W        W22266   3.414  15.501   2.699 -0.1006  0.0518 -0.1968
 6458W        W22267  14.250   5.937   4.879 -0.0526  0.1861 -0.1580
 6459W        W22268   6.342   2.308   5.635 -0.1383  0.0533 -0.2104
 6460W        W22269   1.493  15.564   2.252 -0.2762 -0.3342  0.1267
 6461W        W22270  12.416   1.244   1.188 -0.2921  0.1223 -0.1225
 6462W        W22271   7.693   1.011   3.417  0.0438 -0.2990 -0.0820
 6463W        W22272  15.199   0.428   2.848 -0.1273  0.2227 -0.0378
 6464W        W22273  13.287   4.382  15.212  0.3002  0.3338  0.3026
 6465W        W22274  10.906   5.759  12.234 -0.1885  0.1875  0.3706
 6466W        W22275   0.497  17.589   1.713 -0.0017  0.0441 -0.0102
 6467W        W22276   4.254   1.971  15.602 -0.1593  0.4263  0.0004
 6468W        W22277  16.095  13.539  12.441  0.0569  0.1439  0.1828
 6469W        W22278  12.580   8.053  14.205 -0.0077  0.3677 -0.1446
 6470W        W22279  14.831   5.181  12.844  0.0393  0.0363  0.0044
 6471W        W22280  10.572  11.326  11.198 -0.2212  0.2478  0.0657
 6472W        W22281   5.051  11.479  12.962 -0.2410  0.4994 -0.2324
 6473W        W22282  17.990   4.526   3.740  0.1515  0.0623 -0.0201
 6474W        W22283   7.080   2.154   1.138 -0.1448 -0.0186  0.1828
 6475W        W22284   1.277   6.856  10.677  0.1967  0.0970 -0.0253
 6476W        W22285  12.607  17.703   3.911  0.0533  0.0394  0.2395
 6477W        W22286   1.010   7.647   0.456 -0.0251  0.1291 -0.0411
 6478W        W22287   6.080  10.643   1.238 -0.0211 -0.3384  0.0165
 6479W        W22288  13.403   9.501  11.257 -0.1822 -0.0958 -0.2612
 6480W        W22289   1.532  10.835  12.723  0.1184 -0.1495 -0.1642
 6481W        W22290   9.449   4.137  10.661 -0.0087 -0.1327 -0.3486
 6482W        W22291   7.304  10.333  15.547 -0.1188 -0.0059  0.1600
 6483W        W22292  18.536   7.000   3.158 -0.0101 -0.3892  0.0574
 6484W        W22293   6.640  13.081   0.201  0.1605 -0.2299 -0.0284
 6485W        W22294  16.873  10.050  12.972 -0.0817 -0.0476 -0.2470
 6486W        W22295   6.800  13.947   6.015  0.0082  0.1938  0.0742
 6487W        W22296   3.643   1.938  14.858  0.0744  0.0763 -0.0112
 6488W        W22297   9.420   8.966   4.025 -0.1659  0.1942  0.2606
 6489W        W22298   8.695  13.371   0.167  0.1954 -0.2710 -0.1925
 6490W        W22299   6.201   6.511  14.468 -0.0613  0.2719 -0.0918
 6491W        W22300   0.960  14.301   3.386  0.1460 -0.0752 -0.1076
 6492W        W22301   0.612   1.836  12.975  0.1279  0.0727  0.2390
 6493W        W22302   8.084   6.711   2.777 -0.0824 -0.2428 -0.2713
 6494W        W22303  10.598   1.058   2.867 -0.0943 -0.2069 -0.1113
 6495W        W22304  15.553  13.693  12.289 -0.1571  0.0337  0.2627
 6496W        W22305   7.492  11.002   1.271 -0.0268 -0.2045  0.0622
 6497W        W22306   8.129  18.130   0.660  0.2369 -0.2932  0.0731
 6498W        W22307  11.292   2.600  12.786 -0.1327 -0.2287  0.0346
 6499W        W22308  15.150   7.949  12.852 -0.0806 -0.2816  0.1542
 6500W        W22309  14.462  14.099   4.355 -0.0517  0.2257  0.2428
 6501W        W22310  13.340  17.398   2.840  0.2288  0.2124 -0.3089
 6502W        W22311  18.177   4.777   1.114 -0.0563 -0.0399  0.2139
 6503W        W22312   6.655  15.231   5.546 -0.2703  0.3726 -0.0235
 6504W        W22313  14.185   3.694  12.321  0.1082 -0.1493 -0.0559
 6505W        W22314   7.327   0.206   0.941 -0.1351 -0.2163 -0.4982
 6506W        W22315   0.158  13.266  15.084  0.4502 -0.1555 -0.0308
 6507W        W22316  13.994  18.349   1.254 -0.0437  0.1150  0.0145
 6508W        W22317   6.289   8.355   1.270  0.2780 -0.1146  0.2146
 6509W        W22318  12.033   0.808   0.277 -0.0314  0.0423 -0.2017
 6510W        W22319   3.076   2.316   2.223  0.0231 -0.1433  0.2042
 6511W        W22320   5.920   2.005  13.423  0.1370  0.0828  0.0990
 6512W        W22321   9.457   6.014   5.915  0.1922 -0.0823 -0.0270
 6513W        W22322  18.569   5.627  12.231  0.0569 -0.1731 -0.0919
 6514W        W22323  16.055   8.520   3.245 -0.3178 -0.1569 -0.0208
 6515W        W22324   9.993   1.320   5.630  0.2045  0.0559 -0.0856
 6516W        W22325  12.958   7.952  11.626 -0.0555 -0.0195  0.0308
 6517W        W22326   7.322  13.818   2.450  0.0104  0.3783 -0.0737
 6518W        W22327   0.272   8.058   3.331  0.2409 -0.3360  0.0159
 6519W        W22328  16.464   7.885  13.357  0.0500 -0.0600  0.2899
 6520W        W22329  17.887   7.667   0.463  0.0894 -0.1224  0.0310
 6521W        W22330   4.888  15.469   1.117  0.2607  0.0818  0.1098
 6522W        W22331  10.073  10.225  14.313  0.2438 -0.1526 -0.0369
 6523W        W22332  15.981  14.005   1.477 -0.1370  0.2937 -0.1431
 6524W        W22333   9.688  10.893   3.279  0.1776  0.1532 -0.2112
 6525W        W22334   7.130   6.274  14.442 -0.3580 -0.0759  0.0003
 6526W        W22335  15.475  14.703   3.450 -0.0949 -0.5472 -0.2232
 6527W        W22336  15.437  16.135   0.768  0.0892  0.2016 -0.1653
 6528W        W22337  14.021   1.035  11.248 -0.0240 -0.1352 -0.2659
 6529W        W22338   6.037   5.884  12.247 -0.0772  0.0351 -0.2056
 6530W        W22339  18.253  17.441  15.408 -0.2248  0.0297  0.2230
 6531W        W22340  12.094  16.175  10.433 -0.0286  0.0811 -0.2079
 6532W        W22341  13.392  13.263   0.007 -0.1006  0.2090  0.0651
 6533W        W22342  16.380   7.362  13.393 -0.0954  0.2829  0.1583
 6534W        W22343  14.207  18.440  13.080 -0.0867 -0.2783  0.2212
 6535W        W22344   1.285   8.258   1.533  0.1122  0.0799  0.0510
 6536W        W22345  11.592   2.921   2.045 -0.0891 -0.2230 -0.0624
 6537W        W22346  12.000  18.172  15.217 -0.0669  0.2223  0.1401
 6538W        W22347  15.247   4.841  15.061 -0.0745 -0.1372  0.1239
 6539W        W22348   4.665   6.893  15.387  0.2577  0.0823  0.0226
 6540W        W22349  18.546   1.650   2.177  0.0410 -0.0810 -0.4955
 6541W        W22350  16.183  15.344  10.058  0.0534  0.3103  0.3152
 6542W        W22351  14.524  14.946  12.610  0.1180 -0.4723 -0.1319
 6543W        W22352   8.853   2.879  10.737 -0.0719  0.1040 -0.0004
 6544W        W22353   0.281  10.697   2.653  0.0171 -0.2004 -0.0593
 6545W        W22354   3.219   8.394   0.473 -0.0661 -0.0032 -0.1423
 6546W        W22355   7.371   5.673   1.602  0.0496  0.1376 -0.1599
 6547W        W22356  12.691  11.266  12.245  0.0215  0.3001  0.1733
 6548W        W22357   2.845   2.017   0.998 -0.0778  0.3326  0.2470
 6549W        W22358   3.045  17.661   3.566  0.1829 -0.1924  0.4673
 6550W        W22359   2.986   4.214   3.784 -0.2769  0.0506 -0.0811
 6551W        W22360  16.046  14.759  11.275 -0.1094 -0.0638  0.2043
 6552W        W22361  16.177   1.625   3.143 -0.2432  0.0524 -0.2847
 6553W        W22362  16.792   7.796   2.471 -0.0503 -0.5185 -0.0583
 6554W        W22363   9.574  14.287   4.263  0.0669 -0.1989  0.1156
 6555W        W22364  18.403  11.663  10.800  0.1079 -0.0526 -0.0251
 6556W        W22365   0.258  11.848   5.178  0.2643  0.0481  0.0310
 6557W        W22366  13.089   6.794   4.144 -0.3314  0.1334  0.1827
 6558W        W22367  12.814   8.777  13.797 -0.3451 -0.0331 -0.0674
 6559W        W22368  15.683   1.526   5.306  0.1106  0.3841 -0.1521
 6560W        W22369   5.998  15.706  11.809  0.0694 -0.0257  0.1037
 6561W        W22370   2.958  13.971  14.684 -0.1329  0.1359 -0.0848
 6562W        W22371   4.241   6.696  15.189 -0.2883 -0.2332  0.2630
 6563W        W22372   4.218   6.858   5.136 -0.0256 -0.1550  0.3718
 6564W        W22373   6.860  12.644   3.868  0.3152 -0.4037  0.0731
 6565W        W22374  15.974   2.403  13.916  0.3399  0.2429  0.0656
 6566W        W22375  14.656  10.598  11.682 -0.0357  0.1709 -0.0409
 6567W        W22376   1.519   2.814  11.454 -0.1277  0.0948  0.2107
 6568W        W22377  14.532   4.257  13.584 -0.4368 -0.0695  0.4672
 6569W        W22378   8.789   9.369  15.063 -0.1399  0.0115  0.4235
 6570W        W22379  10.490  12.174   1.139 -0.2327  0.0355  0.4914
 6571W        W22380  12.546  18.286  12.483 -0.0072  0.2248  0.2660
 6572W        W22381   2.084  14.179   3.145 -0.1057 -0.0189 -0.3891
 6573W        W22382   0.993  18.498   0.291  0.2243  0.0845 -0.1946
 6574W        W22383   5.639  17.594   5.020  0.0779 -0.1994  0.0886
 6575W        W22384   3.689  14.024  14.581  0.1431  0.2227 -0.0398
 6576W        W22385   6.784   9.817   2.671 -0.0470  0.0020  0.2949
 6577W        W22386   9.753   2.721   5.450 -0.0346  0.2870 -0.2065
 6578W        W22387  10.537   3.141  14.955  0.0558  0.2799 -0.2119
 6579W        W22388  14.268  17.723   3.376 -0.2519  0.5129 -0.4057
 6580W        W22389   3.771  17.656   2.999 -0.0189  0.1350  0.0890
 6581W        W22390   5.722  15.986  15.610 -0.0379  0.0439  0.0213
 6582W        W22391   9.309  16.489   3.742 -0.1074 -0.0342 -0.0639
 6583W        W22392  16.897   6.326  12.526 -0.2659 -0.2880 -0.0766
 6584W        W22393   8.425   1.754   3.371 -0.2145  0.0592 -0.1268
 6585W        W22394   3.934   0.848  11.936  0.1309 -0.1048  0.1553
 6586W        W22395  14.568   3.600  12.033 -0.1846 -0.0891  0.0080
 6587W        W22396  12.095   8.941   5.786  0.1967  0.0588  0.0906
 6588W        W22397  11.977   3.231   0.739  0.0034 -0.2121 -0.0446
 6589W        W22398   1.724   1.707   1.003  0.1924  0.1231  0.0619
 6590W        W22399  10.438  11.838  15.513 -0.2592 -0.2532 -0.0505
 6591W        W22400   0.329   0.338   5.800  0.0333 -0.0467 -0.0189
 6592W        W22401   1.117   7.330   1.876  0.1976 -0.1195 -0.1151
 6593W        W22402   6.980   3.905   5.895  0.4895 -0.1705  0.0518
 6594W        W22403   0.274  12.214  11.289  0.0740 -0.0201 -0.0969
 6595W        W22404  14.986   7.137  11.640  0.0473 -0.0292  0.0189
 6596W        W22405   0.012   4.183  12.025 -0.2537 -0.0867  0.8035
 6597W        W22406  14.759  12.098   3.059  0.0184 -0.0817 -0.0272
 6598W        W22407   4.950   8.042  11.172 -0.2412  0.2871  0.1686
 6599W        W22408   9.642   9.632  10.787 -0.3238  0.0169 -0.2948
 6600W        W22409   4.406  15.656  10.757 -0.1767  0.0368 -0.1001
 6601W        W22410   7.230  10.853   4.533  0.1232  0.1081  0.5220
 6602W        W22411   7.621   6.346   3.866  0.0882  0.2082 -0.0703
 6603W        W22412   7.109  15.280   5.138  0.0752 -0.0423  0.0899
 6604W        W22413   6.698  18.238   1.731  0.2639  0.4290 -0.1545
 6605W        W22414   0.557   2.809   4.263  0.0351  0.2566  0.3061
 6606W        W22415  12.873   9.244  13.338 -0.1384 -0.0910 -0.1191
 6607W        W22416   0.359   9.876   3.812 -0.0875  0.0766  0.1638
 6608W        W22417   6.402   0.509   0.745  0.0046 -0.2641 -0.0753
 6609W        W22418   2.880  10.875  13.436 -0.0823  0.1750 -0.0934
 6610W        W22419   9.629  12.964   4.379 -0.2450 -0.2963  0.1389
 6611W        W22420  10.465  16.911   1.400  0.0649 -0.2006 -0.1343
 6612W        W22421  14.658  15.090  10.887  0.4015 -0.0524  0.0412
 6613W        W22422  12.290   4.132   4.064  0.0727 -0.0098 -0.0338
 6614W        W22423  18.568   8.813   4.463 -0.2828  0.2581  0.3324
 6615W        W22424   4.275  17.260  14.762  0.3858  0.0122 -0.2392
 6616W        W22425   0.353   9.760  15.358  0.1598 -0.0390 -0.0761
 6617W        W22426  11.901   8.459  13.359 -0.1043  0.1417 -0.2049
 6618W        W22427   9.908   9.686  11.241 -0.1953 -0.2106  0.3519
 6619W        W22428   3.436  17.657  11.197  0.1049  0.0657 -0.1166
 6620W        W22429  15.436   6.693   0.686 -0.1678 -0.0171 -0.0166
 6621W        W22430  13.155  10.300   4.705 -0.1811 -0.2602  0.0084
 6622W        W22431  12.619  11.408   0.331 -0.0042  0.0191 -0.2667
 6623W        W22432  10.702   6.729   1.328 -0.6015 -0.1671  0.2181
 6624W        W22433   1.854   6.255   0.605 -0.0254  0.2411 -0.1320
 6625W        W22434  13.202   7.381   2.323  0.0108 -0.3436 -0.2160
 6626W        W22435   6.776   9.656  14.703 -0.1534 -0.1023 -0.3430
 6627W        W22436  16.668   5.387   3.006 -0.2158  0.0689  0.0438
 6628W        W22437   6.798   5.274  10.809 -0.0749 -0.0643 -0.1744
 6629W        W22438   4.794  11.081   3.901 -0.0475 -0.2033 -0.0075
 6630W        W22439  12.039  17.833  13.590 -0.0630  0.0334 -0.0851
 6631W        W22440   6.966   9.729   5.296  0.1917  0.1673 -0.0139
 6632W        W22441   8.754   3.428   0.195 -0.2633 -0.1129 -0.0382
 6633W        W22442   4.250  17.272   1.855  0.0924 -0.2072 -0.3724
 6634W        W22443   9.736  18.495  15.291 -0.1003  0.1030  0.0637
 6635W        W22444  17.494   3.130   4.574 -0.0729  0.0928 -0.2949
 6636W        W22445   2.676  17.335   3.271  0.2230  0.1064  0.0070
 6637W        W22446  16.456  18.123  11.453 -0.1662  0.2317  0.2718
 6638W        W22447  15.011  13.944  14.446 -0.2255  0.1950  0.1546
 6639W        W22448  17.066   6.960   9.733  0.1434  0.4363 -0.0745
 6640W        W22449  11.531  12.694   2.629  0.1152 -0.0194 -0.1467
 6641W        W22450  11.216   0.320  11.593  0.1664 -0.1382  0.0912
 6642W        W22451  10.400   7.077   1.477 -0.1723  0.2905  0.1910
 6643W        W22452   7.575   5.941  12.169 -0.1439  0.4513 -0.0215
 6644W        W22453   9.790   6.704  14.990 -0.3190  0.1759 -0.1150
 6645W        W22454   3.658  11.463  11.263 -0.0823 -0.1214 -0.1577
 6646W        W22455   1.632  13.442   3.641 -0.0130 -0.0750 -0.0101
 6647W        W22456   9.688  17.056  13.660 -0.1263 -0.2157 -0.0965
 6648W        W22457   5.767  14.353  14.886  0.0443 -0.0356  0.1875
 6649W        W22458  11.137   4.643  15.429  0.0210  0.0554 -0.3462
 6650W        W22459   8.456   0.976  13.384 -0.2173 -0.0114  0.2028
 6651W        W22460   9.241   9.000  13.249 -0.0891  0.2547  0.1698
 6652W        W22461  12.679   2.442   3.631 -0.1378 -0.0035  0.0062
 6653W        W22462  13.402   8.774   3.029 -0.0061 -0.2668  0.0666
 6654W        W22463  11.284   8.666   1.582 -0.0796 -0.2008  0.0130
 6655W        W22464   5.383   6.881  11.447  0.2306 -0.3325  0.2897
 6656W        W22465   4.922   3.695   4.924 -0.1078  0.2083  0.2600
 6657W        W22466  13.011  13.105  11.694 -0.1384  0.2567  0.0772
 6658W        W22467   5.684  12.483  11.623 -0.0116 -0.1479 -0.1264
 6659W        W22468  13.890   2.653  12.807  0.0428 -0.1046  0.1079
 6660W        W22469  14.264   3.443   4.347 -0.2173  0.2624 -0.1616
 6661W        W22470  13.217   1.647  11.268 -0.0998  0.0750  0.1972
 6662W        W22471   5.351  10.226   1.005 -0.1261  0.3895  0.0116
 6663W        W22472   4.866  17.186  10.874  0.0238  0.1866  0.0291
 6664W        W22473   3.102  16.711   3.299  0.2887 -0.0073  0.0794
 6665W        W22474  10.910  11.967  12.670  0.0012  0.1910  0.2437
 6666W        W22475  14.093   1.175  13.422 -0.1961  0.0069  0.0209
 6667W        W22476   0.562   4.677  11.283 -0.4086  0.2872 -0.1776
 6668W        W22477  12.445   2.895  10.910 -0.0252  0.0271 -0.0282
 6669W        W22478   9.294   2.238  14.213 -0.0533 -0.1047  0.0666
 6670W        W22479  11.854  18.163   5.060 -0.2832  0.0835  0.0875
 6671W        W22480   4.377   7.251   1.845  0.0038  0.1652  0.1341
 6672W        W22481  12.954  15.827  12.399 -0.5456  0.1069  0.0791
 6673W        W22482   5.216  14.619   0.526 -0.2018  0.1138  0.0503
 6674W        W22483  17.098   3.403   2.020 -0.3411 -0.3220 -0.0495
 6675W        W22484  11.269   5.014  13.278 -0.0625  0.2554  0.1680
 6676W        W22485  16.427  18.227  13.868  0.0462 -0.0481 -0.1520
 6677W        W22486  10.042  15.036  13.946  0.1902 -0.2420  0.3272
 6678W        W22487   5.501   3.835  13.405  0.3619  0.1537 -0.0874
 6679W        W22488  10.152   7.681   3.111 -0.1709 -0.2531  0.1059
 6680W        W22489   3.049   5.189  11.320  0.2904  0.0032  0.2086
 6681W        W22490   2.326   5.435   9.986 -0.1439  0.0601 -0.0749
 6682W        W22491   9.691  13.028  12.392 -0.2137 -0.2220  0.0786
 6683W        W22492  14.530  12.129  11.531  0.3402  0.0233  0.2408
 6684W        W22493   7.165   2.072   3.438 -0.3646 -0.2982  0.0520
 6685W        W22494   3.985   0.049   1.643  0.3548 -0.2829 -0.1665
 6686W        W22495   6.567  12.440   3.347 -0.2414  0.2901  0.3048
 6687W        W22496   4.153   9.624  15.572 -0.1056 -0.0361  0.0199
 6688W        W22497  16.932   5.324   2.537 -0.3523  0.5313 -0.0140
 6689W        W22498  13.625  14.936   5.971  0.1477  0.2659  0.0944
 6690W        W22499   5.938   4.831   2.224 -0.1902 -0.1084  0.0010
 6691W        W22500   3.468  13.660   0.306  0.0669 -0.0510 -0.0710
 6692W        W22501  16.096  11.004   1.102 -0.1454  0.0304 -0.0247
 6693W        W22502   8.928  13.730   2.681  0.0789 -0.0335  0.0908
 6694W        W22503  11.275  17.280   0.335  0.1062  0.1599 -0.0506
 6695W        W22504   5.363   3.653  15.186 -0.0896  0.0670  0.0802
 6696W        W22505   6.268  15.223  13.402 -0.0099 -0.0317 -0.1217
 6697W        W22506   0.137   3.163   1.492 -0.2321 -0.1133  0.0407
 6698W        W22507   8.035   6.089   5.294 -0.1547 -0.0067  0.0338
 6699W        W22508   8.733  11.329  10.857 -0.1549 -0.1335 -0.2909
 6700W        W22509  15.222  14.597  14.569  0.4290 -0.0601 -0.0209
 6701W        W22510  10.402   1.003  15.023  0.1302 -0.0280  0.1339
 6702W        W22511  10.181   9.377   3.956 -0.0823 -0.0507 -0.0795
 6703W        W22512   2.252   2.921   2.260 -0.1462 -0.1578 -0.1639
 6704W        W22513  12.611  15.111   4.908  0.0844  0.1567 -0.1925
 6705W        W22514  17.655  16.133  13.212 -0.1106  0.3731  0.2580
 6706W        W22515  10.427  11.637  12.506 -0.0013 -0.0882 -0.1254
 6707W        W22516  10.694  15.209  13.771  0.2834  0.2158 -0.1818
 6708W        W22517   4.704  14.918  15.393 -0.0605 -0.0535 -0.1630
 6709W        W22518  16.980  13.608  14.212  0.0610  0.0572 -0.0488
 6710W        W22519   3.518  11.288  13.789  0.0920 -0.0484  0.0097
 6711W        W22520   9.173   6.449   4.159 -0.1718 -0.0973  0.0365
 6712W        W22521   9.303  13.468   2.413  0.0197  0.1018 -0.0583
 6713W        W22522   6.646  11.143  14.877  0.1201  0.1756  0.0240
 6714W        W22523   0.648  12.775   1.895 -0.0803 -0.0716  0.1644
 6715W        W22524  13.908  10.043   9.455  0.1684  0.0031  0.2374
 6716W        W22525   2.086  15.377  13.800 -0.3086  0.3805 -0.2057
 6717W        W22526   1.110   9.241  10.789 -0.1527  0.4339 -0.1481
 6718W        W22527   3.705   1.764   0.627  0.1371 -0.1105 -0.0307
 6719W        W22528  12.838  14.700   2.641 -0.1576  0.1496  0.1302
 6720W        W22529  13.611  10.868  11.547  0.1427 -0.0311 -0.0335
 6721W        W22530   2.250  13.634   3.134 -0.0663 -0.1149  0.0463
 6722W        W22531  15.482   4.994  12.263  0.1077 -0.2120 -0.2037
 6723W        W22532  13.149  18.330  14.475 -0.1240  0.0367  0.3185
 6724W        W22533  12.262  10.485   2.535  0.0637 -0.0464 -0.4002
 6725W        W22534  15.982   5.466  14.884  0.2999 -0.1583 -0.0700
 6726W        W22535   0.595  13.148  14.866  0.0081 -0.5372  0.0279
 6727W        W22536  18.476  17.178   2.917 -0.1365 -0.1388  0.1553
 6728W        W22537   6.141   0.251   2.607  0.1299 -0.0914  0.0928
 6729W        W22538   0.386  15.069   3.249  0.0941 -0.1629 -0.1663
 6730W        W22539  13.168   5.107   5.231  0.2011  0.2186 -0.2932
 6731W        W22540  11.059   3.856  14.533 -0.1821 -0.0830 -0.0367
 6732W        W22541  11.873  15.876   5.381 -0.0556 -0.1503  0.1055
 6733W        W22542   4.157  10.123  11.957  0.0123 -0.3529 -0.2034
 6734W        W22543   3.889  12.053  14.393 -0.0174  0.3018 -0.0891
 6735W        W22544   7.598  18.291   2.978 -0.3104  0.1884  0.0690
 6736W        W22545  16.431   5.013  13.327 -0.2612 -0.0683  0.1602
 6737W        W22546   1.868   9.182  12.912  0.0065  0.0027 -0.0547
 6738W        W22547  17.637   9.225   2.508 -0.0362  0.0759 -0.1095
 6739W        W22548  15.823   0.545   0.812  0.1285  0.1164 -0.2351
 6740W        W22549  12.097  10.706   0.190  0.0300  0.1423 -0.2412
 6741W        W22550   1.294  12.798  12.465  0.0739 -0.0250 -0.2325
 6742W        W22551  16.488  15.915  10.517 -0.0410 -0.3312 -0.0100
 6743W        W22552  15.146  10.591   3.031  0.3535  0.0128 -0.3186
 6744W        W22553  13.362  11.147   2.955  0.0783  0.1084 -0.1467
 6745W        W22554  14.346  11.279   4.023 -0.1512  0.1279  0.0564
 6746W        W22555  16.941   6.379  13.003  0.2281  0.1170  0.2542
 6747W        W22556  15.310   6.277  14.990  0.0845  0.2308  0.1882
 6748W        W22557   1.540  10.302  13.569 -0.0129  0.2259 -0.1401
 6749W        W22558   8.957   2.740   2.983 -0.1858 -0.0851  0.0025
 6750W        W22559   7.609   9.077  12.577 -0.1106  0.0319  0.0973
 6751W        W22560  13.605   9.625   5.045  0.2780  0.3727  0.0201
 6752W        W22561   6.344  10.609  13.694  0.1251  0.1299 -0.2166
 6753W        W22562   2.133  16.240  15.320  0.1215 -0.1054 -0.1467
 6754W        W22563   1.067   7.493   4.395  0.1139  0.0806  0.0655
 6755W        W22564   5.159   6.118  12.218  0.1793  0.4559  0.2412
 6756W        W22565   6.420   4.732   5.061 -0.0342  0.2641 -0.0649
 6757W        W22566   0.325  12.550  14.037 -0.0513  0.1666 -0.1380
 6758W        W22567  10.673  10.497   3.679  0.3824 -0.2936 -0.2665
 6759W        W22568   0.194  10.842  12.718 -0.1043  0.3541  0.1536
 6760W        W22569  12.626  13.729   6.463  0.2428 -0.1614 -0.0103
 6761W        W22570  10.869   2.547  13.776 -0.0590 -0.0160 -0.2071
 6762W        W22571  18.594  14.249  13.955  0.0364  0.2511  0.1136
 6763W        W22572  16.978  18.170  10.994  0.1085 -0.1644  0.0638
 6764W        W22573   6.289   8.178   3.642 -0.1423  0.1163 -0.1878
 6765W        W22574  13.443   4.384  12.215 -0.1288  0.0108 -0.1713
 6766W        W22575  10.498   3.654   4.644  0.1659  0.0324  0.0036
 6767W        W22576  16.548   2.578  12.064 -0.2052  0.2606 -0.0842
 6768W        W22577   8.042   7.155  12.409 -0.2670  0.2060 -0.1128
 6769W        W22578   9.336  10.811   3.651  0.0099  0.0586  0.0292
 6770W        W22579   9.650   2.150   4.399  0.3600  0.0042  0.1643
 6771W        W22580  17.537  16.986   2.919 -0.2431  0.2790 -0.1689
 6772W        W22581  15.105  11.420   0.042  0.1492 -0.1783 -0.0841
 6773W        W22582  14.074  14.406   4.565  0.3005 -0.0298 -0.3190
 6774W        W22583   7.490  10.499   2.580  0.1064  0.3860 -0.1565
 6775W        W22584  12.364   5.313   1.194  0.1033 -0.1278  0.3929
 6776W        W22585  11.839   7.408  14.846  0.1506  0.1550  0.0136
 6777W        W22586  16.987   4.132   3.799 -0.0461  0.0059 -0.0808
 6778W        W22587  10.483   2.983   0.783 -0.0290 -0.4117  0.0891
 6779W        W22588  14.979  17.458   4.953 -0.4014  0.1832 -0.2122
 6780W        W22589   9.697   7.341   4.838 -0.0481 -0.2152  0.0041
 6781W        W22590   1.632   8.620   4.000 -0.0202  0.1116  0.2681
 6782W        W22591  16.982  11.624   1.915 -0.2299  0.1812  0.1766
 6783W        W22592   6.378   8.579   2.797  0.0904 -0.1046 -0.1386
 6784W        W22593  15.949  14.621  15.417 -0.0261 -0.1517  0.0471
 6785W        W22594  15.773   9.958   0.670 -0.5126  0.0854 -0.1351
 6786W        W22595  18.427   4.988  11.180 -0.1599  0.0200 -0.0002
 6787W        W22596  16.791  11.022   0.364  0.2597  0.4047 -0.1678
 6788W        W22597   5.918  11.231   2.268 -0.1412  0.1836  0.3662
 6789W        W22598  10.813  18.263  11.641  0.0037 -0.3736 -0.2239
 6790W        W22599   6.982  15.472   4.624  0.0211  0.1257 -0.0629
 6791W        W22600   6.348  15.285   1.103  0.0479  0.0624  0.0203
 6792W        W22601   3.374  16.610   5.014  0.1848 -0.0451  0.2733
 6793W        W22602   6.371  12.964  10.641 -0.1005 -0.2045  0.0656
 6794W        W22603   1.927   6.469  10.307  0.3426 -0.2080 -0.2269
 6795W        W22604   0.527   5.990  11.168  0.3164 -0.3051  0.0313
 6796W        W22605  18.289  13.147  12.896 -0.1418  0.0799 -0.1366
 6797W        W22606  15.377  12.102  15.143  0.1281  0.5143 -0.0119
 6798W        W22607   5.081  15.898   1.321 -0.1235  0.0957 -0.1307
 6799W        W22608   6.948   2.052  13.331 -0.1870  0.0734  0.2236
 6800W        W22609  10.532   9.521   5.641 -0.1165 -0.0849  0.0773
 6801W        W22610  10.492  11.623   2.853 -0.0108  0.1670 -0.0572
 6802W        W22611  11.318  11.744   3.801 -0.0368  0.3084  0.1373
 6803W        W22612  15.383   9.772  15.354 -0.2079  0.1308  0.0632
 6804W        W22613   7.061   0.105   0.529 -0.0376 -0.4180  0.0251
 6805W        W22614  13.922   6.259  12.721  0.1661  0.0170  0.1777
 6806W        W22615  12.650   9.796   4.900  0.0055 -0.4410 -0.3636
 6807W        W22616   0.808  14.148  13.470  0.1397 -0.0255  0.2626
 6808W        W22617  16.146  16.089  15.366  0.1088  0.0685 -0.2609
 6809W        W22618   1.964   3.896   4.645 -0.1393 -0.2893  0.0791
 6810W        W22619   0.102   2.332  13.744  0.1332  0.0687 -0.1510
 6811W        W22620  11.497   7.614   4.947  0.0529 -0.0407  0.4154
 6812W        W22621  14.473  17.915   4.745  0.2830 -0.0105 -0.0468
 6813W        W22622   0.509  14.709  13.239 -0.1316 -0.1344  0.1348
 6814W        W22623  12.087   3.252   0.237  0.0301  0.1613 -0.0037
 6815W        W22624  10.478   4.253   6.053 -0.1592  0.1208 -0.2658
 6816W        W22625   2.871   6.982  10.850 -0.0434 -0.0770 -0.3243
 6817W        W22626   1.747   1.200   3.269  0.0505  0.1246 -0.2684
 6818W        W22627   2.362   0.407  12.190  0.0178 -0.1999  0.0565
 6819W        W22628  11.887   1.099  13.054  0.0402 -0.2348 -0.0751
 6820W        W22629  17.656   8.922   1.577  0.1011  0.0832 -0.1000
 6821W        W22630   1.829  10.522   4.698 -0.0624 -0.1627  0.0748
 6822W        W22631   5.503  11.401  14.369  0.2057 -0.4505 -0.1631
 6823W        W22632   7.287   5.017   4.910 -0.0534  0.2133  0.2672
 6824W        W22633  10.390   9.395  11.122  0.0650  0.2547 -0.4343
 6825W        W22634   4.811  18.489  14.958 -0.1753  0.1704 -0.1401
 6826W        W22635  17.981  15.271   1.365 -0.2050  0.0928 -0.0607
 6827W        W22636  14.240   9.792   1.182  0.0827 -0.0700  0.2507
 6828W        W22637   6.312  12.814  13.938 -0.6137 -0.2910  0.2051
 6829W        W22638   1.668   9.975  13.903  0.0197 -0.2323  0.1084
 6830W        W22639  17.251  17.622  10.272  0.2382 -0.0864  0.0806
 6831W        W22640   7.297   2.535  14.138  0.1240  0.2963 -0.2301
 6832W        W22641  15.375  12.111   0.468  0.1001 -0.1062  0.2600
 6833W        W22642   8.657  10.579   2.552  0.0564 -0.0172 -0.2429
 6834W        W22643   8.430   3.323   0.520  0.1962 -0.0279 -0.1685
 6835W        W22644  15.133  15.936   3.376  0.0701  0.0335 -0.1621
 6836W        W22645  14.262  10.095  13.699  0.2100 -0.1368 -0.1182
 6837W        W22646   2.967  16.086   0.670 -0.0901  0.0524 -0.1150
 6838W        W22647  11.875  10.109   1.339  0.2152 -0.1324  0.0075
 6839W        W22648   3.394   4.551   3.663  0.0871  0.0658 -0.2023
 6840W        W22649   8.137  10.464  15.210  0.1039 -0.0601 -0.3174
 6841W        W22650   1.530  16.825   3.024  0.2024  0.0658  0.0347
 6842W        W22651  11.505  13.284   5.508  0.2773 -0.2051 -0.1299
 6843W        W22652  17.878  15.107   5.197  0.3438 -0.2425 -0.0447
 6844W        W22653   8.088   4.775   4.909 -0.1789 -0.0529 -0.3256
 6845W        W22654   3.373   5.068  12.647 -0.0039 -0.1195 -0.1130
 6846W        W22655  17.098   7.501  14.968 -0.1893 -0.2554 -0.0547
 6847W        W22656  15.849  10.199   1.361  0.0668 -0.1531 -0.0593
 6848W        W22657   7.138   6.884  12.029  0.0474  0.2265  0.1132
 6849W        W22658   3.752   2.406   3.001 -0.3126  0.1328 -0.3161
 6850W        W22659  14.580   2.634   0.199 -0.3571  0.2689 -0.1169
 6851W        W22660   5.036   7.115   4.211  0.3408  0.4215 -0.2617
 6852W        W22661  12.394  14.828   2.395 -0.2533 -0.2413  0.0249
 6853W        W22662   2.747   1.118   0.420  0.0279 -0.1003 -0.3833
 6854W        W22663  10.148  18.273  15.596  0.0506  0.2966  0.0874
 6855W        W22664  14.353   6.190  12.335  0.0619 -0.0591 -0.1719
 6856W        W22665   0.320   4.536   1.458 -0.0584  0.0907 -0.0364
 6857W        W22666  14.286  12.113  13.542  0.0848  0.0038  0.0254
 6858W        W22667  14.741   8.860   3.336 -0.2511  0.1672 -0.2304
 6859W        W22668   7.255   8.372  15.596  0.1674  0.1528  0.3156
 6860W        W22669   2.136  11.365  14.126 -0.2819  0.1471  0.1451
 6861W        W22670   1.831  17.112   5.154 -0.0278  0.2262  0.0995
 6862W        W22671   9.088   5.654   2.668 -0.2259  0.1132  0.0660
 6863W        W22672   6.254   5.716   3.921 -0.1502  0.0692 -0.2463
 6864W        W22673  12.212   2.049  13.955  0.0895  0.0729  0.1051
 6865W        W22674   3.950   7.035   1.563 -0.0255 -0.1535 -0.3443
 6866W        W22675  11.679   5.392   5.610  0.1202  0.1179  0.1211
 6867W        W22676  10.428  14.271  10.852  0.0885  0.0598  0.0129
 6868W        W22677   5.155  15.555  12.310  0.0298  0.0319 -0.4452
 6869W        W22678   6.218   9.141  15.307  0.1723  0.0165  0.0465
 6870W        W22679  13.632  16.375   1.976  0.0496 -0.0139  0.1384
 6871W        W22680   8.397   0.537  12.251 -0.1488  0.1783  0.0412
 6872W        W22681  15.950  13.999  12.241  0.1204  0.3324 -0.3113
 6873W        W22682   8.277   6.116  12.658 -0.0456  0.0847 -0.1458
 6874W        W22683  14.587   0.700   1.564  0.0223 -0.0719  0.0686
 6875W        W22684   2.226   7.590   3.973  0.0779 -0.2844  0.1056
 6876W        W22685   5.052  12.199   2.874  0.1043  0.1727 -0.1492
 6877W        W22686   3.586  11.966  11.806  0.1046 -0.1719 -0.0237
 6878W        W22687  18.024  11.414   0.150 -0.0487 -0.0502  0.0373
 6879W        W22688  17.068   3.133  13.491 -0.2206 -0.2311 -0.0498
 6880W        W22689   7.565   3.045   1.171  0.0267  0.1229  0.1037
 6881W        W22690   4.976  12.268  13.990  0.1131 -0.0834 -0.1769
 6882W        W22691  15.525  18.417   5.488  0.0182 -0.0256  0.1009
 6883W        W22692   0.002   0.100  14.817 -0.0507 -0.1778  0.1823
 6884W        W22693   1.769   5.527   1.299  0.1220  0.0115 -0.1169
 6885W        W22694   5.671   6.669   3.767  0.2597 -0.2612  0.0121
 6886W        W22695  14.115  14.609  12.517 -0.1544 -0.0104  0.0039
 6887W        W22696  15.726  15.710  14.043 -0.2289  0.3244 -0.0980
 6888W        W22697   9.824   3.872   5.410  0.0350  0.1359 -0.2951
 6889W        W22698   3.116  12.831   3.535  0.2708 -0.1715 -0.0586
 6890W        W22699   9.853   2.774  12.488  0.0366 -0.2440 -0.0095
 6891W        W22700   7.189   0.045   5.997 -0.1753 -0.2266 -0.0160
 6892W        W22701   0.638  10.898   3.322 -0.1640  0.0377  0.2016
 6893W        W22702   5.959  11.630   2.550  0.1604  0.0001 -0.0964
 6894W        W22703   8.936   0.078   2.508  0.0341 -0.0540 -0.1974
 6895W        W22704  13.912   3.437  12.651  0.0638 -0.0659 -0.0883
 6896W        W22705   7.397   8.293   0.643 -0.0212  0.0124 -0.2282
 6897W        W22706  12.594   5.563  10.917 -0.1821  0.3183  0.0056
 6898W        W22707  10.925  16.234  12.003 -0.1324  0.1086 -0.0872
 6899W        W22708  16.895  17.071  12.378 -0.4077  0.0442 -0.0829
 6900W        W22709   5.723  11.723  11.319  0.0242 -0.0393 -0.1684
 6901W        W22710   6.422  17.144  15.588 -0.0512 -0.1309  0.1140
 6902W        W22711   3.962  10.073   2.224  0.0141 -0.1981  0.1384
 6903W        W22712  17.734   9.761   4.063 -0.2755  0.1149 -0.2119
 6904W        W22713  13.532   7.938   3.156 -0.3335 -0.3681 -0.4411
 6905W        W22714   3.668  13.171   0.936 -0.1268  0.2220 -0.1613
 6906W        W22715  14.536  14.270   2.230  0.1664  0.1452 -0.1980
 6907W        W22716   9.840  16.473   3.876 -0.1598 -0.1068 -0.0364
 6908W        W22717   2.599   6.491  14.518 -0.3671 -0.0479  0.0873
 6909W        W22718  18.251  12.387   0.026 -0.1918 -0.2033 -0.1093
 6910W        W22719  16.979  17.351   2.042 -0.2600 -0.1318 -0.0125
 6911W        W22720   2.135   9.170  10.823  0.3992  0.0477 -0.0888
 6912W        W22721   3.312   7.836  12.516 -0.0514  0.1001  0.1252
 6913W        W22722  15.474  18.361   1.046 -0.1350 -0.3925  0.1127
 6914W        W22723  15.895   9.616  13.962 -0.3565 -0.0688  0.1730
 6915W        W22724  16.904  12.339   3.959 -0.0688 -0.0481  0.1586
 6916W        W22725  17.599  18.219  13.016 -0.1683  0.0588  0.2061
 6917W        W22726   3.710   6.720   0.431 -0.1262 -0.1333  0.0571
 6918W        W22727   7.733   5.206  13.936  0.1761 -0.1735 -0.2599
 6919W        W22728  16.876   4.542   2.048  0.3640 -0.3662 -0.1470
 6920W        W22729  16.312  12.802  15.045 -0.0249  0.1347 -0.0345
 6921W        W22730  11.996   4.740  10.310 -0.2697 -0.2866 -0.1344
 6922W        W22731   7.637  15.045   0.832  0.0718  0.1568 -0.0429
 6923W        W22732  10.014  15.139   0.589  0.4743  0.3734  0.1374
 6924W        W22733   2.490  12.767  15.278 -0.0311 -0.0286  0.1521
 6925W        W22734   0.234   9.060   1.218 -0.1816 -0.0908  0.0425
 6926W        W22735   3.643  13.202   3.341 -0.3074  0.0168  0.1274
 6927W        W22736  13.348   7.875   3.792  0.2346 -0.1518  0.1911
 6928W        W22737  10.369   0.378   2.901  0.1693 -0.1302  0.2234
 6929W        W22738  13.939   6.258   3.059  0.0242  0.1273  0.0472
 6930W        W22739  11.583  17.231   4.438 -0.3494 -0.0717  0.0950
 6931W        W22740   3.816   5.317   3.612  0.0759  0.0166 -0.1534
 6932W        W22741  15.676  10.258   4.279 -0.1355  0.0512  0.2185
 6933W        W22742  13.060  12.138  12.660  0.0378  0.2381  0.1259
 6934W        W22743   9.271   2.293  12.306 -0.2915  0.1655  0.2315
 6935W        W22744  16.071  10.147   2.364 -0.0426  0.0237  0.1777
 6936W        W22745   5.450   7.421   5.425  0.1111  0.1712  0.0888
 6937W        W22746  13.666   2.055  13.268  0.1163  0.0094  0.4236
 6938W        W22747   4.652   5.849  11.854 -0.0670  0.1575  0.3867
 6939W        W22748  12.860   9.062  12.033 -0.1429  0.3529  0.0026
 6940W        W22749  17.666   1.040   4.744  0.1180  0.0174 -0.2558
 6941W        W22750  14.426   1.349   2.177 -0.0090 -0.0169  0.0730
 6942W        W22751  11.583  10.359  14.716  0.1078  0.0824 -0.0247
 6943W        W22752   7.571  13.481  14.835 -0.1940  0.0718 -0.2585
 6944W        W22753   8.622   5.011  12.662 -0.1184 -0.0402  0.2125
 6945W        W22754  18.416  16.722   3.043  0.1024 -0.0420  0.0636
 6946W        W22755  13.934  11.339   0.451 -0.1628 -0.0150  0.0916
 6947W        W22756   0.244   8.831  14.854  0.2936 -0.2458 -0.2939
 6948W        W22757   2.606  17.702  10.813 -0.0601  0.0215 -0.3821
 6949W        W22758   5.978   6.981  14.497 -0.0711  0.3964 -0.1841
 6950W        W22759  12.806  11.859   4.666  0.0717 -0.2355  0.0470
 6951W        W22760   4.792   3.752   5.431  0.0344  0.1015 -0.1065
 6952W        W22761   9.757   2.277   3.918  0.1751  0.0455 -0.2068
 6953W        W22762   7.491   3.755  14.361 -0.0447 -0.0339  0.0923
 6954W        W22763  14.395  11.506   4.747  0.0547 -0.0899 -0.2058
 6955W        W22764   8.508   7.219  15.457 -0.0304  0.3952  0.1879
 6956W        W22765  11.168  10.547   5.159 -0.2367  0.2659 -0.0191
 6957W        W22766   7.284  13.593   4.759 -0.0706  0.0568  0.0052
 6958W        W22767  12.523  11.163   4.681  0.0028 -0.3638  0.1598
 6959W        W22768  17.138   7.383   3.758  0.1776 -0.1864 -0.1397
 6960W        W22769   6.220  13.916  12.858  0.0709  0.4183  0.0863
 6961W        W22770  14.997  11.869  14.911 -0.3036  0.0830  0.3294
 6962W        W22771   8.302  16.012   4.752 -0.2530 -0.0478 -0.0785
 6963W        W22772   1.495  11.400  14.704 -0.2044 -0.0800 -0.0695
 6964W        W22773   3.912   2.953  11.695 -0.0995  0.3114 -0.0451
 6965W        W22774  15.383   8.412  12.604 -0.0891  0.1840  0.4306
 6966W        W22775   2.481   4.008   2.819 -0.2929 -0.1893 -0.0666
 6967W        W22776  12.443  17.647   2.317  0.2584  0.1705 -0.0075
 6968W        W22777   8.955   4.663   1.867 -0.1405  0.1471  0.0977
 6969W        W22778   1.846  10.657  13.421 -0.1267  0.1591 -0.0955
 6970W        W22779  16.381   6.501   1.174 -0.1310  0.3632  0.0903
 6971W        W22780   2.958   4.008  12.046 -0.0950  0.0362  0.3022
 6972W        W22781  11.367   6.148   1.138 -0.0481 -0.1080  0.0945
 6973W        W22782   6.197   8.348  15.164 -0.1880  0.1025 -0.1277
 6974W        W22783  11.219   5.258   0.919 -0.3669 -0.0425 -0.3248
 6975W        W22784   6.570  15.756   4.637  0.2234  0.2149 -0.0310
 6976W        W22785   9.426   9.507   2.614 -0.0860  0.2358 -0.2944
 6977W        W22786  18.513  15.904  10.868 -0.1685 -0.2156 -0.2223
 6978W        W22787  14.389   0.807  12.197  0.1776 -0.0029  0.1498
 6979W        W22788   2.207   6.082  12.474 -0.2068 -0.2665  0.0305
 6980W        W22789   6.012  13.251   1.298  0.0343  0.1540  0.0215
 6981W        W22790   3.355  14.744   3.687  0.0228  0.0110 -0.2565
 6982W        W22791   0.604  14.554   4.883 -0.1252  0.1910  0.0285
 6983W        W22792  13.908  14.367   1.041  0.3863 -0.2232  0.0860
 6984W        W22793   2.010  10.695   4.228 -0.4877  0.0304  0.1731
 6985W        W22794   0.692   7.708   4.118 -0.3226  0.2750 -0.2374
 6986W        W22795  17.711   2.339  11.958 -0.1878  0.1681 -0.0653
 6987W        W22796  12.688  10.259   5.020 -0.0757 -0.1727 -0.1076
 6988W        W22797  13.083  11.666  12.047 -0.2443 -0.1304 -0.1855
 6989W        W22798   6.477  14.404   0.092 -0.0382  0.0359 -0.0384
 6990W        W22799  17.171  14.688   2.294  0.1823  0.0021  0.1028
 6991W        W22800   4.956   9.910  15.327  0.2123  0.1434 -0.0530
 6992W        W22801   6.867  16.777  13.593 -0.4077 -0.0763  0.0881
 6993W        W22802  16.484   6.048  14.336  0.1956 -0.0365  0.2841
 6994W        W22803  15.884  16.678   5.180  0.2416  0.2732  0.1469
 6995W        W22804   9.116  14.489  11.124 -0.0597  0.0495 -0.1773
 6996W        W22805  12.512  18.013   3.293 -0.0391  0.1240  0.4542
 6997W        W22806   6.446   2.984   4.062 -0.0530  0.1804  0.0659
 6998W        W22807  10.023   0.535  12.748 -0.1905  0.0090 -0.1125
 6999W        W22808   3.811   0.384  14.491  0.2362 -0.0813  0.1264
 7000W        W22809   3.508  10.768   3.251 -0.0781  0.1505 -0.1044
 7001W        W22810   9.118   4.016  13.671 -0.3809 -0.0785  0.2104
 7002W        W22811   6.385   4.984  11.215 -0.0098 -0.1745 -0.1128
 7003W        W22812  17.094   7.326   1.930  0.3535  0.0197  0.0081
 7004W        W22813   4.237  15.661  14.945 -0.2034  0.1579 -0.0532
 7005W        W22814  11.969  13.987  11.649 -0.1167 -0.0567  0.0574
 7006W        W22815  18.434   6.319   4.273 -0.0978  0.2556  0.1623
 7007W        W22816   1.421  14.584  11.757 -0.0310 -0.2232 -0.0349
 7008W        W22817   6.611  11.880   1.573 -0.2579  0.1332  0.1392
 7009W        W22818   8.077   7.652  12.238  0.1589 -0.2951 -0.1513
 7010W        W22819   7.482  11.548  14.926 -0.5942  0.1560  0.0599
 7011W        W22820   9.819  10.705  15.618 -0.2467 -0.1256 -0.3349
 7012W        W22821   9.435  18.229   2.637  0.0860  0.0310  0.2602
 7013W        W22822   5.786   8.392   3.544  0.4247  0.2295  0.0805
 7014W        W22823   6.096   9.521  12.978  0.1813  0.0380 -0.1702
 7015W        W22824   6.480  15.811   2.776  0.1395 -0.1250 -0.1176
 7016W        W22825   4.527   4.244  12.923  0.0184  0.0325 -0.2053
 7017W        W22826   7.775  17.586   0.296  0.1127 -0.0205  0.0416
 7018W        W22827   5.123  14.832  15.101 -0.1769 -0.0056 -0.0985
 7019W        W22828   4.559  15.145   1.070  0.0653  0.0952 -0.3834
 7020W        W22829  13.592   0.928   3.412  0.1799 -0.2113  0.0556
 7021W        W22830  13.847   3.097  11.751  0.3078 -0.0907 -0.0972
 7022W        W22831   0.044  12.792   2.656  0.1358 -0.2023  0.1429
 7023W        W22832   3.942   4.949  12.615  0.3859 -0.2361 -0.1751
 7024W        W22833   5.861  17.970  12.430 -0.0084  0.1174  0.0310
 7025W        W22834   8.576   5.339   3.933 -0.0476  0.1440 -0.0429
 7026W        W22835  10.781   2.943  14.054  0.0566  0.0961 -0.0498
 7027W        W22836   2.920   1.286  13.855 -0.1067  0.0708 -0.1371
 7028W        W22837  13.693   5.997  13.083  0.1131  0.0434 -0.0822
 7029W        W22838  12.804   7.598  12.944 -0.2786  0.1086 -0.0476
 7030W        W22839   6.484   3.064   5.042 -0.1966 -0.3131 -0.0360
 7031W        W22840  17.447   6.445  13.079  0.0182 -0.0022  0.0962
 7032W        W22841   4.953   0.133  13.942  0.0257  0.2880  0.0480
 7033W        W22842   4.418  14.567  11.049  0.3116 -0.0801 -0.2201
 7034W        W22843  12.704   1.116   3.216 -0.0530 -0.1280  0.1976
 7035W        W22844   9.815   4.898   4.010  0.1033 -0.0052  0.0370
 7036W        W22845   8.428  12.478   3.219  0.1273  0.1160 -0.1274
 7037W        W22846   5.448   0.301   1.987 -0.1085  0.3149  0.0562
 7038W        W22847  17.859   1.326  10.970 -0.1560 -0.1644 -0.1571
 7039W        W22848   1.408   0.403   1.793  0.1265 -0.0890 -0.0129
 7040W        W22849  14.487  15.040  13.968  0.0839  0.0582  0.0353
 7041W        W22850   1.737   5.029   3.777  0.0144  0.0667 -0.0006
 7042W        W22851  11.116   2.838  14.464  0.0024  0.5455 -0.0175
 7043W        W22852   0.209  11.850  15.296  0.1963 -0.6233  0.2734
 7044W        W22853  11.991   2.027  13.166  0.0719  0.1758 -0.0502
 7045W        W22854  17.525   6.298  11.680  0.0141  0.5132  0.3061
 7046W        W22855   6.086  12.029  14.575  0.2068 -0.0401  0.3559
 7047W        W22856   5.430   9.793   0.139  0.0875  0.2377 -0.0309
 7048W        W22857  10.236   9.746   3.008 -0.0684 -0.1047  0.1442
 7049W        W22858  16.993   5.476   1.805  0.2819 -0.0022  0.3237
 7050W        W22859   2.303  12.883  14.079 -0.2046  0.2683 -0.0968
 7051W        W22860   2.543  12.940   0.520 -0.0003 -0.0032  0.3905
 7052W        W22861   3.092   5.184   0.909 -0.3927 -0.2474  0.1432
 7053W        W22862   8.076   5.448  14.202  0.1053  0.0399  0.0219
 7054W        W22863   5.097  17.212  11.810  0.1387 -0.2218  0.2352
 7055W        W22864   8.137  16.602  12.866 -0.2282  0.2766  0.0378
 7056W        W22865   9.317  15.702  15.119  0.1934 -0.0665 -0.0778
 7057W        W22866   0.258  15.668  10.846  0.0727  0.0461 -0.0819
 7058W        W22867   7.257  16.346   3.060  0.3266 -0.0142  0.1024
 7059W        W22868  17.253   8.801   3.991  0.3228  0.3046  0.0388
 7060W        W22869  10.925   6.185  11.856  0.1886 -0.0496 -0.1554
 7061W        W22870  17.635  13.709   1.313 -0.1962  0.2544  0.1666
 7062W        W22871  16.357   6.779  14.316 -0.1560  0.0202  0.1212
 7063W        W22872  18.439   4.508  11.210  0.0070 -0.2472  0.1379
 7064W        W22873   7.429   0.308  10.519  0.2928 -0.0169  0.1421
 7065W        W22874   9.366  12.741   4.779 -0.0186 -0.1861  0.2467
 7066W        W22875   3.407  12.116  14.534  0.0111 -0.0536 -0.0251
 7067W        W22876   6.404   7.103   3.028 -0.1805 -0.1008 -0.2098
 7068W        W22877  10.961  13.073   3.781 -0.0829  0.2069 -0.0472
 7069W        W22878  12.666   9.781  12.962 -0.0127  0.1646 -0.1137
 7070W        W22879  11.916  12.213   3.203 -0.0298 -0.1411  0.1734
 7071W        W22880   8.569   3.543  11.334 -0.2399  0.0864  0.4835
 7072W        W22881  13.863  11.555   2.812 -0.1749  0.0345 -0.2731
 7073W        W22882  15.605   4.954  10.556 -0.1508 -0.2315 -0.1853
 7074W        W22883   3.958  16.092   3.738 -0.0070 -0.0599  0.1026
 7075W        W22884  14.383   6.396   3.350 -0.0807 -0.0456 -0.0053
 7076W        W22885  14.850  15.490  11.889  0.0533  0.3079  0.2558
 7077W        W22886   1.993   2.588  14.114 -0.2444  0.0382 -0.3295
 7078W        W22887  11.526   1.337   2.570  0.1417  0.0210 -0.1707
 7079W        W22888   6.207   9.315  11.675 -0.0886  0.1861 -0.0995
 7080W        W22889   4.609  15.992   0.389 -0.3825  0.2959 -0.0177
 7081W        W22890   6.558  14.151   4.987 -0.2300 -0.1575  0.0881
 7082W        W22891  12.270   6.092  11.202  0.0003  0.1652 -0.2008
 7083W        W22892  10.357   5.942  14.986  0.2114  0.2150 -0.0163
 7084W        W22893  16.891   4.191   4.629 -0.0562  0.1698  0.0451
 7085W        W22894  15.300  15.093  13.737 -0.0240 -0.1379 -0.1224
 7086W        W22895   1.655   9.728  14.508  0.3176  0.0463  0.2328
 7087W        W22896  17.753  13.312  14.622  0.2676  0.0081 -0.0253
 7088W        W22897   5.895  11.110   0.774 -0.0875 -0.1908 -0.2917
 7089W        W22898  14.740   2.700  11.462 -0.2169  0.2851 -0.1077
 7090W        W22899  13.821  15.379   2.157 -0.1486 -0.3058  0.0081
 7091W        W22900   7.315   3.173  14.022  0.3119 -0.0672 -0.2765
 7092W        W22901   1.263   2.409   3.675 -0.3551 -0.1138  0.0128
 7093W        W22902   5.243   7.071  13.781 -0.0747  0.0188 -0.0103
 7094W        W22903  13.386  10.095   1.275 -0.1144  0.0730 -0.0849
 7095W        W22904  17.334  11.384   2.246 -0.3291  0.3067 -0.1851
 7096W        W22905   2.535  10.450   5.162 -0.2869 -0.2428 -0.3165
 7097W        W22906   9.498   7.343   0.517 -0.3757 -0.3723 -0.0430
 7098W        W22907  15.851   4.406   3.257  0.1572  0.0132  0.0720
 7099W        W22908   1.080   0.161  12.299 -0.1172  0.2581 -0.3341
 7100W        W22909   9.965   6.279   1.514 -0.2869  0.0806 -0.0948
 7101W        W22910   8.060   6.836  14.293  0.0402 -0.0280  0.3289
 7102W        W22911   8.580   2.190   1.814 -0.0842  0.1326  0.3827
 7103W        W22912   6.460  11.417  12.216  0.4505  0.1341 -0.1327
 7104W        W22913  13.814   3.031   0.275  0.1194  0.2656 -0.2836
 7105W        W22914   5.739   2.555   1.039  0.0202 -0.0206 -0.0885
 7106W        W22915   1.052  11.927   0.135 -0.1576  0.1695  0.3164
 7107W        W22916  11.793  17.034   1.707  0.0444 -0.0091 -0.0846
 7108W        W22917  16.127  11.677   3.360 -0.1554 -0.0260  0.1507
 7109W        W22918   1.670   9.859  15.274  0.0962  0.2158 -0.2042
 7110W        W22919  12.558   4.856   2.690 -0.1514 -0.0877 -0.1221
 7111W        W22920  12.856  17.938  13.798 -0.1422  0.0200 -0.0043
 7112W        W22921   7.895   1.816   5.673 -0.2603 -0.1384 -0.1100
 7113W        W22922   9.876   6.316   3.291  0.0188 -0.2584  0.1641
 7114W        W22923   4.388  18.306   0.523  0.1013  0.0600  0.0251
 7115W        W22924  12.029  12.389  11.331 -0.0445 -0.1352  0.1387
 7116W        W22925   5.546   9.168   5.277 -0.3044  0.1237 -0.0511
 7117W        W22926  10.994  16.355  11.377  0.0244 -0.0554  0.2248
 7118W        W22927  11.448   0.254   3.583 -0.0709 -0.1294 -0.1813
 7119W        W22928   9.029   7.666   2.994 -0.0506 -0.2154  0.0962
 7120W        W22929  15.587   8.472   3.479  0.0311  0.0628 -0.0137
 7121W        W22930   0.162  16.401   3.817  0.1036  0.3259 -0.2350
 7122W        W22931   7.053  18.266  12.254 -0.1899  0.2319 -0.0828
 7123W        W22932  14.822   5.267  11.505 -0.0231 -0.2626 -0.1077
 7124W        W22933   3.362  14.661   2.356 -0.0057  0.2353  0.1347
 7125W        W22934   9.059  12.090  12.974  0.1880 -0.0497  0.0771
 7126W        W22935   9.962  16.171  12.069 -0.0949 -0.0519 -0.0489
 7127W        W22936   1.641   6.812   4.125 -0.0065 -0.2580  0.2129
 7128W        W22937   5.360  13.680  13.930 -0.0352 -0.0590  0.0723
 7129W        W22938   5.700  13.153  11.571  0.2601  0.0518 -0.3551
 7130W        W22939   5.041   4.286   1.147  0.1541  0.2538  0.1660
 7131W        W22940  17.452  13.727  15.352  0.1092 -0.2574  0.0686
 7132W        W22941   2.555   6.731   3.721 -0.0493 -0.1262 -0.0515
 7133W        W22942   3.890  15.166   1.148 -0.1457  0.1309 -0.0665
 7134W        W22943  14.945   0.751   3.832  0.3498  0.1146 -0.0019
 7135W        W22944  18.111   2.229   0.882 -0.1417  0.1137  0.0248
 7136W        W22945   4.156  16.804   1.914 -0.3906 -0.0280 -0.1792
 7137W        W22946   6.085  14.880   2.471  0.1773  0.0762  0.0199
 7138W        W22947   6.788   7.589  14.307 -0.1475 -0.0516  0.1387
 7139W        W22948  18.500   8.103   1.297  0.0100  0.2059 -0.1618
 7140W        W22949   0.346   5.974   5.190  0.0411 -0.0952 -0.0307
 7141W        W22950   4.097   5.879  10.610  0.0396  0.3182  0.0919
 7142W        W22951  16.705  17.825   4.015 -0.0227  0.1587  0.0394
 7143W        W22952   6.697   7.620   1.707  0.1113 -0.1309  0.0411
 7144W        W22953   1.344  11.300   2.177  0.2322  0.2865 -0.1413
 7145W        W22954  17.855   4.435  11.861 -0.0403  0.4742 -0.1698
 7146W        W22955  16.263   7.023   1.813 -0.0271  0.2314  0.1930
 7147W        W22956  12.590  12.495   1.754 -0.2713 -0.0018 -0.0541
 7148W        W22957  13.117   3.760  12.594 -0.3666 -0.1333 -0.0245
 7149W        W22958  17.115  16.115   3.364  0.3403 -0.0288  0.1011
 7150W        W22959  11.754   6.889  12.287  0.0375 -0.0003  0.1517
 7151W        W22960   7.800   3.248   0.253  0.0920  0.3567 -0.4218
 7152W        W22961   6.090   1.130  14.536 -0.0142  0.1462 -0.0441
 7153W        W22962   1.046   9.226   1.078  0.1190 -0.3065  0.0798
 7154W        W22963   8.166  10.028  11.773 -0.2040  0.2397  0.2341
 7155W        W22964  15.626   0.249   3.169  0.2716 -0.0951  0.0507
 7156W        W22965  13.452   6.038  12.565 -0.0976  0.1485 -0.1518
 7157W        W22966  14.762  13.341   2.292 -0.1471 -0.1783 -0.1400
 7158W        W22967   7.915   4.942  15.112 -0.1732  0.2101  0.1120
 7159W        W22968  13.977  17.080  11.712  0.1716  0.0967  0.1230
 7160W        W22969  17.434   5.318  15.274 -0.1320 -0.0998  0.0487
 7161W        W22970   9.453   6.919  14.677 -0.2329  0.0706  0.2171
 7162W        W22971   1.948   7.200   4.119  0.1349 -0.0509 -0.2971
 7163W        W22972   8.085  13.342   1.778 -0.1097  0.0667  0.2693
 7164W        W22973   4.956   2.302  10.703  0.0715  0.3311 -0.1583
 7165W        W22974  14.426   8.721  13.477  0.1651 -0.1539 -0.2613
 7166W        W22975  13.988   0.500   1.066 -0.1930 -0.2169  0.0141
 7167W        W22976  18.374  17.702   3.349  0.1451  0.2081 -0.3311
 7168W        W22977   9.865   1.737  12.186 -0.2211 -0.1097  0.2066
 7169W        W22978   3.119   5.673  10.972  0.1806 -0.0016 -0.1244
 7170W        W22979   0.256   0.913  15.048  0.0768 -0.0212  0.3370
 7171W        W22980   0.418  16.641   4.760  0.0452  0.3410 -0.1008
 7172W        W22981   2.139   6.442   3.545 -0.0708  0.6517  0.2946
 7173W        W22982   3.560   3.540   1.837  0.2616  0.0870 -0.2746
 7174W        W22983  17.650   6.758  14.850  0.1342 -0.0122  0.1144
 7175W        W22984  14.362  16.832  11.853 -0.1020 -0.0620  0.2206
 7176W        W22985   9.598   5.646  12.068 -0.0161 -0.0609 -0.1243
 7177W        W22986   4.438  13.601  13.993 -0.1211 -0.0541  0.1877
 7178W        W22987   5.808  15.261   3.292  0.1459 -0.2694  0.0734
 7179W        W22988   1.240  16.452   0.355 -0.1102  0.1828  0.0081
 7180W        W22989   1.009   7.644  15.572 -0.2724 -0.1080  0.1649
 7181W        W22990  15.392   1.863   5.043 -0.0843  0.2094 -0.0322
 7182W        W22991  17.873  17.551   5.672  0.0301  0.1609 -0.0543
 7183W        W22992  12.424   6.070  14.369 -0.3427 -0.2521 -0.1238
 7184W        W22993   5.402   9.749  15.274 -0.1570 -0.2289 -0.1056
 7185W        W22994  16.290  10.745  15.219 -0.1737 -0.4203 -0.2579
 7186W        W22995   0.343  18.026  11.383 -0.1502 -0.0330 -0.2247
 7187W        W22996  17.972  11.977   0.079 -0.0497 -0.2950  0.0370
 7188W        W22997   6.395   8.830   0.390  0.0014  0.1526  0.1292
 7189W        W22998   2.988   7.570   2.772 -0.1977  0.0124 -0.0612
 7190W        W22999  15.275   5.739  14.716  0.5799  0.1926 -0.0415
 7191W        W23000  13.263  10.684   5.027  0.0108  0.0904 -0.1028
 7192W        W23001   2.494   9.344   9.725 -0.0597 -0.2300 -0.1028
 7193W        W23002  11.467   0.081   2.176  0.2366  0.1444 -0.3464
 7194W        W23003  16.674   5.783   2.250 -0.1187  0.3297  0.0847
 7195W        W23004  14.530   5.889  11.597  0.2115 -0.0529 -0.0696
 7196W        W23005   0.207  16.142   4.784 -0.0880  0.0314 -0.0064
 7197W        W23006  11.721   9.313  11.761 -0.1192 -0.4284  0.0702
 7198W        W23007   3.287   8.538   4.442  0.0330  0.1122  0.1789
 7199W        W23008  12.240   1.273   3.364  0.2082 -0.1226  0.1666
 7200W        W23009   7.486   6.109  10.591  0.0700 -0.1744  0.0323
 7201W        W23010   9.194   6.302  12.548 -0.2013 -0.3994 -0.4208
 7202W        W23011  16.986  15.405  15.567 -0.1737 -0.0503 -0.0285
 7203W        W23012  16.149   7.386  14.692 -0.0670  0.1252  0.0584
 7204W        W23013   7.894   9.456   2.525  0.0873 -0.1671 -0.2163
 7205W        W23014   5.489  17.236   3.393  0.1306  0.0368  0.0039
 7206W        W23015  12.951   7.684   4.690  0.0467 -0.0736 -0.0282
 7207W        W23016   9.253   4.791   2.776 -0.0405 -0.2370 -0.1395
 7208W        W23017   9.230  14.022   2.310  0.1648  0.1379  0.3144
 7209W        W23018   4.527  18.038   1.074  0.1139 -0.1193  0.4070
 7210W        W23019  16.010   4.645   1.953  0.1307 -0.2530 -0.2224
 7211W        W23020   9.183   9.606  12.358 -0.0234  0.4552 -0.1694
 7212W        W23021   4.623  12.463   1.752  0.1730 -0.0159 -0.2173
 7213W        W23022   8.653  15.874  12.281 -0.1646 -0.1009 -0.2022
 7214W        W23023  10.809   8.170  14.363 -0.2042  0.3353 -0.0982
 7215W        W23024   9.032  17.425   0.645 -0.2763  0.3978  0.3511
 7216W        W23025  12.501  12.032   1.684 -0.3761  0.1821 -0.3300
 7217W        W23026   9.117  18.038   2.986  0.0320  0.1219  0.1248
 7218W        W23027   8.570   7.347  13.099 -0.2599  0.0091 -0.0259
 7219W        W23028   1.099  12.688  10.714 -0.2135 -0.1217 -0.2084
 7220W        W23029  13.290  14.439  11.983  0.1569  0.3020  0.1665
 7221W        W23030  17.562  14.997  11.063  0.1453  0.0107  0.0902
 7222W        W23031   5.395  12.385   1.624 -0.0536 -0.0324 -0.3449
 7223W        W23032   1.492  10.301   3.407  0.0690 -0.1573 -0.1511
 7224W        W23033   9.119   0.718  15.354  0.3385 -0.3396 -0.2212
 7225W        W23034  16.045   2.098   1.883  0.0435 -0.0740  0.5098
 7226W        W23035   0.429  16.231   0.451 -0.1148  0.0845 -0.1414
 7227W        W23036  12.020   7.556   4.968  0.1677  0.1501  0.1175
 7228W        W23037   0.357  14.579   4.191 -0.2130  0.1974 -0.4397
 7229W        W23038  13.426  11.952   1.648  0.2601  0.3370  0.0280
 7230W        W23039   5.899   6.952   5.113  0.1248  0.2219  0.2653
 7231W        W23040   8.911  16.299   4.730  0.1102  0.1817 -0.2998
 7232W        W23041   6.790  10.179  11.487  0.1994 -0.0047  0.2286
 7233W        W23042   9.445  12.196  11.517 -0.0809  0.0911  0.1092
 7234W        W23043  15.117   2.740  12.204 -0.0630 -0.0200 -0.0146
 7235W        W23044   7.238   2.587  13.223  0.1763  0.0084  0.1981
 7236W        W23045   0.252  12.871   1.344  0.1166  0.3556 -0.0468
 7237W        W23046  16.064  12.010   1.292  0.0098 -0.2120  0.0788
 7238W        W23047  15.496  11.981  14.351  0.0626 -0.2820  0.0452
 7239W        W23048   1.297   3.590   1.259  0.1936  0.0673 -0.1041
 7240W        W23049  13.409   1.178  12.276  0.2658  0.0423  0.0893
 7241W        W23050  10.154   1.133  13.874  0.2741 -0.0265  0.0503
 7242W        W23051   0.901   8.334   4.858  0.0187 -0.0543  0.1193
 7243W        W23052  12.520   7.482  11.268 -0.3763 -0.0044  0.1549
 7244W        W23053   4.096   2.602   0.539  0.0901 -0.1431  0.1841
 7245W        W23054  11.789   3.332   4.223 -0.0438 -0.0406  0.4520
 7246W        W23055  16.530  10.513  12.012  0.2175 -0.2014 -0.0136
 7247W        W23056   4.181  14.197  14.459 -0.1451 -0.1497 -0.2000
 7248W        W23057   9.002   4.241  10.206  0.0742  0.0145 -0.0130
 7249W        W23058  11.570  17.747   2.899  0.0022  0.2031  0.1709
 7250W        W23059   7.498   9.546   2.997 -0.1820  0.4481 -0.0952
 7251W        W23060  16.212   6.373   0.071 -0.0515  0.4278 -0.0684
 7252W        W23061  12.703  12.646  12.165  0.3482 -0.2268 -0.2732
 7253W        W23062   2.296  16.321   0.733 -0.0020  0.0417  0.3423
 7254W        W23063  11.373   9.453  12.144 -0.0527 -0.0085  0.1717
 7255W        W23064   6.932   7.021   3.538 -0.0173 -0.0184  0.2506
 7256W        W23065   8.874  13.869  14.235  0.0332  0.0469  0.0476
 7257W        W23066   3.227   0.353  15.592 -0.2768  0.2694  0.0048
 7258W        W23067  10.307  14.723  13.420  0.1995  0.1128  0.0651
 7259W        W23068  16.222  16.957   0.078  0.2384  0.0781 -0.0974
 7260W        W23069  17.464  11.683  11.502 -0.1842 -0.0756  0.1606
 7261W        W23070   3.058   9.701  12.920  0.1180  0.0689 -0.0736
 7262W        W23071   3.488  14.515   4.174  0.2417  0.0813 -0.1106
 7263W        W23072   4.853   4.480   2.106  0.0205 -0.1289  0.0865
 7264W        W23073  11.028  13.499   5.515 -0.3264  0.0423 -0.4660
 7265W        W23074   5.439  16.684  14.382  0.2807  0.1260  0.1881
 7266W        W23075   9.498   0.621   4.508  0.0062 -0.1782 -0.1061
 7267W        W23076  14.503  11.234   2.794  0.1236  0.2195  0.0284
 7268W        W23077   8.267  12.778  14.520  0.0609 -0.1567 -0.2608
 7269W        W23078   9.159  11.330  14.730 -0.1599 -0.1921  0.0344
 7270W        W23079  12.549  11.801   3.723  0.1791 -0.2070  0.0320
 7271W        W23080  12.088  17.365   2.000 -0.0152 -0.0515 -0.0600
 7272W        W23081  15.400   6.489  14.499 -0.0073 -0.0380 -0.1572
 7273W        W23082   0.822   3.283   4.259  0.0293 -0.1083  0.0727
 7274W        W23083  18.017  16.971  15.525 -0.1585 -0.0244 -0.3157
 7275W        W23084   0.950   5.673   4.747 -0.0649  0.1444  0.1770
 7276W        W23085   7.068   1.617   2.603 -0.2566  0.0551 -0.0632
 7277W        W23086  18.177  11.029   5.301 -0.1609 -0.3746 -0.1488
 7278W        W23087  14.275   7.768  12.646  0.0150 -0.2548 -0.1983
 7279W        W23088  11.981   2.157   3.944  0.0393 -0.0446 -0.2806
 7280W        W23089  15.965   1.274   1.243  0.1395 -0.1876  0.1054
 7281W        W23090   4.832  14.635   4.043  0.1172  0.2350  0.3104
 7282W        W23091  14.986   1.521   0.461 -0.0812  0.1281 -0.0289
 7283W        W23092  16.200   4.152  10.328 -0.1195  0.0095 -0.1227
 7284W        W23093   1.935  16.946  14.237  0.1213  0.1730 -0.0453
 7285W        W23094  15.625  12.841   0.131  0.1791 -0.2395  0.0182
 7286W        W23095  17.472   2.386  14.392  0.1167  0.0484 -0.0892
 7287W        W23096   8.741   5.271  11.921 -0.0742 -0.6380 -0.1543
 7288W        W23097   6.824   0.670   2.511 -0.0701  0.0991  0.0941
 7289W        W23098   3.563  12.531   2.183 -0.2828  0.4092  0.1159
 7290W        W23099   3.151  11.609   5.105 -0.0545  0.0682 -0.1338
 7291W        W23100   9.691   9.071   4.426 -0.1256  0.0550  0.0411
 7292W        W23101  11.541  11.723  11.978 -0.0840 -0.3043  0.5686
 7293W        W23102   4.479  12.903   3.654 -0.1465 -0.0951  0.4028
 7294W        W23103  15.413  16.834   2.454 -0.0879  0.1631 -0.0470
 7295W        W23104   2.005  13.379   1.684 -0.0490  0.0799  0.1789
 7296W        W23105  16.044  13.875   2.171 -0.1316 -0.0385  0.0725
 7297W        W23106  13.012  10.382   5.370  0.1170 -0.1450 -0.0511
 7298W        W23107   0.028   3.236   0.701  0.0525  0.0062 -0.1079
 7299W        W23108   8.485   6.377   3.330  0.2789 -0.0270  0.1455
 7300W        W23109   0.932   0.041   3.467 -0.1373 -0.0028 -0.2500
 7301W        W23110  11.674   5.876  13.600  0.0491  0.0423 -0.0531
 7302W        W23111  16.692   8.580  14.361  0.0279  0.0948  0.0990
 7303W        W23112   7.437  13.970  11.758  0.1342 -0.1563  0.1407
 7304W        W23113   7.969  10.503   4.890 -0.1584 -0.1614 -0.0642
 7305W        W23114   7.454   3.997   2.575 -0.0591  0.0406 -0.0153
 7306W        W23115   1.195   4.269   0.314  0.0481  0.1583 -0.1264
 7307W        W23116  10.396   3.046   1.368 -0.0334  0.0813  0.2523
 7308W        W23117  15.387   4.400   3.091 -0.0240  0.2346 -0.2673
 7309W        W23118   0.328   3.312   2.537 -0.2612  0.1244  0.0895
 7310W        W23119  12.205  10.164   4.291 -0.3246 -0.0768  0.1803
 7311W        W23120   6.172  15.613   4.854  0.0463  0.2893 -0.0431
 7312W        W23121  16.574  11.728   2.691 -0.1096 -0.1874  0.2410
 7313W        W23122  16.064   2.975   4.268 -0.1113  0.2904 -0.0899
 7314W        W23123   4.652  11.872  11.728 -0.1529 -0.1145  0.0062
 7315W        W23124   6.057  12.114   5.612  0.0340 -0.0427  0.1715
 7316W        W23125   2.672   6.606  11.763 -0.0678  0.3381  0.0005
 7317W        W23126  17.312   8.404   2.189 -0.0008 -0.0725  0.1656
 7318W        W23127  15.787   7.341  11.667 -0.1308  0.3226  0.1017
 7319W        W23128  11.215   3.423   2.914 -0.2517 -0.2915 -0.1745
 7320W        W23129  11.734  10.821   3.657  0.2093 -0.0834  0.0319
 7321W        W23130  15.173  15.539   5.462 -0.2774  0.0405 -0.3768
 7322W        W23131   2.594  12.758  11.426  0.0865  0.1722  0.3812
 7323W        W23132   3.685   0.982  15.116  0.0342  0.2375  0.1059
 7324W        W23133  11.486  10.330  11.229  0.3669 -0.1356 -0.1237
 7325W        W23134   7.671   2.007  14.717 -0.0602 -0.3448  0.3199
 7326W        W23135   7.605  12.811  12.685 -0.0326 -0.0849 -0.2885
 7327W        W23136   7.879  18.380   1.770 -0.1653  0.1172 -0.1195
 7328W        W23137   7.808  10.173  13.129  0.0799  0.0821  0.1892
 7329W        W23138   1.325  11.126   0.615 -0.1407 -0.0714 -0.0371
 7330W        W23139   7.971   0.021  15.097  0.2973  0.0396  0.0490
 7331W        W23140   0.616   3.096   1.663  0.1353 -0.0991  0.2608
 7332W        W23141  13.231  10.849   3.521 -0.0446 -0.7212 -0.1641
 7333W        W23142   6.560   8.789  13.314  0.2794  0.0217 -0.0992
 7334W        W23143   8.154   3.609  15.261  0.0106  0.1004 -0.1389
 7335W        W23144  14.663   9.977   5.684  0.0231  0.0645  0.0107
 7336W        W23145  14.166  12.447  12.589 -0.0975  0.1069  0.2249
 7337W        W23146  13.386   9.091  14.688  0.2603 -0.2278  0.0621
 7338W        W23147   9.345  18.656   0.005  0.2013 -0.0532  0.0058
 7339W        W23148   6.371  13.974  12.179  0.2439  0.1967  0.0232
 7340W        W23149  13.215   8.600  12.868 -0.0434 -0.0298  0.2239
 7341W        W23150   8.632   1.313   1.995 -0.3488 -0.0591 -0.0256
 7342W        W23151   2.747   7.945  12.423 -0.0650 -0.1760 -0.0169
 7343W        W23152   1.388   4.056  15.563 -0.0993 -0.2848  0.0844
 7344W        W23153   7.852   1.698   4.788 -0.2969 -0.1401 -0.0305
 7345W        W23154   1.677  17.154   3.376 -0.1128  0.0987 -0.2127
 7346W        W23155   9.668   3.882   3.120  0.0489 -0.2102 -0.0179
 7347W        W23156  15.192  16.165   1.263 -0.0589  0.3984  0.2274
 7348W        W23157   1.778   8.516   5.141  0.2586 -0.0059 -0.1099
 7349W        W23158   5.826  15.989   4.889 -0.2624 -0.2936 -0.1791
 7350W        W23159  11.902   3.047   5.186  0.1302 -0.0630 -0.0486
 7351W        W23160   4.131   7.741  13.187  0.0345  0.0141 -0.0413
 7352W        W23161   1.984  14.036  11.208  0.2248 -0.1761  0.2285
 7353W        W23162   3.500   4.058   2.456 -0.0450  0.2368  0.2622
 7354W        W23163   6.003   8.001   0.022 -0.0614 -0.1422  0.0819
 7355W        W23164  15.615   4.838   0.982  0.0022  0.2108  0.0689
 7356W        W23165  18.143   5.802   3.114 -0.2949 -0.2794  0.0260
 7357W        W23166  10.960   8.495  15.036 -0.0390 -0.3661  0.0546
 7358W        W23167   0.106  13.158   4.447  0.1308  0.0178  0.2015
 7359W        W23168  15.850  13.339  12.009 -0.0636  0.1242  0.1932
 7360W        W23169   5.539   8.739  10.260 -0.1697 -0.0577  0.0830
 7361W        W23170  11.071   9.864   4.204 -0.0239 -0.2204 -0.1752
 7362W        W23171  10.447   2.861   0.173  0.1600  0.2409 -0.0254
 7363W        W23172  16.642  18.627   2.335 -0.2744 -0.0055 -0.0175
 7364W        W23173  18.105  12.028  14.945 -0.0560 -0.0495  0.1293
 7365W        W23174  17.944   6.401   0.023  0.0318 -0.1370  0.0016
 7366W        W23175   7.583   4.985  15.607  0.3144  0.3044  0.0776
 7367W        W23176  13.794  13.578   3.999 -0.2066 -0.0784  0.0085
 7368W        W23177   8.788   8.290   1.793  0.4577 -0.0509  0.0215
 7369W        W23178  14.579   5.165  14.668  0.3317 -0.0079 -0.0562
 7370W        W23179  17.344   6.927   0.489  0.0195 -0.2052  0.0545
 7371W        W23180  11.076  12.560  14.419  0.0520 -0.0386  0.3494
 7372W        W23181  11.989  18.181   3.486  0.1719 -0.1592  0.0684
 7373W        W23182  14.961   9.789  10.772  0.1997  0.0751  0.4695
 7374W        W23183  10.139  13.889   1.141 -0.0566  0.0724 -0.2642
 7375W        W23184   8.041   6.920  11.010 -0.0989 -0.0201 -0.2941
 7376W        W23185   5.719   2.672   4.975  0.0148 -0.2951  0.0221
 7377W        W23186  16.655  10.727  12.941  0.1653 -0.0354  0.0304
 7378W        W23187   5.324  12.408  12.787 -0.0707 -0.4971  0.1754
 7379W        W23188   4.527  16.666   1.649  0.1079  0.0085  0.1817
 7380W        W23189   2.670   2.581   0.597  0.3089  0.2247  0.1907
 7381W        W23190  14.430  14.078   0.919  0.5211  0.1520 -0.0304
 7382W        W23191  14.917   5.184  10.680 -0.1568  0.1792 -0.0039
 7383W        W23192   7.771  17.303   1.241  0.1272  0.1456  0.4868
 7384W        W23193  11.931  15.794   0.556 -0.0010  0.1508  0.0598
 7385W        W23194  11.010   4.095   3.506  0.1420 -0.0723 -0.0835
 7386W        W23195  13.141   2.723  11.658  0.0535  0.1334  0.3431
 7387W        W23196   9.587  11.115   4.756  0.0656  0.0270  0.0344
 7388W        W23197   9.777  13.318   2.184  0.1511  0.1476  0.0868
 7389W        W23198   9.876   5.287   3.037  0.1234  0.0612 -0.1124
 7390W        W23199  10.105  11.265   2.032  0.0696  0.1009  0.4726
 7391W        W23200   0.056   3.186  14.132 -0.1408  0.4866  0.2269
 7392W        W23201  11.720  14.092   1.440  0.1322  0.0654  0.2429
 7393W        W23202   9.452   3.664  10.350 -0.2561  0.0221  0.1387
 7394W        W23203  13.366  15.571  12.003 -0.0764 -0.0981  0.1294
 7395W        W23204  17.547  12.812   3.705 -0.0694  0.1337 -0.1520
 7396W        W23205   7.519   9.421  14.044  0.1276 -0.4521 -0.0286
 7397W        W23206  13.439  12.484  10.970  0.1436  0.0422 -0.1073
 7398W        W23207   4.206  14.631  13.438  0.1400  0.0788 -0.0196
 7399W        W23208  13.073   8.402  11.489  0.1677 -0.2645  0.0131
 7400W        W23209   5.768  16.409   1.726 -0.0817  0.1292  0.1321
 7401W        W23210  14.111   5.981   0.578  0.0841  0.2497 -0.0532
 7402W        W23211  17.693   0.990   2.354  0.2145  0.0423  0.1935
 7403W        W23212   3.120   8.544  12.957  0.2330 -0.0028  0.0040
 7404W        W23213   8.835   4.754  13.235 -0.1735 -0.3427 -0.2099
 7405W        W23214   0.673   4.192   4.387  0.1173 -0.0473 -0.3940
 7406W        W23215  16.777   6.837   2.570  0.0383  0.0453 -0.2161
 7407W        W23216  11.246   7.040  11.966  0.2727 -0.2187  0.2218
 7408W        W23217  10.626   4.054  14.850 -0.0386  0.1506 -0.6843
 7409W        W23218  17.959  13.627   5.270  0.0483 -0.2403  0.0935
 7410W        W23219  18.666   6.034  11.110  0.0944  0.0454  0.1521
 7411W        W23220   2.420  14.845   1.248  0.2217  0.0655 -0.1296
 7412W        W23221  12.800  14.188  12.173  0.2281 -0.1257 -0.0365
 7413W        W23222   0.240   8.858   2.579 -0.0875 -0.0334  0.1025
 7414W        W23223   1.933   1.685   3.529 -0.1305  0.0774  0.1058
 7415W        W23224   1.592  10.313  14.855 -0.2092  0.2126 -0.2385
 7416W        W23225  11.527   2.513  11.549 -0.0244  0.1107  0.0931
 7417W        W23226   0.748  15.352   2.573  0.0443  0.1933  0.1347
 7418W        W23227  11.303  10.108  14.081 -0.0350 -0.1936  0.0159
 7419W        W23228   9.336   1.480   0.935 -0.2936  0.2661 -0.1052
 7420W        W23229   2.402  16.098  14.302 -0.1370  0.1236  0.1358
 7421W        W23230   6.473   0.802  13.858 -0.4548 -0.0194  0.1411
 7422W        W23231  18.565   4.859  14.573  0.1843 -0.0937  0.3154
 7423W        W23232  13.089   7.976   4.217 -0.0116  0.1415 -0.1144
 7424W        W23233  11.293   2.429  13.585 -0.0996  0.1797  0.0541
 7425W        W23234  13.825   0.607   0.201  0.4103 -0.1702 -0.1718
 7426W        W23235   1.894   0.753  11.980 -0.1762  0.0350 -0.1668
 7427W        W23236   2.250  12.455   0.507  0.2049  0.1490  0.1064
 7428W        W23237   2.235   4.501  15.227  0.1292 -0.0742  0.3438
 7429W        W23238   7.149   9.207  15.389  0.0863  0.0966 -0.1784
 7430W        W23239  10.270   7.130   2.240  0.1097 -0.0912 -0.0388
 7431W        W23240   5.905   9.088  11.298  0.1575  0.1189 -0.2022
 7432W        W23241  13.525   6.914  12.955  0.0247  0.1526 -0.1331
 7433W        W23242   5.924   6.282   4.798 -0.0401 -0.3626 -0.1337
 7434W        W23243   3.687  10.169  14.418 -0.0565  0.1964 -0.1762
 7435W        W23244  15.479  15.446   4.783  0.2124 -0.0173  0.2093
 7436W        W23245  10.077   7.870  11.653 -0.4061 -0.1469  0.0120
 7437W        W23246   6.260  16.349  14.623  0.0481 -0.3085 -0.0175
 7438W        W23247  16.414   2.088   4.548  0.2508 -0.2687 -0.0151
 7439W        W23248   7.344   5.277   2.260  0.0801 -0.2218 -0.0386
 7440W        W23249  10.754   0.109   4.751  0.1365 -0.0398  0.0844
 7441W        W23250   3.354   7.293   0.285  0.1251 -0.1605  0.0787
 7442W        W23251  16.218   4.209   2.259  0.0492  0.0975 -0.3981
 7443W        W23252  11.366   1.496   1.317  0.1190  0.0243  0.4456
 7444W        W23253  11.086   9.727   1.836  0.0002  0.1755  0.0928
 7445W        W23254  11.743   7.378   1.220 -0.2036  0.0641  0.0011
 7446W        W23255   0.790  13.523  12.168 -0.0547  0.0429 -0.0743
 7447W        W23256   2.565  14.545   2.970  0.4162 -0.0062  0.2031
 7448W        W23257  16.826  16.159  12.208  0.3195 -0.0480 -0.2005
 7449W        W23258  12.013   9.343  10.270 -0.3630 -0.1209 -0.0024
 7450W        W23259   5.909  13.956  14.550 -0.2357 -0.2260  0.1013
 7451W        W23260   1.100   6.924  10.210  0.0155  0.0872 -0.0075
 7452W        W23261  16.091  16.076  13.987 -0.0520 -0.2105  0.0685
 7453W        W23262  14.012   0.660  13.030 -0.0800 -0.1392  0.0673
 7454W        W23263  15.331   3.424   1.972 -0.0723 -0.1123 -0.0264
 7455W        W23264  10.553   2.623   5.016 -0.3769 -0.0232  0.0889
 7456W        W23265   3.265  16.522   5.462  0.1313  0.1530  0.0257
 7457W        W23266  12.493   2.298  11.357  0.1057  0.0562  0.0217
 7458W        W23267   2.536  10.515   4.226 -0.0224 -0.2207 -0.0128
 7459W        W23268  18.272   1.321   1.780  0.0557  0.0679 -0.1402
 7460W        W23269  18.670  14.390  11.917 -0.1033  0.0693  0.4349
 7461W        W23270  13.270   3.997   2.547 -0.5394  0.0319 -0.3524
 7462W        W23271   6.220   7.592  15.317 -0.1733 -0.2860 -0.1000
 7463W        W23272  12.481  10.675   9.724 -0.1099 -0.5567 -0.3199
 7464W        W23273   9.529  16.038   3.988 -0.0072 -0.2258  0.1728
 7465W        W23274   8.244  14.654   3.210  0.0121  0.1303  0.1669
 7466W        W23275   1.919   5.221  12.702  0.1018  0.1698  0.1405
 7467W        W23276   7.107   4.652  14.813  0.1573  0.2800 -0.3176
 7468W        W23277  11.091   0.887  14.298  0.0905  0.4217 -0.0317
 7469W        W23278   5.908   3.650   0.790 -0.1271  0.1382 -0.0413
 7470W        W23279  15.178  12.958  15.411 -0.1470  0.2237 -0.1463
 7471W        W23280  16.855   2.821  14.138  0.0695 -0.0415  0.0158
 7472W        W23281  12.122  12.338   1.447  0.1649  0.0966  0.1591
 7473W        W23282  11.927  14.223  14.371 -0.1315  0.0493 -0.2349
 7474W        W23283   8.511   8.608  11.753  0.1051 -0.2870 -0.2361
 7475W        W23284  14.663   2.599  11.941 -0.2473 -0.0914 -0.0169
 7476W        W23285   6.605  10.133  14.596  0.1053  0.0152  0.4563
 7477W        W23286   0.333   3.859   4.861 -0.3802 -0.0708  0.2466
 7478W        W23287   8.869  10.889   2.203  0.0952  0.0296 -0.0517
 7479W        W23288  15.006   4.192  12.689  0.2514 -0.1629  0.1144
 7480W        W23289  15.617   2.719  13.726  0.0540 -0.0297  0.0602
 7481W        W23290   6.241   1.875   1.481 -0.3486 -0.0009  0.1665
 7482W        W23291   0.895  13.216  10.329 -0.0152  0.0544 -0.2233
 7483W        W23292  18.450  16.315   5.138 -0.0462  0.2362 -0.1789
 7484W        W23293   7.428  11.203   4.802 -0.3408  0.1469 -0.2357
 7485W        W23294  13.998   9.577   5.427  0.0628 -0.0810  0.1736
 7486W        W23295  18.497   6.458   1.490  0.0507  0.0893 -0.1627
 7487W        W23296   6.865   0.212  11.590 -0.3803  0.4338  0.2930
 7488W        W23297   0.947  16.550   3.197  0.1922 -0.0067  0.0444
 7489W        W23298   5.157   4.318   2.507  0.0842  0.0566 -0.1850
 7490W        W23299  16.411  13.956   4.152 -0.1025 -0.1416  0.0004
 7491W        W23300  12.545  11.001   2.541 -0.0504 -0.2278  0.1154
 7492W        W23301   4.464  16.948  13.192  0.0411  0.0911 -0.2209
 7493W        W23302  16.761  12.587   1.530  0.2167  0.0706 -0.1559
 7494W        W23303  17.288   9.083   3.564 -0.2539 -0.2773 -0.0174
 7495W        W23304   0.147   1.905  10.979 -0.3138 -0.4146  0.0236
 7496W        W23305   1.956  16.344   3.174 -0.1887  0.0185  0.0311
 7497W        W23306  10.830  13.562   3.715 -0.0193  0.0810 -0.0298
 7498W        W23307   1.500   2.810   1.642 -0.1055 -0.2963 -0.4261
 7499W        W23308  16.906   9.770   4.064  0.2367 -0.2798  0.1052
 7500W        W23309   7.679   5.084  10.589  0.0148  0.2627  0.1079
 7501W        W23310   2.050  14.913  12.377  0.1885 -0.0508  0.0103
 7502W        W23311  18.117  16.588   0.790 -0.1906  0.0395 -0.0518
 7503W        W23312  10.581  14.698   0.142 -0.1338  0.0151 -0.0644
 7504W        W23313  10.886   9.532  14.230 -0.2191  0.1885 -0.2292
 7505W        W23314   6.960  15.740   1.952  0.0160  0.0450  0.0096
 7506W        W23315   8.820   6.128   3.715  0.2004  0.0698 -0.1071
 7507W        W23316   3.768  14.165  11.601  0.2792  0.5460  0.1734
 7508W        W23317  10.142   8.376   2.522 -0.0412  0.0088  0.0874
 7509W        W23318   2.587   3.812  14.529 -0.2538 -0.1524 -0.2583
 7510W        W23319   6.789   9.699   4.327 -0.0632 -0.0085  0.1543
 7511W        W23320  14.271   7.665  13.166 -0.1019  0.1152  0.1278
 7512W        W23321   9.539   6.147  10.993 -0.0457  0.2312 -0.1508
 7513W        W23322  13.711   4.304  13.951  0.0703  0.4487  0.2379
 7514W        W23323  18.324   9.728   3.444 -0.0880 -0.1448 -0.2272
 7515W        W23324   5.640   7.062  14.054  0.0128 -0.0755 -0.0278
 7516W        W23325   4.817   3.788  13.994  0.0694  0.0184  0.3885
 7517W        W23326  10.379  11.079   3.981  0.3383  0.0082  0.0568
 7518W        W23327   4.132  13.521   4.787 -0.0551  0.0927 -0.0859
 7519W        W23328  10.774   0.858   2.190 -0.2377  0.0110  0.0875
 7520W        W23329   7.336  10.608  10.079 -0.1205  0.1518 -0.4180
 7521W        W23330  17.169  14.671   1.773 -0.1705 -0.2953 -0.3172
 7522W        W23331   4.717  14.287   0.588  0.0070  0.0826 -0.0198
 7523W        W23332   4.148   1.880   5.426  0.0035  0.2491  0.1362
 7524W        W23333  15.310  13.692   0.606 -0.1755 -0.3349  0.0812
 7525W        W23334   9.522  12.258  12.919  0.1267  0.2832  0.1686
 7526W        W23335   5.192  17.421  11.288 -0.0777 -0.0254 -0.0859
 7527W        W23336   8.764   9.728  13.055  0.0762 -0.1506 -0.0263
 7528W        W23337   0.668   2.343  12.927 -0.0963  0.0230 -0.1219
 7529W        W23338  10.673   2.481   2.695  0.3623  0.0879  0.0289
 7530W        W23339  15.637   4.592  15.499 -0.2400 -0.0341  0.0541
 7531W        W23340  12.180  10.199  13.043 -0.0280 -0.0819  0.2818
 7532W        W23341  14.492   4.982   4.526  0.0616 -0.0461 -0.0746
 7533W        W23342  16.736  10.862   1.517 -0.1069 -0.2046 -0.0855
 7534W        W23343  16.710  11.777   9.927 -0.3224 -0.2115 -0.0812
 7535W        W23344  11.472   2.945  11.933 -0.0509 -0.1478 -0.0328
 7536W        W23345  14.637  15.365   5.382  0.0465  0.0227  0.0795
 7537W        W23346   1.105  11.732  15.020 -0.1188 -0.1382  0.1353
 7538W        W23347   8.794  16.203  13.468 -0.0475 -0.2776 -0.2604
 7539W        W23348  12.575  13.059   6.160 -0.1415 -0.0316 -0.0170
 7540W        W23349   3.221   1.066  12.209 -0.2339  0.0890  0.1265
 7541W        W23350   8.236  18.601   1.264  0.2615  0.0918  0.0375
 7542W        W23351   6.791  14.601  12.701 -0.1178 -0.2005  0.2609
 7543W        W23352  18.419  11.920  14.387  0.4103 -0.2295 -0.0795
 7544W        W23353   9.328  16.181   3.075  0.0901 -0.4583  0.0685
 7545W        W23354   4.141  14.668  14.011 -0.1593  0.2245 -0.1504
 7546W        W23355  16.876   8.628  10.865 -0.0894 -0.1119  0.0869
 7547W        W23356   7.547   2.133  12.452 -0.1106  0.1253 -0.3856
 7548W        W23357  14.460   1.384  15.053  0.0010  0.3128 -0.2373
 7549W        W23358  18.588  14.455   4.551 -0.1303 -0.1768 -0.0523
 7550W        W23359   5.158   9.975   2.013  0.1383  0.1154 -0.0118
 7551W        W23360   5.928   9.061  10.506  0.1831 -0.2131  0.2147
 7552W        W23361  17.667  12.882  13.764  0.0381  0.1504 -0.1401
 7553W        W23362   7.237  16.466   0.154 -0.0894  0.1981 -0.0507
 7554W        W23363   1.929  14.504   4.435 -0.0558  0.0258 -0.0338
 7555W        W23364   5.549   2.530   2.280  0.3682  0.1393  0.0333
 7556W        W23365  10.106  16.797  13.871 -0.2135  0.2272 -0.2528
 7557W        W23366   1.887   1.474   2.622 -0.0456  0.0047  0.2758
 7558W        W23367   3.286  10.234   3.839 -0.1474  0.3815  0.0971
 7559W        W23368  16.317   9.462   2.626 -0.1889 -0.1120 -0.2607
 7560W        W23369   9.790   4.672  10.150  0.0492 -0.1372 -0.1503
 7561W        W23370  16.042  18.093   3.208  0.0680  0.0035 -0.1712
 7562W        W23371   1.438  10.774   2.235  0.1706 -0.1001  0.0348
 7563W        W23372  13.105  14.377   0.788  0.3029 -0.1928 -0.1111
 7564W        W23373   7.940   2.121  12.832 -0.0682 -0.0002  0.0940
 7565W        W23374  14.231  12.507   1.902 -0.0447  0.0629  0.0220
 7566W        W23375  14.608   6.747   1.347 -0.1610 -0.1410  0.0176
 7567W        W23376  12.866   0.371  10.091 -0.2836  0.1512  0.0392
 7568W        W23377  13.127  14.497   1.336  0.1803 -0.0237  0.0894
 7569W        W23378   7.353   1.201  12.832  0.0439 -0.2569 -0.0956
 7570W        W23379   6.903   6.675   3.198 -0.1510  0.1393  0.1934
 7571W        W23380   3.876   5.175  14.094  0.0241 -0.2169 -0.1269
 7572W        W23381   6.833   2.854   1.407 -0.2597  0.0719 -0.2287
 7573W        W23382   9.283   7.426  11.730 -0.1204  0.0229  0.0271
 7574W        W23383  16.573  13.520   3.493  0.0683  0.4091  0.4765
 7575W        W23384  12.446   9.538   1.705 -0.1166 -0.3120 -0.0672
 7576W        W23385   5.130  14.551  10.000  0.1034 -0.0870 -0.0631
 7577W        W23386  15.262   9.982   1.851  0.1358 -0.0807  0.1694
 7578W        W23387   8.594   4.673   4.755 -0.2389 -0.1738 -0.1646
 7579W        W23388  14.873   9.873   5.103 -0.0262 -0.0986  0.2686
 7580W        W23389  15.649   6.650   2.969  0.0866  0.0875 -0.2831
 7581W        W23390  10.986   8.026  12.006 -0.2160  0.0015  0.2015
 7582W        W23391  18.273  11.158  11.608 -0.2775 -0.0214 -0.0297
 7583W        W23392  16.611   7.340   1.790 -0.2749 -0.2641 -0.1391
 7584W        W23393   0.095   3.772   2.096 -0.2086 -0.1296  0.1502
 7585W        W23394   4.316  10.892  13.153 -0.1294 -0.3481  0.0609
 7586W        W23395  10.629   5.671   3.737  0.1688  0.0760 -0.1561
 7587W        W23396  12.332  13.499  15.265 -0.0244 -0.3099  0.1694
 7588W        W23397  14.408  16.067   0.272 -0.2464 -0.2354 -0.0825
 7589W        W23398   6.690  16.243   5.322  0.1036 -0.2829  0.0249
 7590W        W23399  16.701   9.036  11.438 -0.0353 -0.0353  0.1102
 7591W        W23400  13.577  15.470  14.768 -0.0697 -0.0098 -0.0684
 7592W        W23401   9.485   7.874   2.818 -0.1648 -0.1775  0.1060
 7593W        W23402  13.218   5.348   5.673 -0.3072  0.2291  0.0237
 7594W        W23403   7.596  17.050   5.228 -0.0778 -0.0326  0.0012
 7595W        W23404  17.507   2.024   2.847  0.1750  0.0244  0.1646
 7596W        W23405   2.017  16.826   3.313  0.1895  0.2520 -0.1328
 7597W        W23406  16.948   9.311   5.270 -0.0278 -0.1724 -0.1818
 7598W        W23407   9.819   0.680  11.323 -0.1777 -0.0421 -0.2374
 7599W        W23408  11.303   9.349   2.319 -0.0391  0.0183 -0.0020
 7600W        W23409   3.937  13.972   2.886  0.0566  0.0653  0.1009
 7601W        W23410   8.323   7.394   2.973  0.3524  0.0177  0.0181
 7602W        W23411  15.658   1.557   3.101 -0.1895 -0.1310  0.0701
 7603W        W23412   2.535  16.721  13.449 -0.2841 -0.0941 -0.1161
 7604W        W23413  14.322  16.670  11.383 -0.1901 -0.3212 -0.0580
 7605W        W23414   4.370  11.056  10.335 -0.2486  0.2162  0.1780
 7606W        W23415   2.436   6.410  13.657 -0.0404 -0.1048 -0.0737
 7607W        W23416   7.474  15.165   5.432 -0.2026  0.2251 -0.1940
 7608W        W23417   5.632  12.101  13.397 -0.0947 -0.0386 -0.0824
 7609W        W23418   7.821  17.655   3.730 -0.1024  0.0857 -0.3185
 7610W        W23419   4.392  10.594   0.033 -0.2227  0.1033 -0.1583
 7611W        W23420   2.032   8.941   3.899  0.3423  0.0589 -0.0006
 7612W        W23421   4.123  12.686   4.620 -0.0560  0.0229 -0.0086
 7613W        W23422  16.719   6.223  10.282 -0.1151 -0.2150  0.1956
 7614W        W23423  18.428   2.031  12.430 -0.0803  0.2133  0.0602
 7615W        W23424   9.795  16.719  12.837  0.2419 -0.3012  0.0453
 7616W        W23425  11.750  16.633   4.315 -0.2763 -0.1699 -0.2735
 7617W        W23426   5.435  17.320  10.056  0.0041 -0.2699  0.0406
 7618W        W23427   0.242   3.557   3.440  0.0372 -0.0102  0.3600
 7619W        W23428  12.831   3.086  11.983 -0.0515  0.2873 -0.1363
 7620W        W23429  15.278  14.644   4.041 -0.1039  0.1534 -0.1484
 7621W        W23430  11.895  10.981  12.730  0.1880 -0.0157 -0.0061
 7622W        W23431  10.867   7.930  11.157 -0.2290 -0.1342 -0.2809
 7623W        W23432  11.850   6.046  12.503 -0.3506 -0.0316  0.0254
 7624W        W23433   2.776  13.767  11.371  0.0936 -0.1060 -0.0143
 7625W        W23434  18.058   6.123   1.378 -0.1524 -0.2102 -0.2371
 7626W        W23435  18.670  14.494   0.715  0.3641 -0.0975  0.2450
 7627W        W23436  15.655  11.112  13.158 -0.3344 -0.1534 -0.3295
 7628W        W23437  17.117   3.078   5.554  0.0285  0.2504  0.0927
 7629W        W23438   1.026   8.554   3.824 -0.3343 -0.1528 -0.1500
 7630W        W23439  14.254  10.552   1.506  0.3451 -0.1780  0.0837
 7631W        W23440  17.924  16.975   3.697  0.2671  0.4485  0.2090
 7632W        W23441  12.923  17.959   0.601 -0.1048 -0.2030 -0.0601
 7633W        W23442   2.906   7.522  12.677 -0.1759  0.2087  0.1829
 7634W        W23443   1.808   8.488   3.550  0.0357 -0.1726  0.3522
 7635W        W23444  12.302  15.211  12.892 -0.0224 -0.4001  0.1736
 7636W        W23445  12.442  15.543   1.871 -0.1581  0.2663 -0.0008
 7637W        W23446  12.202  14.518   1.983 -0.0336 -0.0658 -0.0163
 7638W        W23447   4.632   5.029  10.528 -0.2887  0.0326  0.0080
 7639W        W23448   2.453   2.418  11.100  0.1300 -0.3691  0.1966
 7640W        W23449  15.832   6.819   2.543  0.0094  0.2894 -0.0343
 7641W        W23450  15.455   7.795   4.507 -0.1946  0.0877  0.4051
 7642W        W23451  11.783   7.028  10.939 -0.4405  0.0860 -0.0097
 7643W        W23452   1.048  13.250   0.920  0.2785 -0.2437 -0.0055
 7644W        W23453   7.095   6.035   4.879  0.0060  0.0720  0.0314
 7645W        W23454  11.639  11.608  14.663 -0.1294  0.0817 -0.0070
 7646W        W23455  10.651  17.547   2.021  0.1285  0.0194 -0.1796
 7647W        W23456  15.457  13.210  13.147  0.6061  0.3930  0.0598
 7648W        W23457  14.729  12.992  11.493 -0.2642  0.0555  0.1017
 7649W        W23458   2.935   2.496   2.830  0.1962 -0.1614  0.0787
 7650W        W23459  16.842  12.016  10.708  0.0971  0.0269  0.2247
 7651W        W23460  18.263  14.667  12.310 -0.1766 -0.1834  0.2795
 7652W        W23461   7.138   3.712  15.338  0.1430 -0.0725 -0.0826
 7653W        W23462  10.579   0.821   6.035  0.0611  0.1181  0.0449
 7654W        W23463   7.495  15.384  10.164  0.0761  0.1662  0.1287
 7655W        W23464   5.368  13.780   4.419 -0.2386 -0.0661 -0.0135
 7656W        W23465  14.171  10.634   0.569  0.2111  0.1678  0.1229
 7657W        W23466   1.723   6.950   1.277 -0.0510 -0.2283 -0.1453
 7658W        W23467   1.972   1.552  13.897  0.1307 -0.2350 -0.1052
 7659W        W23468  14.246   1.508   3.212 -0.2882  0.3139 -0.0924
 7660W        W23469   1.049   0.538  11.879  0.0186 -0.0278 -0.0495
 7661W        W23470  15.822  11.051  13.847  0.0571 -0.1448 -0.3984
 7662W        W23471  17.566   3.884   4.122  0.1716 -0.1302  0.3311
 7663W        W23472  12.851   9.371   1.408  0.1473 -0.0811 -0.0545
 7664W        W23473  12.917  15.763   1.916  0.2033 -0.1320 -0.0462
 7665W        W23474   7.855  10.722   3.015 -0.1447 -0.0483  0.2711
 7666W        W23475   4.892   2.152   1.877  0.2012  0.2161  0.2149
 7667W        W23476   1.094  14.747  15.505 -0.0304  0.0028 -0.2489
 7668W        W23477   6.651  11.950   3.239  0.1952 -0.0364  0.0844
 7669W        W23478   7.721   5.448   1.932  0.1971  0.1236 -0.2192
 7670W        W23479   5.830   3.416  14.454 -0.0593  0.0852  0.0397
 7671W        W23480   7.780  18.641  10.720  0.3436  0.0502  0.0127
 7672W        W23481   7.908   1.983   6.619  0.1928  0.0181  0.1934
 7673W        W23482  14.345   9.401   3.475  0.0313  0.3014 -0.0540
 7674W        W23483   0.230   6.722  10.040  0.0899 -0.0407 -0.0173
 7675W        W23484   2.726   1.506   2.255 -0.1426  0.1249 -0.0529
 7676W        W23485  13.019   7.781  14.001 -0.0175  0.0763  0.3559
 7677W        W23486   1.079  17.480   2.372 -0.0225  0.1985  0.1923
 7678W        W23487   1.395   4.969  13.247 -0.1191  0.1669 -0.1233
 7679W        W23488   8.351   3.985   3.955  0.0079 -0.2133  0.2262
 7680W        W23489  10.868   1.330  11.012 -0.1600  0.1110 -0.0585
 7681W        W23490  11.425  12.003  12.732 -0.2319 -0.0108 -0.2181
 7682W        W23491  13.900   0.846   0.741 -0.1821  0.2462 -0.0473
 7683W        W23492   0.569  10.323  10.847  0.3568 -0.2781  0.0086
 7684W        W23493  12.981   1.889  15.328 -0.1270 -0.0479 -0.0494
 7685W        W23494  10.481  14.029  13.797 -0.2443  0.2570  0.0208
 7686W        W23495  11.924   9.309  15.181  0.0273  0.0774  0.0035
 7687W        W23496   1.537   4.554  11.095 -0.1370  0.1787 -0.1433
 7688W        W23497   9.350   1.813   5.324 -0.0558  0.0676  0.0678
 7689W        W23498  15.106   9.310   0.517  0.2858  0.5176  0.4067
 7690W        W23499  14.529  16.530   3.237  0.2482 -0.0761  0.2805
 7691W        W23500   8.245   9.422   2.155 -0.1378  0.1095  0.1363
 7692W        W23501   9.813   5.650   1.824 -0.0524  0.1131 -0.0576
 7693W        W23502   7.358   7.654  10.833  0.3157  0.0208  0.1682
 7694W        W23503  12.078   3.183   2.004 -0.0816 -0.1390 -0.0124
 7695W        W23504   0.664   0.125  11.407  0.1703  0.0143  0.1766
 7696W        W23505  10.836   4.031  14.173  0.0999  0.2683  0.2647
 7697W        W23506  16.095   9.381  13.452 -0.0403 -0.2763 -0.2722
 7698W        W23507   9.061   5.255  10.685 -0.0835 -0.0061 -0.3623
 7699W        W23508  11.727  18.528  12.610 -0.2068  0.1638 -0.2124
 7700W        W23509   9.876  12.003  10.658  0.3022  0.2957  0.1557
 7701W        W23510   5.263  17.037   3.793  0.2398 -0.2624  0.0026
 7702W        W23511  13.827   8.694  12.102 -0.3397  0.0734 -0.0504
 7703W        W23512  13.661   8.389   2.783 -0.3412 -0.3400 -0.0799
 7704W        W23513   6.860  10.616  12.782  0.0908 -0.0693 -0.3362
 7705W        W23514   6.046   3.321  12.110 -0.1679  0.1272 -0.0394
 7706W        W23515   4.988   7.285  10.787 -0.0357 -0.0318  0.1855
 7707W        W23516   9.823   3.575  14.847  0.3485 -0.1979  0.1945
 7708W        W23517   0.756   1.690   3.272  0.1321  0.0849 -0.2258
 7709W        W23518   2.544   9.276  10.244 -0.3241  0.1439  0.3031
 7710W        W23519  10.981  12.381  11.494  0.0988 -0.0497  0.1026
 7711W        W23520   7.028   3.621  13.598  0.0425 -0.2653 -0.1546
 7712W        W23521   9.753  10.239   4.849  0.1001 -0.0277  0.1261
 7713W        W23522   2.480   1.777   4.534 -0.1048  0.0807  0.0481
 7714W        W23523   6.744   6.912  10.712 -0.0945 -0.0279  0.1107
 7715W        W23524   7.969  18.560   0.468  0.1702 -0.2474  0.1199
 7716W        W23525  15.880   9.381  10.571 -0.0661  0.4332  0.0463
 7717W        W23526  11.605   1.756   5.256 -0.0635  0.1233 -0.1161
 7718W        W23527  11.559  18.415  14.717 -0.1854  0.1457 -0.1420
 7719W        W23528  11.060   0.085   2.621 -0.1449 -0.2244  0.1871
 7720W        W23529   2.094  17.497  10.945  0.0671 -0.0391 -0.2190
 7721W        W23530   1.012  12.582   5.162  0.1336  0.1377  0.1115
 7722W        W23531   9.246  10.813   5.177  0.1146 -0.0291 -0.2928
 7723W        W23532  14.429   9.263   1.170  0.0393  0.1783  0.2572
 7724W        W23533   1.777   4.632  10.284  0.0734 -0.0154 -0.0516
 7725W        W23534   3.590   6.005   1.236  0.1313 -0.1814  0.1942
 7726W        W23535   0.149   7.558   4.921  0.1648  0.5483 -0.0317
 7727W        W23536  18.257   7.455  10.256 -0.1031 -0.1405  0.0614
 7728W        W23537   7.499   3.942  12.896 -0.0361 -0.2665 -0.0222
 7729W        W23538  17.768   5.585  14.500 -0.0383 -0.3697  0.2970
 7730W        W23539   8.987   2.691  12.936 -0.2198  0.0131  0.2377
 7731W        W23540  17.433   3.867   0.713  0.0251  0.0391 -0.3272
 7732W        W23541   0.224  16.807  14.432  0.4058 -0.1258  0.0008
 7733W        W23542   1.329   5.396   0.044 -0.1826 -0.1696 -0.2580
 7734W        W23543   5.444   6.235   4.444 -0.1739  0.3977  0.0193
 7735W        W23544  18.424  15.942  15.257  0.0044 -0.2929  0.0118
 7736W        W23545  10.473   3.361   3.482 -0.0562  0.3743  0.3705
 7737W        W23546   8.601   5.179   0.705  0.0699  0.0935 -0.4133
 7738W        W23547   6.199  11.741   0.612  0.1206  0.1805  0.1523
 7739W        W23548   8.282   7.872   3.738 -0.1943 -0.0665  0.1173
 7740W        W23549  16.302  14.176   3.287 -0.0641 -0.0218 -0.1562
 7741W        W23550   7.376  17.417  15.311  0.1434  0.0834 -0.0308
 7742W        W23551  13.987  12.700   1.281 -0.2719 -0.1360  0.1279
 7743W        W23552   0.510  12.261   1.654  0.0476  0.2318  0.2532
 7744W        W23553  10.550  11.873   5.239  0.1407  0.0193  0.0018
 7745W        W23554   8.982  10.484   0.988  0.1459 -0.1349  0.1389
 7746W        W23555  10.161   9.848   5.046  0.2876  0.3605  0.0163
 7747W        W23556  12.109   3.457  13.989 -0.0967 -0.1669  0.2496
 7748W        W23557  14.536   7.343  14.696  0.1081 -0.1731  0.2729
 7749W        W23558   2.715   8.773   3.511  0.2595  0.4298  0.0553
 7750W        W23559   3.921  12.354  12.150 -0.1417  0.1736  0.0575
 7751W        W23560   0.114  16.983  14.990  0.1272  0.2729  0.2930
 7752W        W23561  17.791  10.235   4.065  0.0753 -0.1848 -0.0484
 7753W        W23562  12.341  11.414  10.793  0.1600  0.1404  0.1507
 7754W        W23563   4.711  14.163   4.821 -0.0181 -0.3902 -0.0148
 7755W        W23564   7.255  18.223   4.855 -0.0797 -0.0260  0.0768
 7756W        W23565  13.079   5.785   0.673  0.0686 -0.0416 -0.5011
 7757W        W23566   9.083  13.616   1.069  0.0340 -0.1842  0.1844
 7758W        W23567  11.045  16.396  12.828  0.0369 -0.1405  0.2499
 7759W        W23568  13.756  12.118  10.730 -0.1013  0.3972  0.0760
 7760W        W23569   8.154   9.952   1.881  0.2124  0.1241  0.1752
 7761W        W23570   9.631  17.942  14.086  0.1456 -0.0570 -0.2412
 7762W        W23571   5.034  15.429  14.259  0.1199 -0.1995  0.0258
 7763W        W23572  17.537  18.476   0.742 -0.3508 -0.0455  0.1818
 7764W        W23573  15.508   1.775  12.130 -0.4427  0.2008  0.1210
 7765W        W23574   7.529  11.688   4.831  0.1389  0.0343 -0.3353
 7766W        W23575   9.869   3.408  13.550 -0.0270 -0.1248  0.1030
 7767W        W23576   3.394  17.958   3.218 -0.0892 -0.1136  0.0576
 7768W        W23577   9.586  16.905   3.731  0.0166 -0.0831  0.0992
 7769W        W23578  10.477   5.284  12.107 -0.1258  0.0199  0.2217
 7770W        W23579  11.359  12.430  13.932 -0.0522  0.0645  0.0139
 7771W        W23580  12.864   5.871   1.624 -0.3304 -0.0207  0.1017
 7772W        W23581  12.962   5.336   4.826 -0.2557 -0.0976  0.0578
 7773W        W23582   8.211   8.528  14.954 -0.0583  0.1166  0.1388
 7774W        W23583  14.959   7.035  15.054  0.0696  0.0177 -0.2576
 7775W        W23584   3.241   6.570   3.872  0.2625  0.1793 -0.1229
 7776W        W23585  11.643   2.237   0.378  0.1507  0.0803  0.2186
 7777W        W23586   2.282   8.805   1.910  0.1322 -0.2621  0.1503
 7778W        W23587  18.391  16.988  12.745  0.0124 -0.0211 -0.2319
 7779W        W23588   3.707  17.849  12.892  0.0294 -0.0350 -0.0715
 7780W        W23589  17.297  14.026  14.194  0.0053 -0.4210 -0.4417
 7781W        W23590  14.105   9.765   1.654  0.2186 -0.1223  0.0514
 7782W        W23591  17.796   9.252  14.794 -0.0920 -0.0254  0.2348
 7783W        W23592  16.547   9.754  15.296  0.0137 -0.0175  0.0074
 7784W        W23593   5.398   2.660  12.380  0.4726  0.0409 -0.2177
 7785W        W23594  18.529   5.205   1.129  0.3962  0.0097  0.4808
 7786W        W23595   8.655   9.745  13.639  0.3419 -0.2113  0.0594
 7787W        W23596  15.441   3.801  10.846  0.4697 -0.0327 -0.0782
 7788W        W23597  11.698  18.508  12.056  0.1889 -0.0320 -0.1841
 7789W        W23598   9.849   2.644  14.341  0.2689  0.1738  0.0876
 7790W        W23599   1.048  15.423  12.938  0.0127 -0.1136 -0.0282
 7791W        W23600  12.982   4.101  10.874 -0.0054 -0.1349 -0.1165
 7792W        W23601  13.871   4.696   3.083 -0.1674  0.0613 -0.0087
 7793W        W23602  12.355   4.243   0.032  0.1071 -0.0209 -0.0452
 7794W        W23603  12.481   5.659  14.061 -0.2192 -0.1815 -0.0902
 7795W        W23604   9.362   5.679  14.400  0.0925 -0.4457 -0.0849
 7796W        W23605  17.550  14.535  14.920  0.1192 -0.0199 -0.0516
 7797W        W23606   5.039  15.993  14.849  0.1495 -0.0950  0.0305
 7798W        W23607   9.260  11.042  11.417  0.1898  0.0951  0.0192
 7799W        W23608   6.024  15.989  12.316  0.1235  0.2632 -0.1684
 7800W        W23609   2.414   4.671  11.534 -0.0251 -0.1044 -0.0310
 7801W        W23610  15.951  15.016  12.735 -0.0526  0.1784 -0.0218
 7802W        W23611  13.340   1.163  15.575  0.3746  0.1101 -0.0116
 7803W        W23612  16.954   5.124  11.172 -0.0899  0.2814 -0.1776
 7804W        W23613   8.589   5.181   4.514 -0.1346  0.0595  0.0375
 7805W        W23614   4.028   2.032   3.894  0.0313 -0.1823  0.0834
 7806W        W23615   6.023   3.091   5.309 -0.2047  0.2140 -0.2148
 7807W        W23616   5.824  15.416   1.922 -0.0965  0.1082  0.1704
 7808W        W23617  16.333   9.454  10.822  0.1322 -0.0998 -0.2908
 7809W        W23618   6.407   5.017   2.385 -0.0732  0.1249  0.2613
 7810W        W23619  15.725   8.721  14.041  0.1073  0.1102 -0.0255
 7811W        W23620   8.825  14.660  12.821 -0.4399 -0.2019 -0.0411
 7812W        W23621   5.108  14.368   3.416 -0.0706  0.1874  0.1872
 7813W        W23622   5.849  14.015  13.148 -0.1212  0.0399  0.0996
 7814W        W23623  10.151  14.367   1.531 -0.1861 -0.3291 -0.0289
 7815W        W23624   3.995  13.434  10.266 -0.2547 -0.0427  0.3807
 7816W        W23625  12.087  13.103  11.635 -0.0716  0.4476 -0.1814
 7817W        W23626   3.528   3.474  12.536  0.2427  0.1914 -0.1548
 7818W        W23627  15.730   4.535  14.304  0.1934 -0.1462  0.2128
 7819W        W23628  15.333  10.044   3.704  0.2044 -0.0903  0.2869
 7820W        W23629   1.699  12.982  13.510 -0.0783  0.0949 -0.2987
 7821W        W23630  10.271  13.716   2.706 -0.0237 -0.1472  0.0498
 7822W        W23631   2.184  10.472   1.171  0.0102 -0.0260  0.0272
 7823W        W23632   2.883   8.918   4.339 -0.3023 -0.0436 -0.2438
 7824W        W23633   9.794  18.534   0.212  0.1303  0.0354  0.5858
 7825W        W23634   2.091  15.272   4.623 -0.1890  0.2075  0.3791
 7826W        W23635   0.641  12.286  14.255  0.1027  0.2938  0.1689
 7827W        W23636  18.378  16.716   3.652 -0.0485  0.0794  0.1589
 7828W        W23637  11.632   5.038  14.244 -0.0513 -0.1983 -0.4642
 7829W        W23638  14.999   0.535   1.334  0.0855 -0.1885 -0.0510
 7830W        W23639   4.492   4.206  10.759 -0.0595  0.0432 -0.0933
 7831W        W23640  16.405  16.067   5.034  0.3108 -0.0058  0.0019
 7832W        W23641   5.525  12.934   2.842 -0.1636  0.0322 -0.0555
 7833W        W23642  18.358  16.113   3.664  0.0131  0.1054 -0.1092
 7834W        W23643   3.242   1.338  15.204  0.1658  0.1235 -0.0471
 7835W        W23644  11.285   2.796  11.161  0.4839 -0.0759 -0.4256
 7836W        W23645   5.961  12.610   2.880 -0.3451 -0.1583  0.2786
 7837W        W23646  12.029   8.353   2.801  0.1369 -0.3840  0.2653
 7838W        W23647   8.488   7.458  12.486  0.4002 -0.1183  0.0157
 7839W        W23648   3.417   1.380   0.440 -0.0384 -0.0201  0.0954
 7840W        W23649  17.760  11.348  13.172  0.0664  0.1182  0.1791
 7841W        W23650  13.706   9.750   1.224 -0.0470  0.0557  0.1053
 7842W        W23651  11.009  18.267  14.059 -0.0927  0.1371  0.1180
 7843W        W23652  18.085  16.554   5.929 -0.0146 -0.0669  0.2843
 7844W        W23653  16.754  16.855  13.320  0.1064 -0.0144  0.0907
 7845W        W23654  10.229   9.152   4.386  0.1554 -0.2544  0.2040
 7846W        W23655   3.103  16.445  14.455  0.0669  0.0587 -0.0194
 7847W        W23656   7.330   6.648   1.559  0.0702  0.1287  0.0681
 7848W        W23657   4.087  15.136   2.593 -0.1711 -0.1071 -0.2402
 7849W        W23658   6.825  17.677   2.586 -0.0452 -0.4991  0.1355
 7850W        W23659   2.348  10.628  11.522  0.0419 -0.0319 -0.0710
 7851W        W23660  14.653   4.794   2.092 -0.0143 -0.1253 -0.2322
 7852W        W23661   6.898   5.480  10.338 -0.2962 -0.2485 -0.0330
 7853W        W23662  12.644   4.397  11.893  0.0878  0.1685  0.0980
 7854W        W23663  14.427  14.394   5.854 -0.3159 -0.1367  0.0752
 7855W        W23664  12.632   7.090   3.974  0.0724 -0.0849  0.2071
 7856W        W23665  15.767  12.609   1.143 -0.1744  0.2245 -0.0768
 7857W        W23666   1.472   7.291   9.427  0.1371 -0.0199 -0.1630
 7858W        W23667  10.788   3.584  13.656  0.0722 -0.2211  0.0465
 7859W        W23668  14.037  10.950  14.528 -0.0122  0.1010  0.2188
 7860W        W23669  10.307  16.244   2.029  0.2059  0.1169  0.1888
 7861W        W23670  13.888  13.857   1.647 -0.0377 -0.1787  0.1474
 7862W        W23671  12.659  12.633  15.042 -0.1364  0.3433  0.1501
 7863W        W23672   3.413   6.436   1.402 -0.1117 -0.1478 -0.2590
 7864W        W23673   4.067   0.047  14.751  0.0135 -0.0670 -0.1572
 7865W        W23674   8.489   1.766  11.421  0.0050 -0.4287  0.0161
 7866W        W23675  14.354   6.345   4.602 -0.0064 -0.2146  0.1159
 7867W        W23676   6.672   3.963  13.790  0.1283  0.1271 -0.0429
 7868W        W23677   9.740   1.759   3.862 -0.0525  0.0815 -0.1207
 7869W        W23678  15.803  15.056   3.250 -0.2028  0.0668  0.1151
 7870W        W23679   6.232   9.835  13.815 -0.0223  0.2174 -0.4078
 7871W        W23680   4.155   1.900  15.125  0.3278 -0.0762  0.2337
 7872W        W23681   8.954   6.845   0.147  0.2508 -0.0149  0.3128
 7873W        W23682  13.565  12.117   5.046 -0.1551 -0.2589 -0.1370
 7874W        W23683   4.677   5.113  14.028 -0.0343 -0.0514 -0.4434
 7875W        W23684   4.363  16.120  15.478 -0.0699 -0.1981 -0.4706
 7876W        W23685  14.232  18.421   3.268  0.1770 -0.0386  0.0481
 7877W        W23686  11.513  11.191  11.358 -0.1201  0.2080  0.1617
 7878W        W23687  15.233   3.640  15.507 -0.1147  0.0743  0.0542
 7879W        W23688  16.082  14.752  13.487 -0.2187 -0.1169  0.2103
 7880W        W23689  17.435  16.976   2.050 -0.1685  0.3279  0.1626
 7881W        W23690  15.318  11.841   2.828  0.0965  0.5661  0.0225
 7882W        W23691   0.397  14.851  13.775  0.0453 -0.0344  0.0586
 7883W        W23692  15.923   7.480   2.607 -0.2153  0.1667  0.0888
 7884W        W23693  12.536   6.305  12.159 -0.1248 -0.1283 -0.0588
 7885W        W23694  13.231   3.535  11.118 -0.2549  0.4241  0.5540
 7886W        W23695   7.169  17.788   4.576 -0.2535  0.4536  0.2599
 7887W        W23696   5.052  10.820   1.022 -0.0996  0.1256 -0.0981
 7888W        W23697  14.823  17.729  13.454  0.0139  0.0454 -0.0040
 7889W        W23698  14.356  13.547  11.841 -0.2744 -0.0910  0.1549
 7890W        W23699   5.944  17.817   4.698  0.0446  0.3332  0.2652
 7891W        W23700  17.271   0.255   2.963 -0.0523 -0.5469  0.0220
 7892W        W23701  11.302   9.151   1.459 -0.0301  0.2286  0.0907
 7893W        W23702  12.454   9.142   9.926  0.1733 -0.0302  0.1450
 7894W        W23703  16.223  12.686  12.796 -0.1695 -0.0353  0.0842
 7895W        W23704   3.382  18.196  13.092 -0.0886  0.1007  0.1423
 7896W        W23705   0.552   3.082  15.419 -0.0965 -0.0000 -0.1430
 7897W        W23706  17.596  15.041   2.846  0.2656  0.1501  0.1874
 7898W        W23707   3.289   1.496  13.484  0.0167 -0.1047  0.0270
 7899W        W23708  10.413  17.146  14.089  0.1191  0.4233 -0.0472
 7900W        W23709  17.020  12.635  13.098 -0.1850 -0.2609 -0.0762
 7901W        W23710  10.710  11.376  14.755 -0.1123  0.0693  0.1845
 7902W        W23711   1.079   9.397   1.557  0.1458  0.1377 -0.0537
 7903W        W23712   1.879  13.525  10.409  0.0926  0.0469 -0.0696
 7904W        W23713   2.882  17.459  15.236  0.2000 -0.1976 -0.3294
 7905W        W23714   3.204   0.744   4.649  0.1424 -0.1725 -0.0160
 7906W        W23715  10.756   7.790  12.365  0.0307  0.0029 -0.0678
 7907W        W23716   5.573  15.016  15.551  0.0634 -0.0888 -0.0800
 7908W        W23717  10.169  13.557   1.541  0.2759 -0.2526 -0.1254
 7909W        W23718   6.825   3.245   0.454 -0.2800  0.1097  0.0942
 7910W        W23719  13.849   2.304   2.730 -0.0077  0.0363  0.0569
 7911W        W23720   7.740  14.045   2.260 -0.1054  0.4452  0.4278
 7912W        W23721   8.039  15.836  12.269  0.0485  0.0266  0.1482
 7913W        W23722   8.264   4.234  13.242  0.0630  0.3778  0.4064
 7914W        W23723   7.034   4.500   3.547 -0.0728 -0.1101  0.2909
 7915W        W23724  12.356  12.232  14.862 -0.0974 -0.0738 -0.3502
 7916W        W23725  15.719   5.991   1.360 -0.3198  0.0697  0.0353
 7917W        W23726   4.417  17.998   2.500 -0.0690  0.4512 -0.0091
 7918W        W23727  13.740  14.968  10.771 -0.1570  0.0598  0.1147
 7919W        W23728   5.819  17.869   3.884 -0.3074 -0.1739 -0.0066
 7920W        W23729   5.863  12.460  13.757 -0.2681  0.0737  0.1785
 7921W        W23730   1.382   5.593  13.023  0.1022 -0.1366  0.1020
 7922W        W23731  15.984   0.662   1.668  0.3815 -0.1058 -0.0099
 7923W        W23732   3.172   1.570   1.601  0.1619 -0.0810  0.0301
 7924W        W23733   2.229   7.184  14.188  0.1423 -0.0797  0.1684
 7925W        W23734  15.184   8.394   0.384 -0.2408  0.4029 -0.1412
 7926W        W23735   7.217   3.114   3.556  0.1835 -0.1821  0.0568
 7927W        W23736  14.599   3.165   4.726  0.1722 -0.2693  0.2221
 7928W        W23737   8.311   7.857  10.443 -0.0613  0.1541 -0.0238
 7929W        W23738  14.399   5.936  10.990 -0.0508  0.1663  0.3250
 7930W        W23739   9.451  15.978   0.579  0.1678 -0.0563  0.1511
 7931W        W23740  10.154   9.846  12.697 -0.3099  0.3185 -0.2642
 7932W        W23741   0.103  13.380   5.296  0.0389 -0.0271  0.0812
 7933W        W23742  14.170   6.680  11.345  0.0434 -0.0188 -0.0434
 7934W        W23743   6.222  15.171  12.662  0.0982  0.0114 -0.0733
 7935W        W23744  18.047  15.835   3.415  0.2704  0.1106 -0.0603
 7936W        W23745  13.737   2.141   0.305 -0.0250  0.1973 -0.1628
 7937W        W23746  15.515  17.795  12.873  0.1692 -0.0535 -0.1998
 7938W        W23747   3.311  14.913   0.192 -0.0610  0.0652  0.4253
 7939W        W23748   2.920   9.943   3.299 -0.0859 -0.0333 -0.2156
 7940W        W23749   4.924   1.651   1.653  0.1174  0.0938 -0.1800
 7941W        W23750   0.484  11.515   4.630  0.2890  0.1687 -0.0504
 7942W        W23751   3.128  14.796  15.003  0.0911  0.1067  0.1533
 7943W        W23752   4.974   6.449   1.829 -0.5745 -0.1712 -0.0577
 7944W        W23753  13.153  10.076   4.142 -0.0726 -0.3477  0.1389
 7945W        W23754  14.694   6.686  11.475  0.2198 -0.2365  0.2373
 7946W        W23755   9.724   0.566   3.966 -0.2017  0.1281 -0.0434
 7947W        W23756   0.887   2.226  11.887  0.1229 -0.0212 -0.1040
 7948W        W23757  14.927  15.206  14.094 -0.1587  0.0098 -0.0111
 7949W        W23758  16.977  18.101  14.620 -0.2581 -0.1743  0.1895
 7950W        W23759   4.424   4.407  14.119 -0.0246 -0.0389 -0.3380
 7951W        W23760   1.707   7.829  15.468 -0.3555 -0.1773  0.1263
 7952W        W23761   4.242   1.107  13.080 -0.0696  0.1409  0.2414
 7953W        W23762   4.652  16.815  13.940 -0.0611  0.1677 -0.3996
 7954W        W23763  17.920   2.048  12.996  0.1118 -0.0955 -0.0419
 7955W        W23764   8.250   5.726  10.843  0.3494 -0.1255  0.3097
 7956W        W23765  13.158   2.864  14.213 -0.0103 -0.2617 -0.2923
 7957W        W23766   9.458  14.441  14.598  0.1913 -0.1334  0.0239
 7958W        W23767   9.164  16.293  12.362 -0.4782 -0.3018  0.0902
 7959W        W23768  18.172   2.421  12.216 -0.1789 -0.0493  0.1445
 7960W        W23769   2.064  14.820  15.084  0.1681 -0.4017 -0.1535
 7961W        W23770   9.625   9.733   4.966 -0.0033 -0.1281  0.0208
 7962W        W23771   6.390  10.332  11.832 -0.1650  0.1843 -0.4031
 7963W        W23772   2.361   2.532   4.960 -0.1669  0.1314  0.4397
 7964W        W23773  10.572   2.626   5.551 -0.1637 -0.2744  0.0571
 7965W        W23774  14.951   5.574   1.866 -0.2466 -0.2373  0.3216
 7966W        W23775  18.413  10.368   0.866  0.3283  0.2134 -0.4701
 7967W        W23776   4.201   7.986  13.628  0.0557 -0.0032  0.2150
 7968W        W23777  13.312   3.935  11.995 -0.3117 -0.1637 -0.4322
 7969W        W23778  11.064  11.335   0.310  0.1968  0.2597 -0.0192
 7970W        W23779   6.413  17.883  13.654  0.0544 -0.0428  0.1645
 7971W        W23780   3.601   2.010   5.302  0.0395  0.0860 -0.2064
 7972W        W23781   7.436   8.967  13.953  0.3502 -0.0352  0.3788
 7973W        W23782   6.769   2.792  11.532  0.1321  0.0492 -0.2765
 7974W        W23783   0.346  17.002  11.497  0.1698 -0.0256 -0.2584
 7975W        W23784   9.908   9.217  10.790 -0.2565  0.1629 -0.0504
 7976W        W23785  11.377   1.971  12.058  0.0370  0.2039  0.1523
 7977W        W23786   3.095  11.168   5.278  0.0671  0.2161 -0.2161
 7978W        W23787   5.689   4.765   3.703 -0.1291 -0.0200 -0.1865
 7979W        W23788  13.821  11.027   1.932 -0.2459 -0.0128 -0.1169
 7980W        W23789   7.053  13.222   0.031  0.0886 -0.0423 -0.0989
 7981W        W23790  14.123  18.177   5.173 -0.0084 -0.1564 -0.2474
 7982W        W23791  10.050  13.743  15.427  0.0012 -0.0413 -0.1277
 7983W        W23792   9.274   6.674  15.124 -0.1137 -0.2831 -0.0439
 7984W        W23793  10.886   2.565   5.950  0.2324 -0.0842  0.0889
 7985W        W23794  16.142   1.285   3.519  0.1053 -0.1607 -0.1768
 7986W        W23795  14.607  16.254  11.551 -0.1427  0.1045  0.0421
 7987W        W23796  16.658   9.164   0.691 -0.2011  0.0082 -0.0657
 7988W        W23797   3.029   2.474  15.420  0.1548  0.0908  0.0487
 7989W        W23798   1.412   0.560   3.869  0.1240 -0.2228 -0.3609
 7990W        W23799   7.288   2.630   1.214  0.1847  0.0965  0.3052
 7991W        W23800  16.434  14.690  15.426 -0.1800 -0.1920 -0.1245
 7992W        W23801  15.620   5.500  13.283  0.0877  0.0840  0.0292
 7993W        W23802  17.004  14.575  13.696  0.0979 -0.1361  0.1115
 7994W        W23803   8.164  18.486   5.353  0.4022  0.0765  0.2287
 7995W        W23804   0.495  17.544  10.756  0.1617 -0.3145 -0.0472
 7996W        W23805   2.526   7.699  11.010 -0.4682  0.2883  0.1490
 7997W        W23806   4.149  12.878  13.370 -0.0275  0.1212  0.2109
 7998W        W23807   8.334   0.662  14.688  0.3468  0.1404  0.0045
 7999W        W23808   7.856  18.436  14.645 -0.0859  0.1290 -0.2542
 8000W        W23809   2.928   0.504   5.075 -0.3450 -0.0929  0.0812
 8001W        W23810  15.673   2.657   1.371  0.0544  0.2296  0.0663
 8002W        W23811  17.918   0.516   2.031  0.1137  0.1250  0.2397
 8003W        W23812   5.151  13.194  14.468  0.2395  0.0974 -0.0553
 8004W        W23813   3.418   6.887  14.541  0.1485  0.3402 -0.0164
 8005W        W23814  15.746   2.537   4.157 -0.0126  0.3385  0.0469
 8006W        W23815  10.534  17.657  10.403 -0.0126  0.2185  0.1600
 8007W        W23816  14.267   2.807  13.143  0.1298 -0.0290  0.4865
 8008W        W23817   2.082   9.489   3.839  0.0229  0.2753  0.2286
 8009W        W23818  16.982   9.799  10.171  0.0245 -0.3338 -0.1708
 8010W        W23819   7.872  12.553   3.094  0.1601  0.0065 -0.0021
 8011W        W23820  16.391  15.433  14.714 -0.0345 -0.1552 -0.4309
 8012W        W23821  17.468  12.740   3.171  0.2675 -0.0693  0.0923
 8013W        W23822  17.465   3.454  14.596  0.0242 -0.1110 -0.3021
 8014W        W23823  17.647  16.324  14.643 -0.1245  0.0711 -0.0828
 8015W        W23824  15.697   7.141   3.508 -0.0106 -0.2472 -0.1575
 8016W        W23825   0.813   4.395  12.906  0.1068  0.0388  0.1861
 8017W        W23826  16.739   2.523  15.397  0.3028 -0.1064 -0.0977
 8018W        W23827   2.679   5.435  11.019  0.1260 -0.2928 -0.0447
 8019W        W23828  13.892   6.605  13.741 -0.3349 -0.0054  0.2489
 8020W        W23829  10.194   0.097   4.736  0.0890 -0.2243 -0.4876
 8021W        W23830  15.868   2.797  15.185 -0.0808 -0.2454  0.2256
 8022W        W23831   3.340  15.498  12.016 -0.1000 -0.2578  0.3597
 8023W        W23832   2.904   0.274  14.704  0.2080 -0.2349 -0.0315
 8024W        W23833   1.283  16.505   1.366  0.0923  0.2013  0.0797
 8025W        W23834   9.413   3.745   4.539 -0.4322  0.0521 -0.2244
 8026W        W23835   1.949   3.656  12.044  0.2491 -0.1113 -0.1417
 8027W        W23836  13.785  13.948   2.762  0.3071  0.0931  0.0718
 8028W        W23837   0.627   7.396   5.049 -0.0934 -0.1580  0.0258
 8029W        W23838   6.249   8.161   4.755 -0.1130 -0.1360  0.0955
 8030W        W23839  13.668   0.191   4.262 -0.1821  0.2180 -0.1373
 8031W        W23840  12.324  14.911   5.709  0.1538 -0.2600  0.0172
 8032W        W23841  14.426   0.370   3.205 -0.2064  0.0691  0.1149
 8033W        W23842  14.233   3.519   4.916  0.1660 -0.0647 -0.2202
 8034W        W23843   6.353   4.870   2.835  0.0157 -0.2693  0.3242
 8035W        W23844   1.578  16.527   6.036  0.5078 -0.0324  0.0095
 8036W        W23845   5.788   7.433  11.442 -0.0929 -0.0146  0.2702
 8037W        W23846  13.305   0.884   6.067  0.2912 -0.0343 -0.3193
 8038W        W23847  13.430   7.675  13.742 -0.2325 -0.1048 -0.1988
 8039W        W23848  14.336   9.702   3.955  0.1047  0.1843 -0.1343
 8040W        W23849  13.198  12.574  13.698  0.0141  0.2130  0.2859
 8041W        W23850  15.729   3.940  13.706 -0.2224 -0.1640  0.1883
 8042W        W23851  15.498  13.159  10.358  0.0990 -0.3581 -0.0966
 8043W        W23852  16.500  10.031  10.187 -0.2519  0.1072 -0.2473
 8044W        W23853   8.336   6.510  11.065  0.0556  0.1815  0.1433
 8045W        W23854   2.820   2.418   4.615 -0.1342 -0.0203  0.3620
 8046W        W23855   1.651  13.613  12.812 -0.1688  0.0695  0.0405
 8047W        W23856   4.313   0.008   0.141 -0.1184  0.0597 -0.1065
 8048W        W23857  11.336   5.008   0.130  0.3353  0.0528  0.0011
 8049W        W23858   0.585   5.093  10.193 -0.3673 -0.1004  0.0392
 8050W        W23859  17.067   8.205   9.589  0.1524 -0.1183 -0.3231
 8051W        W23860   3.055  12.602  11.151  0.1491  0.0302  0.0170
 8052W        W23861  10.175   2.424   2.369 -0.2340  0.1113  0.1778
 8053W        W23862   7.359  13.166  12.469 -0.2341 -0.2092  0.3598
 8054W        W23863  13.535   5.690   5.967  0.0539  0.2575 -0.0161
 8055W        W23864  17.649   5.147   0.503  0.2021 -0.1727 -0.0374
 8056W        W23865   5.265  14.463  14.826  0.1776  0.0818 -0.1602
 8057W        W23866   6.729  12.102  11.510  0.3158  0.0825  0.1678
 8058W        W23867   1.335   9.874   3.403 -0.1653  0.0499 -0.0130
 8059W        W23868  12.828  15.712   2.434 -0.1919 -0.2353 -0.0054
 8060W        W23869   8.287   6.146   4.484  0.1962 -0.1026  0.2750
 8061W        W23870   2.033  16.432  11.957  0.2675  0.2127 -0.2854
 8062W        W23871   4.808  16.130   5.121  0.1359 -0.1009 -0.2300
 8063W        W23872  15.524   8.061   3.777  0.0211 -0.1171  0.3320
 8064W        W23873   9.104  13.705  12.667 -0.1671  0.0032 -0.1024
 8065W        W23874  10.632  17.476   1.249 -0.0263  0.1866 -0.3157
 8066W        W23875  14.374  14.640  14.767 -0.0818 -0.0748 -0.0408
 8067W        W23876   1.537   8.000  11.059  0.2571  0.1224 -0.1743
 8068W        W23877  14.629   9.471   0.611 -0.1914  0.1608 -0.1394
 8069W        W23878   1.322   0.890   3.174  0.1337  0.1920 -0.2166
 8070W        W23879  15.974  16.382  14.560  0.0539  0.1766 -0.1943
 8071W        W23880   4.376   3.670  11.508  0.1348  0.2070  0.2118
 8072W        W23881   5.220  13.723   2.662  0.0290 -0.1728 -0.1741
 8073W        W23882  15.646   7.469   1.299  0.0065 -0.0992 -0.0441
 8074W        W23883  14.982   0.366  14.425  0.0686 -0.1592  0.0977
 8075W        W23884   8.571  11.460  12.471 -0.2314  0.0042  0.3306
 8076W        W23885   9.023   6.509  14.696  0.1313  0.1918  0.0566
 8077W        W23886   4.629   4.729   4.285 -0.1410  0.0211 -0.2526
 8078W        W23887   7.409   9.877  13.207  0.0021  0.1513 -0.0996
 8079W        W23888  16.355  11.241   0.725 -0.2134 -0.1263 -0.0552
 8080W        W23889   4.086   4.098  10.513 -0.1500  0.0712  0.2002
 8081W        W23890   2.950  13.512  14.996  0.1960  0.4020  0.1829
 8082W        W23891  15.393  11.126   1.758  0.0247 -0.0585 -0.2128
 8083W        W23892   7.678   5.727   1.126 -0.0245  0.0616  0.2099
 8084W        W23893   1.100   5.372  11.805  0.1016  0.0823  0.1366
 8085W        W23894  10.986  12.787   2.448 -0.2496  0.2697  0.1007
 8086W        W23895   1.910  13.490   2.288  0.0558 -0.2528  0.1666
 8087W        W23896  13.789  13.060   0.787 -0.1083  0.1667  0.2514
 8088W        W23897   0.740   8.205   4.060  0.1983 -0.1353  0.2880
 8089W        W23898  13.934   4.957  15.409 -0.0733  0.2233  0.1033
 8090W        W23899   9.817   3.932  11.833 -0.2485 -0.2117  0.1275
 8091W        W23900   3.845  17.477   2.149 -0.0328 -0.1424 -0.2161
 8092W        W23901  16.136   9.678   1.537  0.0482  0.0250 -0.1210
 8093W        W23902  17.943  10.270  11.538 -0.2337 -0.0697 -0.0912
 8094W        W23903  15.799  15.555  10.806 -0.2772 -0.0390 -0.1906
 8095W        W23904   3.182  18.403  14.212  0.0630  0.2946 -0.2105
 8096W        W23905   4.809   1.923   2.374  0.0609  0.3970  0.3956
 8097W        W23906   3.866  10.500   0.893 -0.1760  0.3989  0.1917
 8098W        W23907   9.731  12.631   3.961  0.0389 -0.0086  0.2019
 8099W        W23908   3.032  15.145   3.868  0.4979 -0.3101 -0.0508
 8100W        W23909  14.729   6.554  13.725  0.2712  0.1450  0.1308
 8101W        W23910   2.580  16.016   5.033  0.1649 -0.3037 -0.1977
 8102W        W23911  14.546   0.830  13.219 -0.2849  0.1185 -0.0707
 8103W        W23912  11.233   3.113   1.763 -0.4069 -0.1799  0.1932
 8104W        W23913  11.429   3.181   5.564  0.1433  0.1873 -0.0453
 8105W        W23914  16.429   9.330  11.793 -0.0459 -0.0719  0.2798
 8106W        W23915  17.163   8.139   2.566 -0.0844  0.0479  0.1873
 8107W        W23916  16.734  11.146   4.163 -0.1971  0.0405  0.2629
 8108W        W23917   7.058  14.445  13.488  0.0307 -0.1617  0.1149
 8109W        W23918   6.443   3.063  13.385 -0.0665 -0.4172 -0.1813
 8110W        W23919   3.074  11.091   3.498  0.1812 -0.0279 -0.0372
 8111W        W23920  10.766   7.059   0.985  0.2879  0.0026  0.0073
 8112W        W23921  16.798  13.043  12.832  0.2915 -0.0102 -0.0605
 8113W        W23922   2.982   0.715  13.042  0.3755  0.0153  0.0042
 8114W        W23923  11.590   4.171  13.281  0.1024 -0.2416  0.0140
 8115W        W23924   0.304  15.306   1.971 -0.2656 -0.3112  0.0142
 8116W        W23925   2.608  10.224   0.893  0.0736  0.1532 -0.3213
 8117W        W23926  18.192   6.480   1.013  0.3624  0.2233 -0.1508
 8118W        W23927  11.413   2.269   4.728 -0.0619 -0.1244 -0.2155
 8119W        W23928  10.298   1.409  13.495  0.2701 -0.1336 -0.1672
 8120W        W23929  10.545  14.764  13.003 -0.0414  0.0875 -0.3996
 8121W        W23930   4.243   4.045   5.195  0.2422  0.1972  0.0007
 8122W        W23931  18.182   9.331  10.488 -0.2641 -0.0876  0.1807
 8123W        W23932  12.727  15.164  15.613 -0.1177 -0.1299 -0.0666
 8124W        W23933   5.726  10.681  11.315 -0.5003  0.0266  0.2238
 8125W        W23934  11.595  10.644   1.316  0.1198 -0.1983  0.1930
 8126W        W23935  13.331  13.974   5.841  0.0319 -0.0090  0.1494
 8127W        W23936   9.219   7.727  10.630 -0.3308  0.1379  0.2531
 8128W        W23937  12.756  10.495   2.334  0.0876 -0.1068  0.1693
 8129W        W23938   7.469   0.017   3.947 -0.0876 -0.0329 -0.0801
 8130W        W23939   0.039   4.993   3.132 -0.0716  0.1418  0.3726
 8131W        W23940   5.373   1.758   2.783  0.0359 -0.0792 -0.3024
 8132W        W23941  14.239   1.233   0.597  0.1168 -0.1799 -0.1585
 8133W        W23942   0.316   6.963   1.635  0.0331  0.0114 -0.2802
 8134W        W23943   2.557   6.606   3.200  0.1210 -0.1170  0.2949
 8135W        W23944  18.025  11.254   3.229  0.3003 -0.2459 -0.0765
 8136W        W23945   0.609   0.076   2.419  0.0727 -0.2407 -0.2106
 8137W        W23946   2.018   9.295   1.022  0.1476  0.0226 -0.0008
 8138W        W23947  10.004   2.377  10.656 -0.2721  0.0639 -0.1469
 8139W        W23948  10.185   1.044  12.727 -0.0176 -0.1606  0.0841
 8140W        W23949  13.480   7.411   3.636  0.2053 -0.1813 -0.2439
 8141W        W23950   5.937   8.087  12.962 -0.1787  0.2571 -0.2667
 8142W        W23951   2.618   2.202  11.934  0.2722  0.0448 -0.3084
 8143W        W23952   6.424  18.421   3.537  0.2897  0.1087 -0.1655
 8144W        W23953  12.446   3.914   1.445  0.1181 -0.1465 -0.0936
 8145W        W23954   4.791   4.155   9.529  0.0560 -0.2006 -0.0885
 8146W        W23955  13.300   1.992   4.737 -0.0165  0.0740 -0.1781
 8147W        W23956  11.777   2.270   0.847 -0.0517  0.0843  0.2325
 8148W        W23957  12.858  12.860   0.778  0.1585  0.1355 -0.1032
 8149W        W23958  18.547   6.013  14.332  0.1119  0.0883 -0.3179
 8150W        W23959  15.500   7.220  12.588  0.1819 -0.2209 -0.1428
 8151W        W23960   8.626  10.771   4.307  0.1071 -0.0342  0.1612
 8152W        W23961   1.468   7.786   4.477 -0.1346  0.1185  0.2485
 8153W        W23962  14.508  14.670   4.678 -0.0519  0.0676  0.1112
 8154W        W23963   8.009   1.857   2.514  0.0028  0.1958 -0.1684
 8155W        W23964   1.716   5.298  12.201 -0.4401 -0.0524 -0.1183
 8156W        W23965  16.136  12.635  15.531  0.2349  0.1186  0.2364
 8157W        W23966   8.038   3.130  12.397 -0.1038 -0.2010 -0.0773
 8158W        W23967   6.075   4.366   4.694 -0.1882 -0.6109  0.2203
 8159W        W23968   6.876   7.203  12.919  0.2430  0.1526 -0.1341
 8160W        W23969   2.622  11.561   3.498 -0.1305 -0.1895 -0.2404
 8161W        W23970   2.772   6.577   4.312 -0.0936 -0.0485  0.1084
 8162W        W23971  17.146   3.285   3.249 -0.0592  0.2990 -0.0097
 8163W        W23972  17.998  15.669  12.583  0.3405 -0.1160 -0.1085
 8164W        W23973   5.773   2.671  11.566  0.1906 -0.1155  0.0840
 8165W        W23974   6.135  13.851   4.372  0.2623  0.1185  0.1210
 8166W        W23975  17.663  18.241  12.426 -0.1608 -0.4605  0.0425
 8167W        W23976   0.465  16.464   3.393  0.0161  0.0457 -0.0536
 8168W        W23977  10.707   6.757   3.083  0.1218  0.5332 -0.1936
 8169W        W23978  16.094  16.579  13.869 -0.2967 -0.0626 -0.2277
 8170W        W23979  14.937  15.397   0.773 -0.1530  0.1163  0.0081
 8171W        W23980   1.372  16.029   1.398 -0.0588  0.0204 -0.2777
 8172W        W23981   7.130  15.260   5.762  0.0118 -0.0370  0.0476
 8173W        W23982  10.957   7.160   3.241  0.4228  0.0364  0.1977
 8174W        W23983  12.409  12.813   4.806 -0.2771  0.4198  0.2143
 8175W        W23984   1.157   8.573   2.427  0.0838 -0.1257 -0.0173
 8176W        W23985   5.946   8.300   2.817  0.0156  0.1414  0.4760
 8177W        W23986   5.942  18.096  11.351 -0.0657  0.2050 -0.0509
 8178W        W23987  15.123  17.582  13.088  0.1505  0.3190 -0.1089
 8179W        W23988   3.669   0.410   5.454 -0.2370 -0.0199 -0.0831
 8180W        W23989   9.244  17.041  13.722 -0.1545 -0.0399 -0.0434
 8181W        W23990  17.124   2.543   1.992 -0.2074 -0.0578  0.1330
 8182W        W23991   9.188  17.668   4.084  0.0156  0.2744 -0.2783
 8183W        W23992   5.750  10.083  14.729 -0.0830 -0.2099  0.1299
 8184W        W23993  11.876  10.453   0.974  0.3320  0.3065  0.1412
 8185W        W23994   8.686  12.903   0.456 -0.0463 -0.0919 -0.0132
 8186W        W23995   2.549   7.368  11.438 -0.0251 -0.2969  0.3857
 8187W        W23996  15.057   9.811  14.943  0.0142 -0.2136  0.0662
 8188W        W23997   4.166   0.447  10.848 -0.3245 -0.0846  0.3634
 8189W        W23998  14.877  16.088   0.007  0.2011 -0.3480 -0.2322
 8190W        W23999  18.243  15.709  14.758 -0.0305  0.2161  0.0031
 8191W        W24000   6.335   6.675   0.332 -0.0038 -0.1691 -0.2031
 8192W        W24001  17.998  18.068  10.461  0.0805  0.1223  0.0991
 8193W        W24002   5.641  12.746  10.725  0.1516 -0.0224  0.1581
 8194W        W24003  18.670  14.773  14.030  0.0894  0.2667  0.0169
 8195W        W24004  10.601   0.183  13.594 -0.2149 -0.2245 -0.0001
 8196W        W24005  15.590   2.582   4.634 -0.0819  0.2394 -0.1509
 8197W        W24006  16.261   9.089  10.449  0.0999 -0.1828 -0.0834
 8198W        W24007  17.150   0.789   4.718 -0.1380  0.3962 -0.1523
 8199W        W24008  16.303   8.038  12.710  0.1908 -0.2356 -0.1362
 8200W        W24009   6.307  16.122   4.007  0.0949  0.2146  0.0036
 8201W        W24010  11.272   4.508   4.179  0.1992  0.0385  0.0672
 8202W        W24011   2.193  12.991  11.112 -0.1933  0.2528  0.3707
 8203W        W24012   4.340   1.204   2.398 -0.2706 -0.0541 -0.1476
 8204W        W24013   3.861   4.902   2.776 -0.0278  0.1390 -0.2755
 8205W        W24014   6.334  18.647  14.257  0.0731  0.0105 -0.3990
 8206W        W24015   1.514   0.504  12.280 -0.0260 -0.3685  0.1242
 8207W        W24016  10.130  13.850  12.436 -0.2796  0.0665 -0.0299
 8208W        W24017  11.174  12.947   4.204  0.1200 -0.0278  0.3895
 8209W        W24018   6.319   8.204   2.463 -0.0747 -0.0275  0.0099
 8210W        W24019  16.465  10.655  11.010  0.1950  0.2907  0.0286
 8211W        W24020   4.604  15.566  14.610  0.0820  0.0772  0.1280
 8212W        W24021   2.564   4.518   3.558  0.0349 -0.2081 -0.2076
 8213W        W24022   9.564   5.894   1.371 -0.1564 -0.0204  0.0623
 8214W        W24023   1.432  11.709   1.835  0.2626  0.3193 -0.0499
 8215W        W24024  18.589  17.430   4.975 -0.1703 -0.2110 -0.0217
 8216W        W24025  17.681   1.338  11.672 -0.0848 -0.4358 -0.1903
 8217W        W24026   0.278  13.272   0.538  0.0042  0.0488  0.5505
 8218W        W24027  13.651   0.260   3.698 -0.3868 -0.1088  0.0692
 8219W        W24028   5.705  17.258   1.570 -0.0158  0.3554  0.0281
 8220W        W24029   3.951  14.643   2.280  0.0537  0.4228 -0.3533
 8221W        W24030   0.125  17.893  12.964 -0.2367 -0.0257 -0.0180
 8222W        W24031   6.700  18.264   4.723  0.1236 -0.3155  0.0725
 8223W        W24032   8.491   2.990   2.798  0.0329 -0.0362 -0.1741
 8224W        W24033   1.462  11.493  12.815 -0.2022 -0.1282  0.0066
 8225W        W24034  13.234   7.633   0.646  0.0294  0.1432  0.1062
 8226W        W24035   8.186  18.325   2.718 -0.1867 -0.2289 -0.1681
 8227W        W24036   0.478  12.716  14.574 -0.3116 -0.0536 -0.1196
 8228W        W24037  14.630  12.952   2.666 -0.1462  0.0073  0.0014
 8229W        W24038  12.193   8.646   1.546 -0.1235  0.2374 -0.1018
 8230W        W24039   2.584  10.567   0.303 -0.0655  0.1753  0.1242
 8231W        W24040   4.687   1.437  13.281  0.0925  0.0197  0.1098
 8232W        W24041  13.656  16.253  11.593  0.2408 -0.0333 -0.0893
 8233W        W24042  15.372   2.128   4.592  0.2341 -0.2569  0.1882
 8234W        W24043  17.364  18.606  15.522 -0.1644 -0.0796 -0.1687
 8235W        W24044   5.303  11.903  10.407  0.2473 -0.1051 -0.2198
 8236W        W24045   5.132   6.937   4.733  0.0082  0.0125 -0.4834
 8237W        W24046   6.090   6.102  11.761 -0.1119  0.1914 -0.3342
 8238W        W24047  15.549  17.360  13.218  0.0667  0.3283  0.1753
 8239W        W24048   0.364  17.159   2.078  0.0847  0.1904  0.2803
 8240W        W24049   3.395   6.168  15.444  0.0975  0.1401 -0.0087
 8241W        W24050  17.611  11.964  14.755 -0.1153  0.1704  0.1545
 8242W        W24051   8.746   3.742  12.745  0.1902 -0.0167  0.1723
 8243W        W24052  11.524  12.693   0.361  0.2116  0.0776 -0.3352
 8244W        W24053   7.916   9.370  14.369 -0.0641  0.2956  0.0200
 8245W        W24054   4.584  16.087   4.488  0.0534 -0.1868  0.1817
 8246W        W24055  15.025   9.667  12.094  0.0422 -0.1671  0.0576
 8247W        W24056   8.982   0.735  14.492  0.0149  0.0255 -0.1054
 8248W        W24057   8.749   3.098   4.504  0.2486 -0.0889 -0.2545
 8249W        W24058  18.060  15.008   3.748 -0.2513  0.0345 -0.1219
 8250W        W24059   4.665   7.818  11.522 -0.0383  0.1739  0.0980
 8251W        W24060   1.117   1.087   5.577  0.0974 -0.0144 -0.1327
 8252W        W24061  15.898  13.063  14.335  0.2097 -0.1585  0.1907
 8253W        W24062   6.495   9.841  11.032  0.1198  0.3254 -0.2423
 8254W        W24063  17.454   6.536   2.969  0.0014 -0.2239  0.3261
 8255W        W24064  17.247   4.671   1.786 -0.2709 -0.2903  0.3043
 8256W        W24065   1.240  13.717   1.102 -0.0015  0.2565  0.0789
 8257W        W24066   3.937  17.366  15.230 -0.2232 -0.0353  0.0225
 8258W        W24067  13.358   9.986  10.793  0.0630  0.0678  0.1463
 8259W        W24068   8.257  13.262   0.683  0.1894 -0.4414 -0.0797
 8260W        W24069  13.696  17.493   0.517  0.2707 -0.0592 -0.2261
 8261W        W24070  10.784  12.484  13.899  0.0405 -0.3029 -0.0407
 8262W        W24071  10.820   3.307  15.411  0.1780  0.1656 -0.0162
 8263W        W24072  10.950   9.910   1.350 -0.2405  0.1492  0.0280
 8264W        W24073  10.954   1.853   0.973  0.3433  0.3951  0.1537
 8265W        W24074   6.297  14.582   4.892 -0.0863 -0.0591  0.0926
 8266W        W24075   6.111   4.092   3.800  0.1324 -0.1788  0.2700
 8267W        W24076  10.148  16.971  11.400  0.1099  0.1828  0.0844
 8268W        W24077   6.810   8.874  12.386  0.1224 -0.2059 -0.0416
 8269W        W24078   0.299   8.525   5.337  0.0461 -0.3579 -0.1752
 8270W        W24079   0.864   8.076  13.717 -0.0286 -0.1302 -0.2708
 8271W        W24080  18.545   6.836   0.294  0.0171  0.0042  0.0908
 8272W        W24081  16.779  13.539  11.487  0.0260  0.1422 -0.0752
 8273W        W24082   1.378  15.880   0.883 -0.1574  0.0533  0.1726
 8274W        W24083   2.430  12.752   4.466  0.2990  0.0626  0.2268
 8275W        W24084   2.526  15.377   4.472 -0.0668 -0.0117 -0.0337
 8276W        W24085  13.346   8.640   5.321 -0.0757 -0.1437 -0.0490
 8277W        W24086   1.932   9.532   1.561  0.2165 -0.0888  0.2431
 8278W        W24087  15.103  13.304   4.143 -0.0897  0.0599 -0.1686
 8279W        W24088   6.126  14.886  12.220 -0.0901  0.2617  0.0891
 8280W        W24089   1.116  10.910  10.347  0.0965  0.0200  0.1251
 8281W        W24090   4.863   0.710  13.914  0.1550  0.2726 -0.1291
 8282W        W24091  10.648  13.747  14.276  0.1931 -0.1082  0.0937
 8283W        W24092  16.328   7.233   3.230 -0.2781  0.2380  0.0043
 8284W        W24093  13.508   5.138   1.742  0.0690 -0.1020  0.0534
 8285W        W24094   5.495  15.942  11.734  0.2623  0.2357 -0.0574
 8286W        W24095   7.385  10.765  12.762  0.4240  0.1487  0.1359
 8287W        W24096  11.042  15.337  10.442 -0.0229  0.0357 -0.2015
 8288W        W24097  15.798  17.540  14.989 -0.0858  0.1149  0.0196
 8289W        W24098   5.402   3.907  11.279 -0.0653 -0.1054  0.0286
 8290W        W24099   5.663   5.200   0.511  0.0044 -0.0296 -0.2810
 8291W        W24100   9.854   8.953  15.116  0.0305 -0.0415 -0.0707
 8292W        W24101   5.457   6.473  12.436 -0.1165  0.2696 -0.1207
 8293W        W24102  15.905   4.161  11.553 -0.1648 -0.1769 -0.0965
 8294W        W24103  14.586   0.411   3.694 -0.0537  0.2763 -0.0639
 8295W        W24104   0.178  16.008   3.487  0.1696 -0.0034 -0.0390
 8296W        W24105   2.379   1.202  10.404 -0.0823  0.0184  0.2757
 8297W        W24106   4.126  13.339  13.166  0.3823  0.2490  0.0760
 8298W        W24107  17.785  14.260  14.509 -0.0452 -0.0736  0.1879
 8299W        W24108  10.188   5.947   3.435 -0.0427  0.0251 -0.1320
 8300W        W24109  11.387   5.528   1.320 -0.3366  0.3098 -0.0211
 8301W        W24110  14.347   1.352   2.721  0.1301 -0.2001  0.0928
 8302W        W24111   2.567  18.329  14.942 -0.2056  0.0498  0.0374
 8303W        W24112   6.414   7.340  14.073  0.1010  0.1259  0.1892
 8304W        W24113   6.181  17.777   0.857  0.0255  0.1579 -0.1210
 8305W        W24114   4.093  13.627  14.500  0.1081 -0.0305 -0.0571
 8306W        W24115  17.797   8.271  11.913  0.2565  0.0359  0.0783
 8307W        W24116   9.517  10.792   2.094  0.2153  0.1406 -0.2944
 8308W        W24117   7.830   4.298   5.057  0.1510 -0.0973  0.3750
 8309W        W24118   7.598   1.781   4.094  0.2583  0.1130  0.0121
 8310W        W24119  15.251  14.611   0.248  0.1795  0.1271 -0.2546
 8311W        W24120  11.376  10.678   4.106  0.2021  0.1821  0.1020
 8312W        W24121   0.334   3.619   1.636 -0.1101 -0.0498 -0.1670
 8313W        W24122  16.770  10.188   4.309 -0.0236 -0.2084  0.0934
 8314W        W24123   6.510  12.017  14.887  0.0186  0.2447 -0.0334
 8315W        W24124  16.634   9.006   0.069  0.1069 -0.0419 -0.3502
 8316W        W24125   9.088   2.293  11.717 -0.2315 -0.0938  0.2954
 8317W        W24126   9.269  12.692   1.664  0.0023 -0.0620  0.1915
 8318W        W24127   6.877  13.548   0.390  0.2247 -0.1776  0.0215
 8319W        W24128  13.108   0.972   4.866 -0.0306  0.1469  0.0607
 8320W        W24129   3.061  14.834   1.549  0.0060  0.0161  0.2239
 8321W        W24130   9.802  18.630   0.773  0.0503 -0.3443  0.0288
 8322W        W24131  11.045  11.216  11.186 -0.1054  0.1553 -0.0286
 8323W        W24132   1.891  13.802   3.919 -0.0563  0.1134  0.0577
 8324W        W24133   7.848   7.158   2.140 -0.0077  0.0515 -0.0252
 8325W        W24134  11.516  13.041   3.734  0.1665 -0.2031 -0.3223
 8326W        W24135  17.179   8.329   4.280  0.2447  0.3831  0.0667
 8327W        W24136   3.541   1.972   1.578 -0.0976  0.1423  0.0201
 8328W        W24137   1.698   4.493   1.595  0.3060 -0.3593  0.0927
 8329W        W24138  11.770  17.134  15.201 -0.4037  0.0176 -0.0653
 8330W        W24139   0.478   0.130  14.571  0.0383 -0.1612  0.0485
 8331W        W24140   5.687   4.323  14.119 -0.2852  0.1772  0.1225
 8332W        W24141  13.467  18.361   4.406 -0.2561  0.0695 -0.1311
 8333W        W24142   8.701  10.946   0.903  0.1424  0.2106  0.2852
 8334W        W24143  10.210   9.574  15.520 -0.0221  0.1685 -0.0221
 8335W        W24144   1.338   1.002   3.666 -0.2020 -0.0554  0.0243
 8336W        W24145  15.915   9.701   2.454  0.1283 -0.1064 -0.0421
 8337W        W24146  11.127  15.703   5.341  0.0015 -0.0537  0.1718
 8338W        W24147   4.654   7.163   1.407 -0.0659  0.0949  0.1129
 8339W        W24148  17.068   1.287   1.565 -0.2458  0.0917 -0.1076
 8340W        W24149   5.839  13.606   4.656 -0.0953  0.0394  0.4917
 8341W        W24150  14.885  16.738   0.340  0.2254  0.3268 -0.1241
 8342W        W24151  17.818  12.066   2.121  0.1594  0.1608  0.0125
 8343W        W24152  17.150  12.270  13.455  0.0654  0.0671 -0.0265
 8344W        W24153   0.911  11.398  10.429  0.0112  0.0352  0.1843
 8345W        W24154  15.929   9.249  12.231 -0.2374 -0.0113 -0.0392
 8346W        W24155   4.682   1.864  12.993  0.0166 -0.1834 -0.1200
 8347W        W24156   9.965  17.065  13.130 -0.2250  0.3781  0.0125
 8348W        W24157   9.222   0.325   4.912  0.0871 -0.4472  0.0155
 8349W        W24158  11.770  11.019   1.617  0.2816  0.1335 -0.1546
 8350W        W24159  13.648  15.160  12.151 -0.2026 -0.0815  0.1274
 8351W        W24160  18.093  16.839  10.935  0.1420 -0.2235 -0.0032
 8352W        W24161  10.591  16.701  11.400 -0.0467  0.0114 -0.1957
 8353W        W24162  15.301  10.492   2.029  0.2685  0.1170 -0.1020
 8354W        W24163   0.324   6.862   3.399 -0.2423 -0.1675  0.1224
 8355W        W24164   7.609  11.708   4.025 -0.0436  0.1606  0.4116
 8356W        W24165  17.744  17.299   3.988  0.0398  0.2883 -0.2166
 8357W        W24166  11.807   8.209  11.504  0.1254  0.3581 -0.1794
 8358W        W24167   2.909  17.573  11.353  0.2392 -0.4037 -0.0225
 8359W        W24168   0.619   2.529  11.558  0.0034  0.1827 -0.3112
 8360W        W24169  17.247  16.887  13.392 -0.1134 -0.0867  0.1355
 8361W        W24170  13.888  14.828   2.743 -0.1716  0.2983  0.0324
 8362W        W24171   3.477   1.860  13.112 -0.3835  0.1845 -0.0071
 8363W        W24172  18.519   8.263   3.149 -0.0125 -0.1228  0.1314
 8364W        W24173  16.503   7.331   0.507 -0.1494 -0.3351  0.1249
 8365W        W24174   3.416   4.168  13.064 -0.0939 -0.1040  0.0667
 8366W        W24175  12.875   9.199   3.650 -0.2712 -0.0772  0.0739
 8367W        W24176   6.150  16.191   2.999 -0.2689 -0.1176  0.4103
 8368W        W24177  13.981  11.411  14.771 -0.0805 -0.0241  0.1023
 8369W        W24178  16.986  15.003  11.888  0.4435 -0.0066  0.2144
 8370W        W24179  15.651   1.372   2.058  0.1702 -0.1431  0.3071
 8371W        W24180  11.445   2.216   5.194  0.4739 -0.3825  0.2615
 8372W        W24181   1.625   8.428  10.702  0.2801  0.2012  0.1182
 8373W        W24182   0.554   3.471   0.106 -0.2191 -0.0073 -0.1230
 8374W        W24183  16.856  17.172   3.743  0.0792  0.2994 -0.1436
 8375W        W24184  16.885  10.512  13.352  0.3263 -0.0126 -0.0892
 8376W        W24185   2.509  11.916   3.859  0.0611 -0.1160 -0.1573
 8377W        W24186  14.787   7.594  12.539  0.2051 -0.0557 -0.0101
 8378W        W24187   4.752  16.519  12.534 -0.1107 -0.2366  0.4320
 8379W        W24188  17.391  12.868   1.259  0.3042  0.1015  0.1234
 8380W        W24189  17.154   6.857   3.856 -0.0286 -0.0625 -0.1729
 8381W        W24190   0.813  17.279  10.369  0.0827  0.0118  0.1070
 8382W        W24191  15.396  17.954   0.047 -0.1624 -0.2278  0.1882
 8383W        W24192   8.053  10.568   4.359 -0.4052  0.1565  0.0029
 8384W        W24193  13.629  14.377   2.057 -0.2194  0.0119 -0.0077
 8385W        W24194   7.475  15.252   4.480  0.2229  0.0675 -0.0357
 8386W        W24195  17.210   3.777  12.250  0.2466 -0.1467 -0.4711
 8387W        W24196   9.465   6.723  11.683 -0.0306 -0.3593  0.1483
 8388W        W24197  15.396  15.981   0.254  0.2137  0.1710  0.3747
 8389W        W24198  14.885   1.027   1.799 -0.4298  0.0153  0.0513
 8390W        W24199   5.002  17.320   2.200  0.1661 -0.0756  0.0925
 8391W        W24200  11.574  17.598  12.887  0.0998 -0.1749  0.0662
 8392W        W24201  15.365  12.377  11.274 -0.2736 -0.1511 -0.0879
 8393W        W24202  12.427   1.389   2.867 -0.2060  0.1572  0.3100
 8394W        W24203  16.110  15.657   2.657  0.1031 -0.1057  0.0158
 8395W        W24204  16.599   5.151  11.870  0.1575 -0.1848 -0.0633
 8396W        W24205   0.521   5.236  13.469 -0.3124 -0.0285 -0.0617
 8397W        W24206  12.799  12.671  14.073 -0.1010 -0.0084  0.2234
 8398W        W24207   0.627   8.761   4.999  0.1784 -0.0922  0.4287
 8399W        W24208   0.905   6.205   0.089  0.0116  0.2343  0.0762
 8400W        W24209   4.987  17.616  13.126  0.0031  0.0424  0.2351
 8401W        W24210  13.583  13.548  15.100  0.0368 -0.1267  0.0789
 8402W        W24211  15.372   7.049   1.392 -0.0456 -0.0076 -0.0769
 8403W        W24212   7.674  11.826   2.885 -0.0228  0.4640  0.0013
 8404W        W24213   3.821   4.028  13.387  0.1562 -0.1114 -0.1646
 8405W        W24214   0.061   6.467   0.691  0.5477 -0.0857  0.0154
 8406W        W24215   4.806  10.091   2.326 -0.2184  0.1184  0.2344
 8407W        W24216   1.872  13.940  12.490  0.1421 -0.5058 -0.0139
 8408W        W24217   1.761   2.552  11.840  0.0994 -0.0166  0.0174
 8409W        W24218   0.295   3.967   3.857 -0.1742  0.3006  0.1156
 8410W        W24219   5.632   3.193  14.991 -0.0648  0.2454 -0.2817
 8411W        W24220  15.203  10.455  14.118 -0.2674  0.0971  0.1206
 8412W        W24221   4.040   6.227   3.757  0.0221 -0.1109 -0.0789
 8413W        W24222   7.153   3.434  12.872 -0.0333  0.0756 -0.1133
 8414W        W24223  18.160   3.302  13.249 -0.0266 -0.0454 -0.2498
 8415W        W24224   2.823   4.497  13.304 -0.3217 -0.1184  0.0333
 8416W        W24225   4.547   3.753   3.962  0.0880  0.3279 -0.1174
 8417W        W24226  17.524   1.110   2.934 -0.0552 -0.0832  0.3101
 8418W        W24227  11.895  11.072  15.436 -0.2618 -0.1403 -0.3168
 8419W        W24228   1.782  11.311   1.000 -0.3424 -0.4492 -0.1026
 8420W        W24229   0.438  16.656   2.402  0.0869  0.1271  0.2617
 8421W        W24230   3.679   7.606  15.573  0.1095 -0.1881  0.2337
 8422W        W24231  18.545   1.882  13.663  0.1472 -0.0577 -0.1597
 8423W        W24232   2.542  10.341   1.775  0.1485  0.2017 -0.1791
 8424W        W24233   6.404  16.718   1.192 -0.1576  0.1216 -0.0005
 8425W        W24234   4.912  11.122  12.553  0.1291 -0.2354 -0.1526
 8426W        W24235   7.628  16.950  13.582 -0.1853 -0.0914  0.1436
 8427W        W24236  18.114  18.507  10.824 -0.1638  0.1344  0.3940
 8428W        W24237  16.356   8.154   3.738 -0.0625 -0.0146 -0.0417
 8429W        W24238   7.508  15.841   3.739 -0.1899 -0.1823 -0.1408
 8430W        W24239  12.050  17.833   5.985  0.0510 -0.1279  0.1837
 8431W        W24240  10.881  17.273   3.100  0.1230 -0.0407  0.3072
 8432W        W24241   4.719   0.339   0.142 -0.4154  0.0194  0.0379
 8433W        W24242  17.818   3.067  11.765 -0.1448 -0.2791  0.1030
 8434W        W24243   2.359   2.122  15.518  0.0823  0.2022  0.2940
 8435W        W24244  11.102   9.470   4.492  0.3960  0.1822 -0.0859
 8436W        W24245   3.466  18.488   3.911  0.0419  0.0692 -0.0428
 8437W        W24246  15.172  17.511  13.969  0.1456 -0.0612  0.1400
 8438W        W24247   4.490  17.981   4.546 -0.0694 -0.0682 -0.0804
 8439W        W24248  13.609   9.987   1.733 -0.1825 -0.0466 -0.0122
 8440W        W24249   2.090   2.870  11.637  0.0973 -0.2404  0.0591
 8441W        W24250   0.127   0.255   1.545 -0.1340  0.0459  0.0372
 8442W        W24251   6.837   1.192  12.063  0.1403  0.1463 -0.2333
 8443W        W24252  15.045   7.783  10.896 -0.0357 -0.1468 -0.1457
 8444W        W24253  15.387   8.223   2.126  0.1437 -0.1882 -0.3241
 8445W        W24254  14.595   4.225  10.655 -0.0152  0.0893 -0.0347
 8446W        W24255  13.734   7.710   0.795 -0.4758 -0.2140 -0.2837
 8447W        W24256  15.530  17.073  14.055  0.0690  0.0368 -0.0330
 8448W        W24257  11.753   6.809  14.116  0.3492  0.2058  0.1665
 8449W        W24258   0.270  12.473  10.838 -0.2468 -0.1586 -0.0824
 8450W        W24259   8.421   0.144  10.026 -0.0265 -0.2518  0.0216
 8451W        W24260  11.547   0.293   1.512 -0.2289  0.0553 -0.1015
 8452W        W24261   0.715  13.949   1.015  0.0890 -0.0265 -0.3008
 8453W        W24262  16.263   9.283   0.398  0.2409  0.3328  0.0688
 8454W        W24263   9.620  16.431  14.502 -0.1550  0.0857 -0.5135
 8455W        W24264  16.079  13.951   0.388  0.0777 -0.3126  0.0552
 8456W        W24265   2.083  13.787  13.064  0.1261  0.1931  0.1358
 8457W        W24266  14.400   0.463  12.764 -0.2967 -0.1100 -0.2055
 8458W        W24267   4.563  10.571   4.118  0.2041  0.0308 -0.1887
 8459W        W24268  10.636  17.949   5.405 -0.4723 -0.2890  0.0326
 8460W        W24269  10.530   7.202   5.945 -0.1173 -0.0789  0.2056
 8461W        W24270  14.981  11.956  11.305  0.0259  0.1490  0.4281
 8462W        W24271  11.512   8.724   1.125 -0.0662 -0.1933 -0.0119
 8463W        W24272   8.834   0.610  13.234 -0.1573 -0.0015 -0.2543
 8464W        W24273  13.845  11.278  11.683  0.0578 -0.1782  0.1770
 8465W        W24274   5.055  11.224  11.644  0.2536  0.0896 -0.2365
 8466W        W24275   3.407  17.246  15.111  0.0567  0.0215 -0.0455
 8467W        W24276  16.187   2.726  12.998 -0.0514 -0.0117 -0.1953
 8468W        W24277   3.419  17.075   2.957 -0.0335 -0.3099  0.0016
 8469W        W24278  10.270   7.777   4.162 -0.1950  0.2264 -0.1656
 8470W        W24279   6.138   2.438   3.103  0.1325 -0.1395 -0.1168
 8471W        W24280   8.758   5.912  15.221 -0.0476  0.3372 -0.1417
 8472W        W24281   3.394   6.701   0.838  0.2405  0.2541  0.0511
 8473W        W24282  11.070  14.738   3.889 -0.2646 -0.2259  0.3093
 8474W        W24283  18.102  10.317   5.486 -0.2909  0.0589  0.0114
 8475W        W24284  10.575  14.955   1.256  0.2033  0.0059 -0.2474
 8476W        W24285  16.889  14.529   4.546  0.1629 -0.5722 -0.3851
 8477W        W24286  17.712   1.469   2.450  0.0593 -0.0316 -0.0684
 8478W        W24287   0.146  12.448  13.606 -0.2119  0.0931 -0.0544
 8479W        W24288   7.423  18.184   1.888  0.1413 -0.0543  0.2704
 8480W        W24289   5.460  16.622  10.633  0.2981 -0.1409 -0.2034
 8481W        W24290  17.586   2.396  10.988  0.1562 -0.2078 -0.0041
 8482W        W24291  12.043  13.014   3.905  0.2139 -0.2469  0.1540
 8483W        W24292  18.200   7.144  12.569 -0.0337 -0.0782 -0.0585
 8484W        W24293  11.697  16.141   1.586 -0.0242 -0.0416 -0.3122
 8485W        W24294  15.856  17.623   5.396  0.0277 -0.5766  0.1011
 8486W        W24295   4.592   1.419  11.372  0.2245  0.1616  0.1023
 8487W        W24296   1.305   4.607   1.212 -0.0776  0.1945  0.2789
 8488W        W24297  15.010  11.322   1.559  0.2828 -0.1227  0.0494
 8489W        W24298   1.712   2.603  12.317  0.2964  0.1119  0.0837
 8490W        W24299  11.396   0.507  12.613  0.0966 -0.0491  0.2998
 8491W        W24300   5.486  15.417  13.436 -0.0535  0.0726 -0.1112
 8492W        W24301  15.998  10.720  14.329  0.0824 -0.1781  0.2556
 8493W        W24302   2.582  10.107   2.673  0.1439 -0.0673  0.1774
 8494W        W24303   8.077   4.736  12.539 -0.0355 -0.0653 -0.2569
 8495W        W24304  16.017  17.800   3.757  0.1676  0.3006  0.1038
 8496W        W24305   7.121  12.766   4.880  0.0640  0.0054 -0.0322
 8497W        W24306   9.435   1.272   1.457  0.0049 -0.0795  0.1400
 8498W        W24307  12.976  14.973  12.679 -0.0532  0.3374  0.2464
 8499W        W24308   9.832  17.055  15.259  0.0771 -0.0446  0.0383
 8500W        W24309   3.076  12.968   1.698  0.2689  0.2228  0.1909
 8501W        W24310   6.729  17.123  13.967  0.1575  0.3089 -0.1660
 8502W        W24311  15.406  17.953  11.034 -0.3740 -0.1924  0.2230
 8503W        W24312  10.976   7.711   2.519  0.0599 -0.2407 -0.0412
 8504W        W24313   9.737   8.142   1.094 -0.1656  0.1449  0.0541
 8505W        W24314  14.152  17.950   1.042 -0.0570 -0.1742  0.0707
 8506W        W24315  10.160   2.526   3.001  0.0453  0.0049 -0.1582
 8507W        W24316  11.956   2.068  10.861 -0.2513  0.2219  0.2207
 8508W        W24317   6.668   9.622   3.674 -0.2119  0.1193 -0.2497
 8509W        W24318   8.009  14.558  11.034 -0.2828  0.0445 -0.3045
 8510W        W24319  17.892   1.068  15.044  0.3777 -0.1154  0.0092
 8511W        W24320  11.791   8.355  12.620 -0.1807 -0.0090 -0.1897
 8512W        W24321   0.639  12.450  10.455  0.0793  0.1769 -0.4139
 8513W        W24322   5.468  17.382   5.446 -0.0714  0.0250  0.1289
 8514W        W24323   9.922   0.730  13.194 -0.1474 -0.1336 -0.2165
 8515W        W24324  11.458   4.139   3.856  0.2993 -0.3358  0.1251
 8516W        W24325  10.246   7.881   1.012 -0.1166 -0.1276  0.2284
 8517W        W24326   5.593   8.499   1.673 -0.0219 -0.0496  0.0344
 8518W        W24327  12.946   5.634   0.070  0.2991  0.0057  0.3331
 8519W        W24328   3.696  16.918  11.782 -0.0834  0.1062  0.0554
 8520W        W24329  11.005   8.914   1.152  0.0142  0.1013 -0.1560
 8521W        W24330  11.508  13.425   2.426 -0.0400 -0.0288  0.0722
 8522W        W24331   4.101  15.894  13.996  0.3431  0.1313 -0.2149
 8523W        W24332   9.044  11.998  13.954 -0.1151 -0.0455  0.1825
 8524W        W24333   3.097   2.860  14.816  0.1088 -0.0010  0.1213
 8525W        W24334  18.299   7.825   2.827 -0.1374  0.2486  0.2736
 8526W        W24335   8.045   4.350  14.232 -0.0105  0.1182 -0.1814
 8527W        W24336   0.730  13.071   3.976  0.1727 -0.1599 -0.3148
 8528W        W24337   4.485   4.847  12.579  0.1116  0.0208  0.1931
 8529W        W24338   6.974  14.442  11.076 -0.0339 -0.2790  0.0516
 8530W        W24339   7.308   9.241   0.524  0.0406 -0.2696 -0.0619
 8531W        W24340  18.460  17.992  11.500 -0.0241 -0.0611  0.3175
 8532W        W24341   9.553   6.653   4.444  0.1224  0.1659  0.1455
 8533W        W24342  15.166  12.725   0.330  0.1899 -0.0959 -0.0093
 8534W        W24343   5.131  17.754   5.048  0.0808 -0.2707 -0.2089
 8535W        W24344  14.528   0.113   0.018  0.2846 -0.2960  0.1766
 8536W        W24345   6.105   1.114   0.602 -0.0137  0.0146  0.0419
 8537W        W24346  14.153   0.142   3.621  0.1437  0.0149 -0.0656
 8538W        W24347   8.112   0.558  13.179 -0.0854 -0.0264 -0.0974
 8539W        W24348  13.839  17.413  13.527  0.3920 -0.0565  0.0904
 8540W        W24349   2.192   0.730  11.282 -0.0180  0.3344  0.0611
 8541W        W24350  11.904  15.660   3.468  0.3003 -0.4228 -0.0167
 8542W        W24351   5.093   8.519  13.285  0.0768 -0.1762 -0.0370
 8543W        W24352   1.981   2.168  12.108 -0.0623 -0.3130 -0.0310
 8544W        W24353   6.073   7.580   0.238 -0.0702 -0.0729 -0.3202
 8545W        W24354   5.319   5.881  10.692 -0.1096  0.1582  0.0419
 8546W        W24355   9.592   3.144   4.455  0.0319  0.0086  0.2302
 8547W        W24356   8.074  11.690  12.749 -0.2667  0.2269  0.2089
 8548W        W24357   2.966  13.048   2.597 -0.1417  0.0577 -0.1200
 8549W        W24358  16.932  13.922  11.178  0.2860  0.0496  0.1175
 8550W        W24359   5.249   5.243  14.719  0.1648  0.0488 -0.0968
 8551W        W24360  18.245  17.432   0.799  0.4885 -0.1060  0.2033
 8552W        W24361   0.691   0.764   5.105 -0.0309  0.0607  0.3939
 8553W        W24362   4.457  14.552  12.610 -0.2544  0.2401 -0.0502
 8554W        W24363  12.913  17.709  12.210 -0.1485  0.0615  0.2687
 8555W        W24364  15.113   1.884  14.829  0.2807 -0.3685  0.0669
 8556W        W24365   8.669  15.278   5.004 -0.2123  0.0199 -0.0329
 8557W        W24366   3.308  13.034  15.544  0.4785  0.0541  0.2622
 8558W        W24367  13.832  17.459  12.477  0.1155  0.2264 -0.3006
 8559W        W24368  12.938  12.851   4.749 -0.0004  0.2725  0.1547
 8560W        W24369   7.859   1.263  12.121  0.0487  0.0800 -0.0153
 8561W        W24370   5.860  17.643  15.234  0.0671 -0.3107 -0.1989
 8562W        W24371  17.006  15.460  11.736 -0.1272  0.1166 -0.1190
 8563W        W24372   4.881  13.831  11.721 -0.0328 -0.0587  0.2762
 8564W        W24373   1.639   5.210   1.653 -0.1279  0.2623 -0.1317
 8565W        W24374  11.106  10.975   1.216 -0.2786  0.2150  0.2520
 8566W        W24375   3.574  10.100   1.069  0.1639  0.2313 -0.0424
 8567W        W24376   0.861   8.784   2.775  0.0648 -0.4416 -0.1457
 8568W        W24377  16.439   2.040   1.532  0.0108  0.0776  0.0282
 8569W        W24378  17.627   7.686   0.948 -0.0124 -0.4726  0.0915
 8570W        W24379  13.200   3.022  13.722  0.0775  0.2481  0.0177
 8571W        W24380  17.458   9.989   2.321  0.0908 -0.2399  0.2482
 8572W        W24381  11.790  10.638  15.095 -0.1167 -0.0040  0.0148
 8573W        W24382   9.666  18.178   5.215  0.1660  0.2966  0.0124
 8574W        W24383   6.474   8.036  15.423  0.2055  0.1382 -0.0160
 8575W        W24384  12.765   1.459  13.063  0.2169 -0.4934  0.0292
 8576W        W24385  10.541   9.332   2.839  0.2088  0.1982  0.0245
 8577W        W24386  15.500   8.865  10.537  0.1372 -0.0870 -0.1379
 8578W        W24387  13.894  18.178  12.879 -0.0665  0.3136  0.3404
 8579W        W24388   0.340  11.607  10.725  0.0847  0.1593  0.0878
 8580W        W24389  10.868  15.421  13.001 -0.1315 -0.0458  0.0718
 8581W        W24390   0.729   3.664   1.282 -0.0014 -0.4258 -0.3510
 8582W        W24391  11.634   7.276  11.366  0.1914  0.1200  0.1049
 8583W        W24392  13.492  11.374  14.788  0.2870 -0.1358  0.0566
 8584W        W24393   5.817   2.441  14.760 -0.0645 -0.1943 -0.0340
 8585W        W24394   6.789  18.348  12.652 -0.0099 -0.0925 -0.2172
 8586W        W24395   8.611   0.493   6.371 -0.0068  0.0711 -0.0155
 8587W        W24396  16.779  17.374  14.154 -0.1276 -0.1681 -0.1254
 8588W        W24397  18.484   9.339  11.455  0.1897  0.1972  0.2013
 8589W        W24398   1.596  18.406  10.601  0.0979  0.0498  0.2948
 8590W        W24399  11.687   9.452  14.625  0.1220  0.0847  0.2330
 8591W        W24400  13.864  15.045  12.618  0.1183 -0.2377 -0.2502
 8592W        W24401  12.143   7.793   2.229 -0.4055 -0.0642  0.0517
 8593W        W24402   3.694  15.370   4.344 -0.3705 -0.1674 -0.1886
 8594W        W24403   8.215   4.209  14.788 -0.1253 -0.0216  0.2445
 8595W        W24404  15.796  13.297  14.841 -0.1297 -0.0179 -0.0649
 8596W        W24405   8.876   8.720   0.720 -0.1426 -0.1416 -0.2374
 8597W        W24406  15.477   0.613   3.592  0.3658 -0.1165 -0.0031
 8598W        W24407  15.483   4.439   1.296 -0.1695 -0.1199  0.1772
 8599W        W24408   7.832   7.563  14.692 -0.0356 -0.0123  0.1902
 8600W        W24409  17.772  13.864  11.746  0.0838  0.0063  0.1642
 8601W        W24410  16.443   5.909   2.851 -0.1760 -0.4257 -0.1405
 8602W        W24411   6.055  14.287   3.278  0.2753  0.0614  0.0555
 8603W        W24412  14.489  10.209   3.068 -0.0391 -0.3752 -0.3268
 8604W        W24413  13.920   9.140   1.929  0.0420 -0.1079 -0.0341
 8605W        W24414   1.275   3.155   5.468 -0.5767  0.0470  0.2622
 8606W        W24415  10.436  16.978   0.382 -0.0805 -0.1522  0.0708
 8607W        W24416   6.132   0.324   4.071 -0.0549 -0.1649  0.0330
 8608W        W24417  15.445   8.242  13.329  0.3913 -0.2410 -0.2049
 8609W        W24418   2.746  10.177  14.648  0.2247  0.2408 -0.2749
 8610W        W24419  12.691  15.035  12.226  0.1589  0.0089 -0.4230
 8611W        W24420   2.042  10.374   3.360 -0.1218  0.2789  0.0689
 8612W        W24421   5.467  10.159   2.447 -0.1890  0.0540  0.1648
 8613W        W24422   2.126  12.189  12.981  0.3713  0.1078  0.1965
 8614W        W24423  14.957  13.714   3.289  0.0215 -0.1730  0.1360
 8615W        W24424  10.420   1.736  12.288 -0.0790  0.1659  0.0923
 8616W        W24425  10.641   4.666   3.596  0.0402  0.2196  0.2707
 8617W        W24426  16.514  13.354   2.699 -0.1742  0.2200  0.1430
 8618W        W24427  10.302   2.462   1.498  0.1401  0.2491  0.0833
 8619W        W24428   0.813   1.547  14.549  0.0317  0.1402 -0.1521
 8620W        W24429  10.599  10.046   4.382  0.2945 -0.0757  0.0235
 8621W        W24430  15.795   2.832  11.629  0.2150  0.2393  0.2106
 8622W        W24431   9.595  17.392   2.402 -0.2131 -0.1370 -0.3125
 8623W        W24432   3.607  12.409  14.153 -0.2293 -0.1536  0.1806
 8624W        W24433   8.520  12.615  15.099 -0.2661  0.1971  0.0155
 8625W        W24434  18.248  11.071  13.232 -0.1860 -0.2169  0.0308
 8626W        W24435  13.275   6.086   1.663  0.4442  0.1244  0.5530
 8627W        W24436   4.894  14.943  12.704 -0.1197 -0.1089 -0.3575
 8628W        W24437  12.956   6.805   3.654 -0.1594 -0.4134  0.1094
 8629W        W24438   9.229  13.944   0.177  0.0700  0.1394  0.2056
 8630W        W24439  14.298   8.434   1.487  0.1851 -0.1023 -0.1672
 8631W        W24440   6.845  12.482  15.538  0.0872  0.0531  0.0294
 8632W        W24441  12.272  13.152   0.313  0.0196 -0.2572 -0.0685
 8633W        W24442  11.414   5.725   5.404 -0.0802  0.1178  0.2791
 8634W        W24443   5.309   0.922   1.484  0.0801  0.4903 -0.2311
 8635W        W24444   8.479  14.909  15.083  0.1924 -0.1040 -0.2693
 8636W        W24445   8.956   6.106   0.024  0.0622  0.1220 -0.1405
 8637W        W24446   4.414  16.343  14.364  0.0787 -0.1513  0.2698
 8638W        W24447   8.473  15.168  10.498 -0.3325  0.1215 -0.0725
 8639W        W24448  15.915   6.881   3.908  0.0242 -0.0304 -0.1937
 8640W        W24449   5.093  18.174  13.380  0.1878 -0.0686 -0.2189
 8641W        W24450   8.618  18.653  14.002 -0.1821  0.1165 -0.0191
 8642W        W24451   8.644   7.304   5.441  0.4761 -0.1923  0.2631
 8643W        W24452  13.486   5.697  12.150  0.1061  0.1507 -0.0755
 8644W        W24453  11.624   4.614  12.021 -0.0884 -0.2355 -0.0569
 8645W        W24454  10.485  15.352   4.043 -0.2207 -0.1872  0.0870
 8646W        W24455  15.798   1.770   1.055 -0.0325 -0.3384 -0.0097
 8647W        W24456   0.339  11.116   2.888 -0.1930  0.0640 -0.3618
 8648W        W24457   2.444   5.413   3.580  0.1392  0.1121 -0.0020
 8649W        W24458   8.306  13.251  11.864  0.1292 -0.0512  0.0720
 8650W        W24459   9.249  10.075   4.851 -0.1358  0.1702  0.0518
 8651W        W24460  18.592   0.951  13.415 -0.0085  0.0636 -0.1122
 8652W        W24461   7.813  13.680   2.648 -0.0552  0.2189  0.2547
 8653W        W24462   2.014   2.535  14.734  0.1453  0.2065 -0.0198
 8654W        W24463  15.090   7.704  14.734 -0.0534 -0.4094 -0.0421
 8655W        W24464   1.020   6.707  14.878  0.1569 -0.2331  0.0781
 8656W        W24465  11.065  11.433   2.038 -0.1705 -0.1274 -0.2037
 8657W        W24466   4.006  12.969  10.939 -0.0011 -0.2458 -0.3554
 8658W        W24467   6.854   0.688  11.406  0.2009 -0.0456 -0.1365
 8659W        W24468   2.099   4.200   1.615 -0.0739  0.1171 -0.2826
 8660W        W24469   5.256   2.577  11.319 -0.3580 -0.0421 -0.0556
 8661W        W24470  11.469   4.132  14.069 -0.0742  0.2013  0.0055
 8662W        W24471  11.698  13.689   4.635 -0.0176 -0.0226 -0.1005
 8663W        W24472  13.590   0.577   5.412 -0.1424  0.0768 -0.0418
 8664W        W24473  13.926   5.908   4.533  0.0167  0.0877 -0.0694
 8665W        W24474   5.694  12.525   2.506  0.1385 -0.1069  0.2413
 8666W        W24475  10.844   5.340   3.408  0.1652 -0.0416 -0.0359
 8667W        W24476   6.318   4.855   3.331  0.2859 -0.3308  0.0072
 8668W        W24477  18.356   8.710   3.427 -0.3797 -0.0892  0.4409
 8669W        W24478  17.255   3.407   0.762 -0.2583 -0.0139  0.0321
 8670W        W24479   9.235  16.126  13.791  0.1738  0.2025 -0.1721
 8671W        W24480  10.596  14.390   2.960  0.0550 -0.2579  0.2343
 8672W        W24481  10.004   4.006   0.423 -0.2151  0.3403  0.2678
 8673W        W24482   9.749   6.507   2.103 -0.1333  0.1736  0.1167
 8674W        W24483   6.124   6.615   9.936  0.2598  0.1799 -0.1613
 8675W        W24484   9.003   1.202   4.283  0.0294 -0.1538  0.0555
 8676W        W24485   9.265   9.079  12.713  0.1291  0.1749 -0.1755
 8677W        W24486   6.982  15.995  11.114 -0.0434 -0.3523 -0.1671
 8678W        W24487  16.145  10.387  13.954  0.1495 -0.0577  0.1729
 8679W        W24488   4.049  17.268   5.014 -0.1785  0.2485 -0.4726
 8680W        W24489  16.268   6.849  13.797  0.0161 -0.1988 -0.0948
 8681W        W24490   7.160   7.243  14.307  0.1990 -0.0197  0.1050
 8682W        W24491  17.868  13.914   4.343 -0.1956  0.4330 -0.0346
 8683W        W24492  11.908  16.404  12.152  0.1417 -0.0949  0.0066
 8684W        W24493  17.836   6.815   0.268  0.4101  0.0528 -0.2304
 8685W        W24494   5.394   4.008  14.435 -0.0999  0.2427  0.1452
 8686W        W24495  18.086   6.335   9.931 -0.1496 -0.0918 -0.2444
 8687W        W24496   3.882  15.337   3.768  0.0076  0.0850  0.0813
 8688W        W24497   2.225   9.585  10.458 -0.3059  0.2826 -0.0174
 8689W        W24498  14.095  13.934   5.363 -0.1130 -0.0211 -0.1474
 8690W        W24499  12.826  14.292  13.631  0.0742  0.1762 -0.0357
 8691W        W24500   9.003   6.674   1.358 -0.1588 -0.0288  0.1601
 8692W        W24501   9.799   4.887  12.773  0.0798 -0.1017 -0.0347
 8693W        W24502  15.743   3.632   4.982 -0.0588 -0.3047 -0.0046
 8694W        W24503  15.711  13.454   0.215 -0.0823  0.2435  0.0574
 8695W        W24504   8.461  17.541  12.011 -0.3897  0.6569 -0.0980
 8696W        W24505   5.254  16.983   3.040  0.1947  0.1302  0.0924
 8697W        W24506   2.444   4.837   0.396  0.0643 -0.2939 -0.0951
 8698W        W24507   7.643  12.924  14.832  0.2511 -0.0647  0.1181
 8699W        W24508   3.274   9.898  11.743  0.0636 -0.0545  0.0238
 8700W        W24509   3.151  18.472  11.396  0.2182  0.1302  0.1062
 8701W        W24510   6.945  14.119   3.564  0.1815  0.0685 -0.1336
 8702W        W24511  12.078   7.735  12.170 -0.2423 -0.2412  0.1604
 8703W        W24512   0.140   1.398  14.814  0.0304 -0.1432  0.0746
 8704W        W24513  14.091   9.951  11.089  0.0957  0.1413  0.2812
 8705W        W24514   7.336   8.318  12.260  0.0101  0.1113 -0.0643
 8706W        W24515  10.817   8.449  12.931 -0.3198  0.0932  0.4963
 8707W        W24516  10.773   0.269   3.159  0.2148 -0.2778  0.2467
 8708W        W24517  16.508  12.384   2.633  0.1914 -0.0323  0.0321
 8709W        W24518  13.890  10.050   3.978 -0.2311 -0.0068 -0.2558
 8710W        W24519   5.426   9.813  12.272  0.0190 -0.1687 -0.0165
 8711W        W24520  12.212   5.151  14.709 -0.1387  0.0813  0.0316
 8712W        W24521  16.616   8.050   0.313 -0.1745  0.0192 -0.1379
 8713W        W24522  11.552  14.312   5.381  0.0519  0.0902 -0.0698
 8714W        W24523  13.364   2.625   4.112  0.1472  0.0899 -0.0426
 8715W        W24524   3.647   0.944   2.539  0.2681 -0.2235 -0.0379
 8716W        W24525   2.679  16.222   4.153  0.3252 -0.2697  0.0942
 8717W        W24526   4.752   7.982   5.379  0.2070  0.0609 -0.0856
 8718W        W24527   5.023   6.239   0.969 -0.0778  0.0185 -0.2064
 8719W        W24528  14.153   7.165   4.787 -0.2604 -0.1779  0.0360
 8720W        W24529   3.857   1.895  13.418  0.0528 -0.2284  0.2310
 8721W        W24530   2.294   5.275   2.889  0.1573 -0.1830 -0.0750
 8722W        W24531   2.237  15.262  14.954  0.2480  0.1511  0.0824
 8723W        W24532   6.771   6.344   4.820  0.0573 -0.1883 -0.3092
 8724W        W24533  14.399  12.137   2.352 -0.0778  0.0706  0.1900
 8725W        W24534   0.339   3.892  15.508 -0.1960 -0.1788 -0.0299
 8726W        W24535   1.316   8.405   2.880 -0.2389 -0.2194 -0.2742
 8727W        W24536  14.193  11.581   2.463  0.0178  0.1271  0.0224
 8728W        W24537   9.463   9.604   0.573 -0.1739 -0.0590 -0.2400
 8729W        W24538  13.712   0.097   0.926  0.0649 -0.2982 -0.1338
 8730W        W24539   0.826  11.477  15.399 -0.0531  0.1007  0.1682
 8731W        W24540  16.750   5.224   0.508 -0.1264 -0.2887  0.0063
 8732W        W24541   6.635  16.654   1.614  0.0794  0.0679 -0.4338
 8733W        W24542   5.309  10.965   4.632  0.0834  0.1452 -0.1623
 8734W        W24543   9.596  12.398  10.969 -0.0252  0.1775  0.0571
 8735W        W24544  16.483   5.667  11.019 -0.0300  0.0174 -0.0121
 8736W        W24545  15.936   7.242  11.042  0.1329  0.0126  0.0302
 8737W        W24546  10.693  11.343   1.723  0.0309  0.0619 -0.2162
 8738W        W24547  11.714   8.782   2.866  0.2130 -0.1303 -0.1352
 8739W        W24548   6.974  12.291  11.022 -0.0059 -0.0289 -0.2416
 8740W        W24549  14.251  10.873  11.451 -0.1162 -0.1599 -0.0720
 8741W        W24550  16.870   7.725   1.604 -0.1542  0.0231 -0.0735
 8742W        W24551   2.993  17.948  15.525 -0.0531  0.2220 -0.2269
 8743W        W24552   4.922   4.964   1.753  0.0433 -0.0439  0.2939
 8744W        W24553   1.867   4.063  11.152 -0.1299 -0.2209  0.2486
 8745W        W24554  16.140  11.695  12.714 -0.1163 -0.1816  0.3371
 8746W        W24555   9.442   5.233   3.312  0.0602  0.1972 -0.0815
 8747W        W24556  12.100  10.241  14.881 -0.0498 -0.1475  0.1948
 8748W        W24557  11.584   2.875   0.850  0.0997 -0.0295 -0.0328
 8749W        W24558   4.219  14.683   0.038 -0.1191 -0.3514 -0.1400
 8750W        W24559   0.596   6.968  12.689  0.0965 -0.2143  0.1286
 8751W        W24560  14.436  16.009   5.986 -0.1029  0.0148 -0.0160
 8752W        W24561   7.554   1.743  11.230 -0.4791  0.0733 -0.0767
 8753W        W24562   4.433  15.498  15.519  0.0532 -0.1413  0.0405
 8754W        W24563  12.624   7.829   4.301 -0.0867  0.1265 -0.2768
 8755W        W24564   2.113  12.241  12.439  0.2443 -0.0822  0.2250
 8756W        W24565   7.175   8.307   3.690 -0.1990 -0.0333  0.0865
 8757W        W24566  10.423  11.705   4.749  0.0506  0.0151  0.1142
 8758W        W24567   9.840   5.619   0.878 -0.3266  0.0149  0.2469
 8759W        W24568   8.306   2.448  14.557  0.1034 -0.1243  0.3652
 8760W        W24569   1.932  11.306  10.615  0.0522  0.1881 -0.4470
 8761W        W24570   6.189   3.240   1.090 -0.1447  0.0261 -0.0239
 8762W        W24571  12.568   2.885  15.106 -0.2708 -0.0428 -0.0819
 8763W        W24572   8.714  12.723   2.797 -0.0285  0.0250  0.1638
 8764W        W24573  16.991   8.792   0.868 -0.1738  0.1280  0.0319
 8765W        W24574  18.145  12.024   0.535  0.1255 -0.1759  0.0832
 8766W        W24575   2.969   5.988  13.781 -0.0656  0.2910  0.1600
 8767W        W24576  15.958  16.340   4.686 -0.0816  0.1344 -0.3724
 8768W        W24577   7.197  18.008  11.662  0.1552 -0.2117 -0.0683
 8769W        W24578  17.835  17.250   5.289 -0.0666  0.1535 -0.2862
 8770W        W24579   7.749  16.300   0.006  0.1135 -0.1728  0.1055
 8771W        W24580  18.105  14.739  11.221  0.1180  0.0472 -0.1008
 8772W        W24581  14.041   6.581  14.637 -0.1054  0.2561  0.0987
 8773W        W24582   6.159  14.372  13.135 -0.2411 -0.1528 -0.1623
 8774W        W24583  12.613   7.918   2.219 -0.1439 -0.1759 -0.1437
 8775W        W24584  15.188  14.179   0.512 -0.0943  0.0720 -0.2285
 8776W        W24585  14.461   3.004  15.169 -0.1301 -0.0417  0.0053
 8777W        W24586  15.909   6.927   4.502  0.1190 -0.0011 -0.2577
 8778W        W24587   7.301  13.626   1.675  0.1664  0.1416  0.1433
 8779W        W24588  16.352   9.566  10.329  0.2717 -0.1740  0.0622
 8780W        W24589   3.984   5.570   9.746 -0.0588 -0.0544 -0.0963
 8781W        W24590   7.378   5.301  11.560  0.4585  0.0842  0.1488
 8782W        W24591  16.466  15.354  13.426  0.0661 -0.1452  0.2041
 8783W        W24592   1.020   4.967   1.012 -0.1134  0.0866  0.0889
 8784W        W24593   7.487  12.486  11.173 -0.2066  0.1930  0.2411
 8785W        W24594  13.504  18.082  14.821 -0.2194  0.1137  0.0971
 8786W        W24595  12.697  18.207   4.240  0.0844  0.1517 -0.2155
 8787W        W24596  12.217   0.374   5.376 -0.2426 -0.3042 -0.1340
 8788W        W24597   8.243  12.984   3.003 -0.0538 -0.0824  0.1382
 8789W        W24598  10.720   1.420  12.065 -0.1560 -0.2415 -0.2970
 8790W        W24599   2.926   9.261  12.082 -0.0848 -0.0343 -0.3510
 8791W        W24600  17.686   5.336  13.833 -0.0130 -0.3210  0.0313
 8792W        W24601   3.271   7.363   1.115  0.1188  0.3445 -0.1755
 8793W        W24602   0.336  13.538  11.809 -0.2724 -0.1997 -0.1800
 8794W        W24603   8.922   6.338   5.330 -0.0841  0.1206  0.1372
 8795W        W24604  10.541   6.565  12.608 -0.0522  0.0528 -0.0188
 8796W        W24605   7.890   8.139  12.373 -0.0840  0.3544  0.0977
 8797W        W24606  10.078  18.516   4.362 -0.0036  0.0508  0.2041
 8798W        W24607  10.809   3.812   4.321  0.1919 -0.1686  0.1275
 8799W        W24608   3.232  15.964  13.544  0.1649  0.3243  0.1133
 8800W        W24609  10.811  17.194   1.667  0.0450  0.0016  0.1478
 8801W        W24610   4.414  15.130  12.190 -0.0076 -0.1265  0.0556
 8802W        W24611   4.643   2.501  15.502  0.2068 -0.2212 -0.0981
 8803W        W24612   7.452  17.929  14.171  0.1190 -0.0432  0.5244
 8804W        W24613   0.688   1.057   0.746 -0.3036  0.0941 -0.4832
 8805W        W24614   0.232   6.323  10.342  0.4205  0.0894  0.2165
 8806W        W24615   8.888   4.862   1.041  0.0762  0.1153 -0.0341
 8807W        W24616   5.215  14.142  11.586  0.2124 -0.1826 -0.1250
 8808W        W24617   3.692  16.908   1.025 -0.0385 -0.0804 -0.0791
 8809W        W24618  11.042   0.536  12.931 -0.0069  0.0227 -0.0000
 8810W        W24619  10.181   0.800   2.799 -0.0940 -0.0575 -0.0944
 8811W        W24620   3.891  12.559   4.116  0.3204  0.2921 -0.0444
 8812W        W24621   6.286   3.871   1.165  0.2044  0.0872 -0.1705
 8813W        W24622   5.786   9.125  12.800 -0.0669 -0.1059 -0.2859
 8814W        W24623   1.400   8.137  15.108 -0.1447 -0.0434 -0.2290
 8815W        W24624  14.648   5.048   4.041  0.0521 -0.1210  0.1087
 8816W        W24625   2.698  16.261   0.285  0.1044 -0.2127 -0.1067
 8817W        W24626  13.468  17.021  14.390  0.1562 -0.2228  0.1679
 8818W        W24627  10.150   6.810  12.422  0.0446  0.1019 -0.0086
 8819W        W24628  18.571  10.249   5.639  0.2763  0.3588 -0.2963
 8820W        W24629   4.264   4.407   4.857  0.1895  0.0618  0.1010
 8821W        W24630   4.261  13.996  10.922 -0.0195  0.0902 -0.1944
 8822W        W24631  13.335  15.913  10.794  0.1180  0.1893 -0.1997
 8823W        W24632  11.826  12.313   0.127  0.2767  0.1036 -0.1641
 8824W        W24633  16.082  12.210  12.970 -0.0421 -0.3495 -0.2068
 8825W        W24634   9.033  12.260   0.139 -0.0564 -0.0411 -0.2525
 8826W        W24635  11.241   1.139   4.851  0.0701 -0.0107 -0.1705
 8827W        W24636   4.178  18.163  15.559  0.0877  0.0208  0.1623
 8828W        W24637  10.540   1.363  12.704  0.0940 -0.0292 -0.1461
 8829W        W24638   0.660   5.235   1.279 -0.1206 -0.0015 -0.1439
 8830W        W24639   2.701   9.162  11.223 -0.1963 -0.0401  0.0535
 8831W        W24640   1.266  14.021  13.645 -0.1500 -0.0334  0.0876
 8832W        W24641   3.480   1.077   4.414 -0.1443  0.1126 -0.1231
 8833W        W24642   3.934  16.856  13.358  0.2073 -0.0815 -0.1069
 8834W        W24643   8.666   8.186   3.865  0.1092 -0.2472 -0.1526
 8835W        W24644   6.535  13.290   6.060  0.1509 -0.0325 -0.2562
 8836W        W24645  15.335   2.708  14.580 -0.2079 -0.1719  0.1591
 8837W        W24646   0.762   2.991  14.672  0.1400  0.1573 -0.2886
 8838W        W24647   9.622   7.706  14.989 -0.1197  0.1096 -0.2242
 8839W        W24648   5.287  17.128  12.338  0.0570 -0.1340  0.2435
 8840W        W24649  15.580  10.215  10.080 -0.0440  0.2913  0.2253
 8841W        W24650   8.633  17.578  14.981 -0.2250 -0.1260 -0.2513
 8842W        W24651  16.565   3.826   0.114  0.3703 -0.0837 -0.1687
 8843W        W24652  11.346   6.836  13.760  0.2625 -0.1408  0.1533
 8844W        W24653   6.410  18.209   3.073  0.0459 -0.0699 -0.1004
 8845W        W24654  16.753  11.451  12.848 -0.0510  0.3618  0.1374
 8846W        W24655   0.647  10.024  12.737 -0.2999  0.2802  0.3879
 8847W        W24656   9.911   6.881   4.730 -0.0878  0.4100  0.2661
 8848W        W24657   2.930  12.724   1.264  0.1941 -0.0706  0.2363
 8849W        W24658  17.055   8.317  10.040 -0.4518  0.0030  0.3158
 8850W        W24659   5.580  18.322  13.135 -0.1846 -0.2321  0.1934
 8851W        W24660  15.447  11.745  12.605  0.0243 -0.0859 -0.0459
 8852W        W24661  11.207  16.361   0.512 -0.1365  0.0772 -0.0895
 8853W        W24662   1.350  17.176   2.737  0.0264 -0.3583  0.0618
 8854W        W24663   6.391  17.846   4.958 -0.0075  0.3403  0.2025
 8855W        W24664  15.000   7.861   0.501  0.0019  0.0436 -0.0161
 8856W        W24665   1.244   6.707  11.506 -0.1083  0.0614  0.3299
 8857W        W24666   8.309   9.335  14.687 -0.2025 -0.1078  0.2107
 8858W        W24667  17.753   5.430  12.820  0.0332  0.2200 -0.2029
 8859W        W24668   3.548   1.737  13.960  0.1301  0.1819 -0.1812
 8860W        W24669  13.643  16.609   0.065  0.1313  0.1002 -0.1025
 8861W        W24670   7.810  13.487   0.541 -0.0281  0.0400 -0.0244
 8862W        W24671   1.545   9.132   1.534 -0.5632 -0.0466  0.1584
 8863W        W24672  12.950  18.074  11.255  0.1256  0.0076  0.0466
 8864W        W24673   3.484   0.993  11.755 -0.1444  0.3589 -0.1170
 8865W        W24674  13.800  11.159   1.271  0.0927  0.0970 -0.1621
 8866W        W24675  17.968   9.705   1.172 -0.1523 -0.1328  0.1666
 8867W        W24676  12.263   8.519  11.273 -0.1440 -0.0086 -0.0413
 8868W        W24677   8.831   6.544   0.842 -0.4181  0.0060  0.1157
 8869W        W24678   4.662  12.394  12.604  0.0434 -0.3221  0.1835
 8870W        W24679   7.328  17.093   3.124  0.2889 -0.0901 -0.0056
 8871W        W24680   4.524  16.685   2.434 -0.0938  0.0073 -0.2113
 8872W        W24681   3.549   7.722   3.399 -0.1201 -0.0725  0.2463
 8873W        W24682  12.149   5.898  13.282  0.3149  0.0438 -0.0274
 8874W        W24683  11.337  11.137   3.939 -0.1426 -0.3861  0.0870
 8875W        W24684   2.887  18.170  12.023 -0.0646  0.1638 -0.0609
 8876W        W24685  13.072   1.846   3.057  0.0550  0.0588 -0.1516
 8877W        W24686   5.797   3.422  15.387  0.1201  0.1413  0.1591
 8878W        W24687   2.417   4.080   4.144 -0.3830 -0.2298  0.0347
 8879W        W24688   2.493   8.159  13.259 -0.0590 -0.3170  0.1064
 8880W        W24689  17.350   0.347   4.672 -0.3863  0.0793  0.0474
 8881W        W24690   6.899   3.896   4.860 -0.1549  0.1636 -0.0675
 8882W        W24691   5.016   0.653  15.434  0.1900  0.0575  0.0817
 8883W        W24692   0.651   8.271   2.305  0.1909  0.0532  0.2343
 8884W        W24693   2.572   7.163  15.400  0.0587 -0.0573 -0.2866
 8885W        W24694   2.332  11.258   0.784 -0.0679 -0.1845  0.1487
 8886W        W24695   4.404   2.382   3.090  0.1880 -0.2914  0.0057
 8887W        W24696  10.827  10.182  15.361 -0.1354  0.0783 -0.2318
 8888W        W24697  10.645   2.657   1.109  0.2582 -0.0216  0.2964
 8889W        W24698  12.149  17.183   3.614 -0.2358 -0.1116  0.0417
 8890W        W24699  13.579  16.509  12.343  0.0763  0.0403  0.1690
 8891W        W24700  17.733  14.040  10.033  0.0316  0.1680 -0.5859
 8892W        W24701   1.843   9.564   5.040 -0.0898  0.0376  0.2050
 8893W        W24702  12.183  15.052  12.371  0.2430 -0.0415  0.0847
 8894W        W24703  13.250  12.556  13.019 -0.0884  0.1108 -0.0765
 8895W        W24704   6.389   3.258   2.264 -0.4158 -0.2091 -0.4083
 8896W        W24705  14.725   8.279  14.338 -0.1113 -0.0110  0.2487
 8897W        W24706   5.899  12.131   2.759  0.1017  0.2412 -0.0733
 8898W        W24707   0.949  16.176   0.687  0.1095  0.0956  0.0582
 8899W        W24708   0.559   7.735   1.154  0.1519  0.1805  0.0598
 8900W        W24709   2.853  14.467  15.222 -0.1158 -0.0563 -0.2785
 8901W        W24710   6.289  15.362  15.596  0.2171  0.2824  0.0558
 8902W        W24711  15.259   8.923  14.838 -0.0422  0.3357  0.1640
 8903W        W24712  14.320   0.852   3.861 -0.2023 -0.0014 -0.1531
 8904W        W24713   6.923   2.311  12.870  0.2640 -0.0179 -0.3403
 8905W        W24714  18.296  16.027  14.394  0.1246  0.0228  0.1270
 8906W        W24715  14.189  12.679  13.139 -0.2239 -0.0729 -0.2313
 8907W        W24716  10.282  13.615   3.980  0.0009  0.1281  0.0458
 8908W        W24717   6.615   4.911  15.594  0.0336 -0.1468  0.0208
 8909W        W24718   1.933  18.124  11.526  0.0413  0.4705  0.2484
 8910W        W24719  12.271  11.277   2.145  0.1411  0.0282  0.1846
 8911W        W24720   6.214   3.490   3.094 -0.1924  0.0671 -0.0207
 8912W        W24721   4.412  17.643   0.020  0.3647  0.1486 -0.0149
 8913W        W24722   0.600   1.895  10.762  0.2103  0.5974 -0.0999
 8914W        W24723   3.918  16.532  14.334 -0.2628 -0.0339 -0.0644
 8915W        W24724   5.508  12.471   3.025 -0.0460 -0.2327  0.3474
 8916W        W24725   2.220   7.830  15.405  0.1535  0.0338  0.3864
 8917W        W24726  11.201   2.128  11.583  0.1169  0.0190  0.0353
 8918W        W24727  15.362   0.390  13.679 -0.0864 -0.4239 -0.0334
 8919W        W24728   6.780   7.515  15.495  0.1931  0.0284  0.1038
 8920W        W24729   4.898  15.687  10.498 -0.2873  0.0411  0.0252
 8921W        W24730   0.645   7.798   2.586  0.3266  0.0399 -0.3085
 8922W        W24731   2.153   3.798   0.689  0.2521 -0.1568  0.1056
 8923W        W24732  13.439   6.446  10.314  0.1673  0.2165 -0.1112
 8924W        W24733   2.944   2.400  11.479  0.1022  0.2859  0.0726
 8925W        W24734   0.207  15.019   4.153 -0.1337 -0.2282 -0.2105
 8926W        W24735   5.243   0.738  14.816 -0.3303  0.2009 -0.2783
 8927W        W24736  14.052   2.609   4.974  0.0564 -0.0475 -0.0565
 8928W        W24737   0.658   3.070  11.063 -0.0609  0.2823  0.1863
 8929W        W24738   7.527   7.387   2.587 -0.0596 -0.2020 -0.1717
 8930W        W24739  16.508  14.956  11.727 -0.0861 -0.0429 -0.0539
 8931W        W24740   2.946   7.367  11.112  0.2319  0.0590 -0.1773
 8932W        W24741   9.702  18.141  12.432 -0.1142  0.0852  0.2311
 8933W        W24742  12.541   4.529  13.074  0.1580 -0.0880 -0.0028
 8934W        W24743  15.843  14.065   3.431  0.0179  0.1262  0.0518
 8935W        W24744   8.560  18.053   1.060  0.1212 -0.1819  0.1842
 8936W        W24745   1.699  14.611  10.356  0.2291 -0.1086 -0.3829
 8937W        W24746   1.664  14.255   2.730 -0.3981 -0.3926 -0.0507
 8938W        W24747  13.906  17.745   0.114  0.2343  0.0430 -0.0982
 8939W        W24748  12.871   6.820   5.344 -0.0680  0.2657  0.1370
 8940W        W24749   2.468   1.972   9.764  0.0517  0.0163 -0.1432
 8941W        W24750   8.511   4.373  11.927  0.2873 -0.0685 -0.2109
 8942W        W24751   1.136   3.154   1.518 -0.2094 -0.0582 -0.0385
 8943W        W24752   7.553  16.532   5.280 -0.0442  0.2671 -0.0331
 8944W        W24753  17.264  18.121  12.121  0.1653  0.3022  0.0355
 8945W        W24754   8.378  13.964  10.299 -0.0612  0.1542 -0.0715
 8946W        W24755   3.774  14.000   1.637  0.0914 -0.0379 -0.0331
 8947W        W24756   7.836   6.563  13.299 -0.4306  0.0354  0.3223
 8948W        W24757   2.545   5.169  11.413 -0.0334 -0.2062 -0.1387
 8949W        W24758   9.701   0.528   2.557  0.1887 -0.2067  0.1024
 8950W        W24759   9.021   9.766   0.454  0.1291  0.1189 -0.2294
 8951W        W24760   5.720   6.170   3.855 -0.1678  0.1276  0.1235
 8952W        W24761   6.331  14.560  15.037 -0.0618  0.2985 -0.1018
 8953W        W24762  16.182  12.807   3.354  0.1475  0.1504 -0.1421
 8954W        W24763  18.099   1.648   4.092 -0.2498 -0.0711 -0.0941
 8955W        W24764   0.613  10.186   2.653  0.1379  0.1773 -0.0703
 8956W        W24765   6.212   7.732  11.435  0.0382 -0.2112  0.4210
 8957W        W24766  18.262  11.761  15.350 -0.0644 -0.2024  0.0301
 8958W        W24767  12.377  13.030   0.752 -0.2627  0.0415 -0.0425
 8959W        W24768  14.938   9.539   1.063 -0.0011  0.2283  0.1713
 8960W        W24769  14.102   4.216   0.418  0.0165 -0.1822 -0.4355
 8961W        W24770  16.766  14.821   1.038  0.1566  0.1588 -0.0454
 8962W        W24771  12.742  17.051   1.079  0.0986  0.0804 -0.0549
 8963W        W24772  15.758   4.500  14.880 -0.0957  0.2243 -0.3931
 8964W        W24773   1.308   5.835   3.487  0.1587  0.3242 -0.1184
 8965W        W24774  16.068   1.180   1.822  0.0665  0.3702 -0.0164
 8966W        W24775  10.312   1.851  15.221  0.2473 -0.0603  0.0373
 8967W        W24776   5.417  10.382   3.340  0.1471 -0.0704 -0.0427
 8968W        W24777   3.942   3.042   6.032  0.1274 -0.0960 -0.1969
 8969W        W24778  15.893   3.686  10.951 -0.2066  0.0512 -0.1466
 8970W        W24779   0.228  11.648   3.815  0.0505  0.0058  0.0357
 8971W        W24780   0.935   5.190   0.252  0.0166  0.0429  0.1628
 8972W        W24781  17.409   4.622   3.051  0.0160  0.0458  0.0539
 8973W        W24782   9.103  16.986  14.205  0.1492  0.2599  0.0030
 8974W        W24783   2.354  16.385  12.776 -0.3620  0.2136  0.0508
 8975W        W24784   2.707  12.978   2.068  0.1267  0.1170 -0.0180
 8976W        W24785  18.644  11.440  15.495 -0.0048  0.0974  0.1070
 8977W        W24786   2.671  10.528  11.184 -0.2753 -0.1768 -0.1100
 8978W        W24787   9.423   0.770   2.184  0.1737 -0.0765  0.1653
 8979W        W24788  13.108   7.609  13.382 -0.1354 -0.0913  0.3041
 8980W        W24789   4.745   5.537  13.496 -0.3165  0.0979 -0.1342
 8981W        W24790   1.280   0.857  13.026  0.0339 -0.3126 -0.0934
 8982W        W24791   1.333  13.990  12.623  0.4350  0.0897  0.2618
 8983W        W24792   0.679   6.837  11.804 -0.1772 -0.0085 -0.0449
 8984W        W24793   3.025  16.531   1.636 -0.0113  0.0307 -0.1491
 8985W        W24794   2.515   1.593   2.732 -0.0204  0.1195  0.0540
 8986W        W24795   3.686   3.692   3.038 -0.0488  0.2899  0.4288
 8987W        W24796   6.377   4.009  13.160 -0.0430 -0.1041 -0.0474
 8988W        W24797   5.993  12.822   0.863 -0.0714  0.1512 -0.0075
 8989W        W24798  16.912  15.032   4.208  0.5194  0.0320 -0.1578
 8990W        W24799  15.144  18.264   3.321  0.1164 -0.0445 -0.2951
 8991W        W24800   1.261   8.905   4.167  0.0055 -0.2834 -0.0556
 8992W        W24801  14.699   9.442   4.470 -0.0504 -0.0171  0.1040
 8993W        W24802  16.728   2.853  15.054 -0.2739  0.2332 -0.2622
 8994W        W24803   5.817  13.081  13.152  0.1404  0.1433  0.0160
 8995W        W24804   9.550  16.818  14.235  0.1088 -0.1747  0.0116
 8996W        W24805   8.941  10.070   5.328 -0.0831  0.2645  0.1056
 8997W        W24806  18.076   0.116   3.392 -0.0938  0.1396  0.5966
 8998W        W24807  14.784  14.353   2.721 -0.1154 -0.0989  0.1757
 8999W        W24808  13.440   3.128  14.581  0.2823 -0.0765  0.1398
 9000W        W24809  13.492   5.453   0.059  0.0764 -0.2337  0.2418
 9001W        W24810   0.879   4.516  11.993  0.0944  0.2298 -0.0710
 9002W        W24811   4.453   6.276   1.908  0.0522 -0.0810  0.0034
 9003W        W24812   8.132  15.730  12.793 -0.0760 -0.0415  0.3774
 9004W        W24813  13.721   3.038  13.522  0.0288 -0.1708  0.1089
 9005W        W24814   9.961  13.472  14.372  0.1501 -0.2114 -0.1110
 9006W        W24815   7.261   0.693  12.825 -0.0437 -0.3803  0.0645
 9007W        W24816   6.289   4.035   3.272  0.1032  0.0482 -0.1301
 9008W        W24817   5.286  15.263   3.325 -0.1498 -0.2603 -0.0119
 9009W        W24818   5.461  11.447   2.560 -0.3728 -0.0688  0.0043
 9010W        W24819   8.772  16.051  14.487 -0.2977  0.1541 -0.2729
 9011W        W24820   3.911   7.343  10.793 -0.0203 -0.0487 -0.0419
 9012W        W24821   5.419   5.906   1.009  0.0306  0.2440 -0.3543
 9013W        W24822   6.846   5.036   4.299 -0.1210 -0.2589  0.0418
 9014W        W24823   4.859   5.510   2.896  0.1306 -0.2376  0.1956
 9015W        W24824   7.454   6.883  11.212 -0.0681  0.0363  0.0333
 9016W        W24825   2.918  18.028   0.390 -0.0881 -0.1906  0.1312
 9017W        W24826   7.692   5.363   3.834  0.1030 -0.0196  0.0025
 9018W        W24827   5.146   0.072   5.500  0.2035  0.2162  0.3136
 9019W        W24828   9.487   5.258  11.773 -0.2938  0.3358  0.4127
 9020W        W24829   1.402   8.503  11.166 -0.2214  0.1707  0.1193
 9021W        W24830   9.393   1.242   3.239  0.1220 -0.0894  0.0291
 9022W        W24831   7.119   3.050   0.904 -0.3986 -0.0779  0.0485
 9023W        W24832   3.010   9.221  10.463 -0.2494  0.2456 -0.1393
 9024W        W24833   4.112  16.311   4.180 -0.1685 -0.1818 -0.1059
 9025W        W24834  11.558   9.205   5.239 -0.2453 -0.0356 -0.1605
 9026W        W24835   1.640   5.197  10.531  0.2796  0.0852  0.0217
 9027W        W24836   9.872   3.585   0.671 -0.2559  0.0190  0.0548
 9028W        W24837  18.644  11.099   1.287 -0.1481  0.0028 -0.0393
 9029W        W24838   1.547  15.412  13.755  0.0062  0.1225 -0.2378
 9030W        W24839   8.362   3.344  12.783  0.2189  0.1516  0.3382
 9031W        W24840  14.483   2.423  14.904 -0.2621  0.1005 -0.1440
 9032W        W24841   7.178   0.508  14.450  0.0099 -0.1464  0.0967
 9033W        W24842  10.135  15.853   3.387 -0.1706 -0.1628 -0.2560
 9034W        W24843  12.177   1.080   4.656 -0.1699  0.1183 -0.0512
 9035W        W24844  16.887   5.581  12.645 -0.3401  0.1309 -0.0909
 9036W        W24845   2.138  17.569  13.140 -0.1998  0.1668 -0.3519
 9037W        W24846   9.446  14.495   2.305  0.2500 -0.1859  0.2350
 9038W        W24847  11.203   9.045   0.605 -0.2130  0.1305 -0.0513
 9039W        W24848   8.468  16.345  13.181  0.0257 -0.0863  0.1341
 9040W        W24849   0.301  15.866  13.373 -0.1230 -0.0737  0.0949
 9041W        W24850   1.792  13.390   4.359 -0.1760 -0.1845  0.3190
 9042W        W24851  11.765  14.244  12.874 -0.0308 -0.2094  0.2444
 9043W        W24852  13.195   1.804  13.996 -0.1539  0.2909 -0.1090
 9044W        W24853   9.662  14.865   0.320 -0.0844  0.1513 -0.0133
 9045W        W24854  18.495  11.442   1.670 -0.3918 -0.2447  0.0411
 9046W        W24855  12.810  13.708  14.942 -0.1283  0.0838 -0.2412
 9047W        W24856   2.647  17.375   5.154  0.1740 -0.0427 -0.1521
 9048W        W24857  16.243  17.032   0.908  0.0793 -0.0288  0.3093
 9049W        W24858  12.076  12.624  12.949  0.1561 -0.1412 -0.0643
 9050W        W24859   1.901  11.711   0.028  0.1789  0.0026  0.1206
 9051W        W24860   6.989   6.066  11.332 -0.0143 -0.0517 -0.2344
 9052W        W24861   7.226  14.823   1.017 -0.5419 -0.0158 -0.0217
 9053W        W24862  14.800  18.433  15.174  0.0886 -0.2021  0.2647
 9054W        W24863  10.115  16.209   5.604 -0.1633 -0.0249 -0.0395
 9055W        W24864   2.468   8.925   0.303 -0.0319 -0.2135  0.0606
 9056W        W24865  11.065   1.829  11.217  0.0439  0.0441  0.2437
 9057W        W24866   6.923   5.034   3.399 -0.0248  0.1830 -0.0821
 9058W        W24867   4.455  11.017  11.293 -0.2354 -0.1086 -0.0953
 9059W        W24868   4.204   0.732   2.700  0.0888  0.1297 -0.0103
 9060W        W24869   0.060   3.613   4.115 -0.1572 -0.1132 -0.0096
 9061W        W24870  18.517  12.654   1.104 -0.2989  0.1027 -0.0656
 9062W        W24871  16.431   7.731   4.365 -0.2994  0.0359  0.2701
 9063W        W24872   4.034   5.048  12.151 -0.2505  0.1724 -0.3490
 9064W        W24873  10.757  12.139  14.343  0.2897  0.0813 -0.3745
 9065W        W24874  11.555   0.481   2.607 -0.1893  0.3225  0.0465
 9066W        W24875   3.992  17.315  12.800  0.0337  0.2978 -0.0122
 9067W        W24876   5.110   0.807  11.284  0.0144 -0.0329  0.2034
 9068W        W24877  16.329  16.562   4.981 -0.0025  0.2145  0.0718
 9069W        W24878   4.257  16.455  11.744 -0.0404  0.1509 -0.1438
 9070W        W24879   7.415  18.463  14.973 -0.0036 -0.2614  0.2575
 9071W        W24880  10.478   6.591   4.106 -0.0698 -0.0093  0.0584
 9072W        W24881  12.240  12.960  12.125  0.0989 -0.2032  0.1198
 9073W        W24882   8.572  15.334  13.332  0.1036  0.0400  0.0665
 9074W        W24883   0.731  11.377  12.163 -0.1298  0.3583 -0.3461
 9075W        W24884  10.959  16.718  11.742 -0.0951 -0.2358 -0.0113
 9076W        W24885  16.299  11.622   1.606  0.1057 -0.0926  0.3641
 9077W        W24886   8.290   0.820   0.493  0.1203 -0.1027 -0.1314
 9078W        W24887  13.069  12.810  10.813 -0.0071  0.0970  0.0229
 9079W        W24888  10.728   7.396  11.164 -0.0387 -0.1807 -0.0539
 9080W        W24889  12.695   7.532   3.062  0.3120  0.0297  0.1040
 9081W        W24890   4.293   5.360  12.504  0.0547 -0.0116  0.1077
 9082W        W24891  16.357   7.716   3.316  0.1356  0.1976  0.1246
 9083W        W24892  18.299  13.827  13.839  0.0062 -0.0786  0.1589
 9084W        W24893   1.628   8.577  14.953 -0.1783  0.1175 -0.0262
 9085W        W24894  15.943  10.914  14.868 -0.1553 -0.0049 -0.2298
 9086W        W24895  12.049  18.266   1.667  0.0585  0.0942  0.2074
 9087W        W24896  18.084  10.537   2.113  0.1721 -0.1014  0.1400
 9088W        W24897   1.034  12.223  10.675 -0.1391  0.0839  0.0189
 9089W        W24898   3.092   8.525   3.922 -0.2071 -0.0509 -0.4020
 9090W        W24899  11.848  11.097   5.467 -0.0766 -0.2040  0.1360
 9091W        W24900   6.117   1.587  14.439  0.0203 -0.0521  0.1945
 9092W        W24901  12.786  13.992   2.808  0.0642 -0.0757 -0.1704
 9093W        W24902  17.262   4.118   3.204  0.2697  0.2227  0.0255
 9094W        W24903   9.575   9.221   0.273 -0.0593  0.5091  0.0930
 9095W        W24904   1.752   8.156   1.650  0.1980 -0.0980 -0.2125
 9096W        W24905   1.510  10.220  10.508  0.2262 -0.0669 -0.2565
 9097W        W24906  17.166  15.797   0.581  0.2299  0.0455  0.0297
 9098W        W24907   0.494   3.350   2.991 -0.1195  0.0960 -0.0054
 9099W        W24908  10.203  14.667   0.488 -0.1437  0.1071 -0.3414
 9100W        W24909   0.688   6.517  14.012 -0.0168  0.0556 -0.0593
 9101W        W24910  11.285   3.164   2.526 -0.0761  0.1904  0.2319
 9102W        W24911  11.330   5.576  14.860  0.2578 -0.2095 -0.5519
 9103W        W24912  10.007   6.931   1.842  0.1375  0.0189  0.0792
 9104W        W24913   8.604   2.301   0.204 -0.0100 -0.2704 -0.0939
 9105W        W24914   9.262  11.156   2.411  0.1049 -0.0330 -0.1338
 9106W        W24915  10.141   0.248   4.002  0.1049  0.2865  0.0024
 9107W        W24916   7.263   1.142   2.785  0.0808 -0.4571  0.1167
 9108W        W24917   8.108   8.928  14.594  0.1897 -0.3735  0.1752
 9109W        W24918  17.868  12.195   4.501  0.2403  0.2514  0.3920
 9110W        W24919  10.908   1.106  15.200  0.0501 -0.0423  0.3666
 9111W        W24920   9.162   8.672  14.763 -0.2911 -0.0292  0.2990
 9112W        W24921   9.884  14.806   5.414  0.1134  0.1691 -0.0514
 9113W        W24922  14.332   7.410   5.598 -0.1998 -0.4834  0.0567
 9114W        W24923  12.753  11.084   1.760  0.0978  0.1172  0.0689
 9115W        W24924  10.654   4.562  15.341 -0.3488 -0.1636 -0.1068
 9116W        W24925   2.347  14.218  13.734  0.2097 -0.0234  0.1964
 9117W        W24926   4.860   8.421  15.167  0.2336  0.1163  0.0989
 9118W        W24927   7.265   0.949  14.194  0.0250  0.1471 -0.3243
 9119W        W24928  15.738  11.611  14.058 -0.2279  0.2015  0.1495
 9120W        W24929   3.385  14.609  10.740  0.1430 -0.0417  0.3104
 9121W        W24930   6.642   0.871   2.075  0.2293  0.3226  0.0135
 9122W        W24931  17.284   7.492  15.413 -0.1478 -0.1749 -0.1308
 9123W        W24932  15.294  14.176   4.716  0.2505  0.1535 -0.1499
 9124W        W24933   7.969  11.416   1.344 -0.1806  0.3153  0.2275
 9125W        W24934  15.819   0.964   3.830 -0.1345  0.1851 -0.0004
 9126W        W24935  10.151   5.272   2.623 -0.3944 -0.3589 -0.0726
 9127W        W24936  14.774   0.596   2.157  0.0437 -0.2020 -0.0166
 9128W        W24937  14.701  11.974  13.235  0.4847 -0.2280  0.4021
 9129W        W24938  10.699   8.901   1.608  0.2917 -0.0905  0.1825
 9130W        W24939  17.978   3.621  15.157 -0.0054  0.0848  0.1129
 9131W        W24940   6.134   4.622  15.620  0.3011  0.1564 -0.0256
 9132W        W24941  16.454  12.376  14.822  0.1446  0.2848 -0.1718
 9133W        W24942   2.224  13.274   3.567  0.3491 -0.1577 -0.1397
 9134W        W24943  15.120  11.809   2.333 -0.2209  0.1902  0.1888
 9135W        W24944   2.236  16.568   2.285 -0.1001 -0.4457  0.0597
 9136W        W24945   5.838  16.001   4.162  0.0546  0.0626 -0.0432
 9137W        W24946   3.599   0.953   1.371 -0.1738 -0.0768  0.2471
 9138W        W24947  10.237   8.876  12.900 -0.2194  0.2736  0.0191
 9139W        W24948   5.395  18.317  14.590 -0.3294  0.0698 -0.2031
 9140W        W24949   7.387  16.256  10.982  0.3234  0.0289  0.1920
 9141W        W24950   3.638   1.797  10.484  0.0643 -0.5563 -0.0359
 9142W        W24951   7.652  14.233   9.597  0.4146  0.0066  0.0992
 9143W        W24952  12.330  18.502  15.512 -0.3909  0.4334 -0.2230
 9144W        W24953   1.159  13.506   3.098 -0.2127  0.0317 -0.0235
 9145W        W24954   9.928  10.468  14.751  0.1455 -0.3424  0.2169
 9146W        W24955  18.586  15.763   4.812  0.4088  0.1592  0.0326
 9147W        W24956   5.120  14.348   1.586  0.3107  0.0086 -0.0545
 9148W        W24957   8.311   8.317  12.199 -0.4469 -0.4496  0.1518
 9149W        W24958   7.792  14.261  15.243 -0.0322 -0.2792 -0.2140
 9150W        W24959   3.008   4.663  14.964  0.0279 -0.2881  0.2576
 9151W        W24960   6.810  10.597  13.614 -0.2433 -0.1393 -0.0937
 9152W        W24961  17.818  12.791   2.846  0.0788 -0.1230  0.1614
 9153W        W24962  17.370  10.051   4.410 -0.0347 -0.1933 -0.1963
 9154W        W24963   9.817   0.473   5.511  0.1949 -0.2011 -0.1701
 9155W        W24964   2.228   2.322   0.435 -0.1418  0.0428  0.0461
 9156W        W24965   2.204   3.645  11.022 -0.1237 -0.1186  0.1191
 9157W        W24966   2.243  13.389   2.688  0.2024 -0.1949 -0.1717
 9158W        W24967  12.968   7.591  12.022  0.2269 -0.0860  0.0753
 9159W        W24968   7.224  12.709  15.180  0.2264  0.1061  0.2531
 9160W        W24969  13.861  11.228  10.564 -0.1807 -0.0722 -0.2776
 9161W        W24970  10.026   5.481  13.488 -0.0763 -0.1661  0.3897
 9162W        W24971   8.076  14.863   2.770 -0.1781  0.2482  0.4217
 9163W        W24972  15.705  10.691   1.367 -0.0114  0.2678 -0.1564
 9164W        W24973   6.100   3.509  11.106 -0.1498 -0.3347 -0.3507
 9165W        W24974  17.221  15.202   3.241 -0.0308 -0.1490 -0.0139
 9166W        W24975  15.736   3.721   2.640  0.0243 -0.1180 -0.0467
 9167W        W24976  11.658  13.074  11.366 -0.0087 -0.1129  0.2831
 9168W        W24977   2.950  15.745  13.161 -0.1946  0.0781 -0.2753
 9169W        W24978   9.225   3.653   2.928 -0.1909 -0.2025 -0.0908
 9170W        W24979   1.279   6.879   5.033 -0.0936  0.2391  0.0522
 9171W        W24980  15.737   1.683   1.543 -0.4529 -0.0530  0.1619
 9172W        W24981  17.514  10.960   0.859  0.0619 -0.1857 -0.0866
 9173W        W24982  12.978  17.992   3.070  0.1519 -0.0840 -0.5774
 9174W        W24983   7.459   3.313   4.007 -0.4391 -0.1825  0.0887
 9175W        W24984  14.824  16.414   1.535  0.3248 -0.1171  0.1252
 9176W        W24985  16.769   3.930  11.882 -0.1719 -0.2503  0.1323
 9177W        W24986  17.593  17.299   3.445 -0.0563 -0.1559 -0.0740
 9178W        W24987  17.364  17.268  12.418  0.2095  0.2991 -0.0088
 9179W        W24988  17.639   1.889  14.542 -0.2343 -0.1798 -0.0261
 9180W        W24989  15.301  15.665  13.893 -0.1428  0.2196  0.3105
 9181W        W24990  11.539  11.578   3.192 -0.1581 -0.1061  0.1604
 9182W        W24991   2.573  14.136  10.420  0.1932 -0.0234 -0.1923
 9183W        W24992  10.419  12.943   0.362 -0.1196 -0.1156  0.0386
 9184W        W24993   3.201  11.190  14.141  0.1731 -0.0668 -0.2509
 9185W        W24994   4.639   4.784   5.266 -0.2240  0.1360 -0.4592
 9186W        W24995   7.385   0.768  10.294  0.1892  0.0285  0.0700
 9187W        W24996   8.412  18.231  13.129 -0.0575  0.1127  0.0416
 9188W        W24997   5.742   7.825   3.670 -0.4635  0.2787 -0.1103
 9189W        W24998  17.043   9.939   3.042 -0.2565  0.1214 -0.0915
 9190W        W24999   8.164   4.937  13.873 -0.3222  0.2554  0.0144
 9191W        W25000   4.837  11.170   9.998  0.1037 -0.3606  0.0861
 9192W        W25001   1.260  11.540  11.264  0.2584 -0.1609  0.4174
 9193W        W25002   6.263  16.690   2.108 -0.0772  0.0920  0.0920
 9194W        W25003  12.591   0.310  15.377  0.3594  0.1167  0.0322
 9195W        W25004   6.319  11.549  14.593  0.0635 -0.0534  0.1157
 9196W        W25005   7.078  12.829   5.860  0.0009  0.0330  0.2544
 9197W        W25006   5.940   6.356   0.219 -0.1127 -0.1129  0.1363
 9198W        W25007   8.189   2.002   5.289 -0.1707  0.0268 -0.3835
 9199W        W25008   7.992   1.450   2.114  0.0880 -0.1724 -0.0556
 9200W        W25009   6.918  16.899  12.142 -0.3845  0.0190 -0.3477
 9201W        W25010   3.552   5.150   1.231  0.0260  0.0511 -0.0945
 9202W        W25011  10.267  10.888   0.750 -0.0806  0.0710  0.2643
 9203W        W25012  14.644   1.296   0.874  0.0161  0.0041  0.1688
 9204W        W25013   9.490   7.620  13.734 -0.0616  0.1562  0.0175
 9205W        W25014   1.539  17.547  10.790  0.0293 -0.0186  0.0166
 9206W        W25015   5.702  16.583   4.146  0.1553  0.1040  0.0267
 9207W        W25016  12.652  16.352   0.191  0.1702  0.1371  0.0889
 9208W        W25017  17.240   2.106  11.814 -0.2476 -0.2905 -0.1183
 9209W        W25018   5.524  14.051   9.609  0.3118 -0.1377  0.0034
 9210W        W25019   5.746  10.791   1.599 -0.1881  0.0083 -0.0548
 9211W        W25020   0.835   9.204   0.441  0.3180 -0.4098 -0.3064
 9212W        W25021   8.381   4.127   1.783  0.0316 -0.1259  0.1562
 9213W        W25022   1.152  15.860   2.573  0.1026 -0.1865  0.0936
 9214W        W25023  18.076   2.707  11.051  0.0206 -0.3419  0.1796
 9215W        W25024   2.463   4.854  15.546 -0.1911  0.1986 -0.0280
 9216W        W25025   3.924   1.790   1.877 -0.0131  0.0203 -0.0526
 9217W        W25026  13.381   7.581  12.981 -0.0391 -0.1735 -0.1300
 9218W        W25027   4.905  14.163  12.217 -0.1808  0.0176 -0.0443
 9219W        W25028   2.388  11.598   1.471 -0.1026  0.1717 -0.0398
 9220W        W25029  12.159   9.830   4.756  0.3442  0.1806  0.0205
 9221W        W25030   8.794  17.968   5.882  0.1191 -0.2364 -0.1326
 9222W        W25031  12.468   1.792   1.234 -0.1457 -0.1971 -0.0240
 9223W        W25032   5.843   8.238   4.018 -0.1687  0.0135 -0.0165
 9224W        W25033  18.600   8.403  13.291  0.1478 -0.1078  0.1289
 9225W        W25034   5.555   1.830   5.541 -0.2445 -0.1389  0.0884
 9226W        W25035   2.920  12.005   3.622 -0.3769  0.2201  0.0777
 9227W        W25036   8.700   0.018  11.096  0.2038 -0.1524  0.0063
 9228W        W25037   2.120   4.024  15.354  0.2371  0.2328 -0.0180
 9229W        W25038   6.897   1.668  14.078 -0.1419 -0.2534 -0.0380
 9230W        W25039   0.255   8.483   4.272  0.0405  0.1425  0.1305
 9231W        W25040   5.803   4.409   4.178  0.0696  0.1883  0.1037
 9232W        W25041  15.623  11.597   3.879 -0.0216 -0.0072  0.1641
 9233W        W25042  18.354   1.764   9.807 -0.1062 -0.3590  0.1144
 9234W        W25043   7.301   0.644   2.727  0.0439 -0.1741  0.0612
 9235W        W25044   0.911  15.242  12.492  0.0400  0.0286  0.0788
 9236W        W25045   4.204  16.619  14.748  0.1703 -0.2428  0.1164
 9237W        W25046  17.674   7.310  11.780 -0.2700 -0.1542 -0.0310
 9238W        W25047  14.402  11.115   5.055  0.1073  0.2202  0.1181
 9239W        W25048  16.884   7.793   9.388 -0.2634  0.1086 -0.3929
 9240W        W25049   5.455   3.458   2.675  0.1579 -0.2883  0.4230
 9241W        W25050   3.535   1.307   2.848 -0.2070  0.0988  0.2956
 9242W        W25051  14.466   8.065   4.591 -0.2262  0.0129  0.2117
 9243W        W25052   4.806  13.129   4.797 -0.1116  0.1610 -0.0743
 9244W        W25053  13.595  12.559   1.634  0.1392  0.1044 -0.2896
 9245W        W25054   0.194   0.977   3.031 -0.1190  0.0741  0.0655
 9246W        W25055   3.450  11.562  12.177 -0.0926 -0.1412  0.0202
 9247W        W25056   2.332   0.940   4.284  0.1287 -0.0058  0.1705
 9248W        W25057  15.110   5.720   4.314 -0.3197  0.1495 -0.4674
 9249W        W25058  16.554   0.329  12.408 -0.3016 -0.0949  0.5233
 9250W        W25059  10.807  17.201  11.915 -0.3884  0.0177 -0.0456
 9251W        W25060  15.793  11.190   2.190 -0.1250  0.0916 -0.0426
 9252W        W25061   3.822   3.778  14.136 -0.1788 -0.1407  0.0692
 9253W        W25062   1.590  12.117  15.320  0.1080  0.3172  0.3569
 9254W        W25063  15.387   5.731   1.676 -0.0363 -0.0559  0.0320
 9255W        W25064   0.622  15.732   4.847  0.2038 -0.1029 -0.0594
 9256W        W25065  11.143  18.208  13.404  0.0656 -0.1743 -0.1156
 9257W        W25066  13.262   7.067  11.652  0.0802 -0.1126 -0.1598
 9258W        W25067  15.226   5.848   0.528  0.4222 -0.0263  0.1985
 9259W        W25068  10.762  16.483   6.145  0.0778  0.0434 -0.2264
 9260W        W25069   0.176   9.475  12.266  0.1533 -0.0666 -0.0982
 9261W        W25070   8.078   0.179   1.664  0.2847 -0.0182 -0.0060
 9262W        W25071   7.804  14.307   0.584 -0.3444  0.1711  0.1626
 9263W        W25072   6.029   4.476   0.526 -0.2597 -0.1988  0.1170
 9264W        W25073   7.895   4.858  14.349  0.0116 -0.0128 -0.1796
 9265W        W25074  12.591   8.584  15.140 -0.0384 -0.1113 -0.3474
 9266W        W25075   5.431   6.894   2.244 -0.1202 -0.1805 -0.1470
 9267W        W25076   8.183   7.254  14.993 -0.0234 -0.2021 -0.1337
 9268W        W25077  18.391  10.986  12.133  0.2271 -0.0630 -0.1831
 9269W        W25078  13.613  16.753  13.086 -0.1502 -0.2021 -0.0818
 9270W        W25079  13.883  14.513  14.733  0.1263  0.0950  0.0012
 9271W        W25080  18.313  13.616  13.237  0.1994  0.0392  0.0095
 9272W        W25081  17.810  15.547   2.531  0.2198 -0.0613  0.0998
 9273W        W25082   7.865  13.191  11.629 -0.0506 -0.2448 -0.1216
 9274W        W25083   6.766   4.492   4.148  0.1648 -0.5165 -0.0766
 9275W        W25084   8.580  16.831  13.111 -0.0233  0.2637 -0.3890
 9276W        W25085  15.482  14.891  11.862  0.0791  0.2539  0.0144
 9277W        W25086   5.700  15.232  10.960  0.2867  0.0563  0.1450
 9278W        W25087   5.818  16.303   3.659  0.0853 -0.1931 -0.2344
 9279W        W25088  10.519  16.943  14.504 -0.4288  0.0035  0.2481
 9280W        W25089  16.974  13.819   2.689 -0.0262  0.3470  0.0292
 9281W        W25090   9.737  13.790  13.242 -0.1424 -0.1555 -0.0383
 9282W        W25091  14.798  17.928   1.874  0.1069 -0.1995 -0.0902
 9283W        W25092   4.800  10.460   5.077  0.0472  0.0753 -0.2892
 9284W        W25093  18.397   1.008   5.521 -0.1368 -0.2546  0.1143
 9285W        W25094   2.898   1.883  13.331 -0.1889  0.0073  0.0877
 9286W        W25095  17.049   0.682  13.470  0.2816  0.1530 -0.1387
 9287W        W25096   0.999   1.704   4.900  0.2900  0.1614  0.3025
 9288W        W25097  13.203  10.466  13.362 -0.1267  0.0012  0.0772
 9289W        W25098  14.793  10.854  15.077 -0.0303 -0.0451  0.0669
 9290W        W25099   0.197   1.753   4.859 -0.4611  0.0066  0.2599
 9291W        W25100   2.990   1.421   3.679  0.0807 -0.1210  0.3421
 9292W        W25101   2.771   4.383  10.770  0.1204  0.0438  0.2369
 9293W        W25102  16.324  11.710   0.434 -0.0380 -0.3203  0.0783
 9294W        W25103  10.043  17.541   4.370  0.3175 -0.0530  0.2992
 9295W        W25104  18.398  15.114   0.134 -0.1738  0.0647  0.0353
 9296W        W25105  12.663  13.114  14.965  0.3454  0.1369 -0.0120
 9297W        W25106  11.040  11.133  15.068  0.2266 -0.0468 -0.1738
 9298W        W25107   8.616   1.472  12.636 -0.1793 -0.1077 -0.0536
 9299W        W25108  13.011  17.783   4.343  0.2357 -0.1970 -0.0564
 9300W        W25109  16.061  14.724  11.774  0.0497  0.0681 -0.0394
 9301W        W25110  13.115  16.393   1.187 -0.1437 -0.2499  0.1671
 9302W        W25111  18.548   0.967   1.508  0.0640 -0.1178 -0.2589
 9303W        W25112  13.846  14.489  11.508 -0.3741 -0.2340  0.1651
 9304W        W25113   9.057   1.833  14.355 -0.0455  0.1654  0.3541
 9305W        W25114   3.626  18.510   0.739 -0.1375 -0.0648 -0.2303
 9306W        W25115  16.524  17.410   0.042 -0.3671  0.0391 -0.1033
 9307W        W25116  10.396   9.424  12.611  0.1179  0.3094 -0.1745
 9308W        W25117   8.133  17.806   1.040  0.1348 -0.2571  0.0911
 9309W        W25118   3.839  16.415   1.146 -0.1860  0.1105 -0.1393
 9310W        W25119   4.812   6.632   1.326  0.0392 -0.0864  0.2626
 9311W        W25120  18.488   2.459   3.254  0.1601  0.2071  0.1716
 9312W        W25121  15.383   6.969   2.053  0.2090  0.0463 -0.3976
 9313W        W25122   2.643   2.043  11.453  0.0958  0.1016  0.2068
 9314W        W25123  12.822   9.542   0.815  0.2537 -0.0880 -0.0414
 9315W        W25124  12.034   8.155   1.747  0.0104 -0.0947 -0.1937
 9316W        W25125   3.006  12.623   0.738  0.0078  0.1180 -0.0200
 9317W        W25126   3.145   2.123  14.065 -0.0195  0.1144  0.1378
 9318W        W25127   1.217   5.255  12.337  0.2631  0.0102  0.0537
 9319W        W25128   6.375  14.988  14.348  0.1544 -0.0057  0.1812
 9320W        W25129  13.055  13.465   1.527  0.1296  0.0975  0.1307
 9321W        W25130  18.669   2.712  10.574 -0.1359  0.2398 -0.1301
 9322W        W25131  10.366   5.708   2.630 -0.1841 -0.1340  0.2938
 9323W        W25132   7.950   6.592  15.527  0.0133 -0.0934  0.1343
 9324W        W25133   6.881   1.564  13.581 -0.1772 -0.1051  0.1953
 9325W        W25134  14.967  12.326   2.161 -0.0032 -0.1810 -0.0671
 9326W        W25135   3.221  17.722  13.259 -0.5531 -0.0603 -0.0378
 9327W        W25136  16.546   5.288  14.966  0.1453  0.1744  0.2349
 9328W        W25137  10.598  10.900  12.472 -0.1647  0.1983 -0.1108
 9329W        W25138   8.815   3.670  11.919  0.1417 -0.1334  0.0171
 9330W        W25139   3.637   0.037   2.796 -0.0882 -0.0963  0.5632
 9331W        W25140   9.044  14.200   0.553  0.3141 -0.0810 -0.3134
 9332W        W25141   4.188  11.178   0.071  0.0661  0.3105  0.1119
 9333W        W25142   5.805   8.063  12.090 -0.0761 -0.0417  0.0494
 9334W        W25143   4.017   3.085   4.750 -0.1839  0.0940 -0.0050
 9335W        W25144  14.673   6.474   0.098  0.0643 -0.2150  0.1133
 9336W        W25145  13.893  13.794  12.156 -0.0578  0.0052  0.0010
 9337W        W25146   7.477  17.566   1.641  0.0232  0.1429  0.2234
 9338W        W25147  18.674   2.357  10.228 -0.0502  0.2326  0.1622
 9339W        W25148   6.531   7.996   0.939  0.0256  0.2955  0.1402
 9340W        W25149   0.617   1.010   1.990  0.3562 -0.0740  0.1404
 9341W        W25150   7.950  13.327  15.103 -0.1291  0.1651  0.1018
 9342W        W25151   4.656  15.115  13.976 -0.0300 -0.1762  0.1131
 9343W        W25152   5.688  14.388  11.816 -0.2512  0.1423  0.0980
 9344W        W25153  15.932  16.133  12.263  0.1737 -0.1272  0.1517
 9345W        W25154   0.994  15.483   4.504 -0.3732  0.0380  0.0285
 9346W        W25155  15.898   9.986  10.631 -0.2457  0.2828  0.1141
 9347W        W25156   5.812  13.064  14.674 -0.0428  0.0204  0.1282
 9348W        W25157  13.369   3.007  12.071 -0.0509 -0.1137  0.2361
 9349W        W25158   0.809  11.212   3.726 -0.1501 -0.0301 -0.0304
 9350W        W25159  15.264   1.792  12.638 -0.0367 -0.4709 -0.0137
 9351W        W25160  18.341  11.410   2.220  0.0684 -0.1648 -0.0301
 9352W        W25161   2.777   4.744   2.130 -0.1223  0.0524  0.2805
 9353W        W25162   8.057   9.015  13.433  0.1203 -0.1254 -0.1158
 9354W        W25163   1.707  11.195   2.455 -0.1477  0.0965 -0.0163
 9355W        W25164  12.475  15.550  13.970  0.2166  0.0548 -0.0872
 9356W        W25165   6.428  18.282   6.175 -0.1722  0.1701  0.1966
 9357W        W25166  14.506  16.103   2.298 -0.2234  0.0927  0.0708
 9358W        W25167  17.308  16.958  15.055  0.2414 -0.1509 -0.0185
 9359W        W25168   5.727  13.125   4.159  0.0090  0.0001 -0.0082
 9360W        W25169   3.861   8.946  15.549 -0.0303  0.1001  0.0333
 9361W        W25170  11.537   7.094   4.020  0.1341 -0.1441 -0.0416
 9362W        W25171   9.458  15.820  13.422  0.0426  0.2657  0.1952
 9363W        W25172  15.220  15.546   3.029  0.1524 -0.2289  0.0604
 9364W        W25173   0.617  15.500  12.151 -0.2211  0.5145  0.2024
 9365W        W25174  11.329  17.995  11.596  0.0317  0.1736 -0.2298
 9366W        W25175   2.884   9.573   0.520 -0.3163 -0.3198 -0.0878
 9367W        W25176  17.547   3.575   3.345  0.1049  0.0613 -0.1887
 9368W        W25177  10.620  17.514  14.424 -0.0840  0.0758  0.0355
 9369W        W25178   2.778   4.550   0.192  0.0384 -0.3767 -0.1623
 9370W        W25179   4.547  17.169   5.305  0.0810  0.2895 -0.0762
 9371W        W25180   1.021  17.043  12.612 -0.1325 -0.1392  0.1882
 9372W        W25181  16.974   8.768  10.320  0.3615  0.2366  0.0498
 9373W        W25182   1.919   0.392   2.103  0.2377  0.1656 -0.2345
 9374W        W25183   8.569   3.911  10.243  0.1262  0.0593 -0.2899
 9375W        W25184  12.442   5.169   4.942 -0.0054 -0.2038  0.0569
 9376W        W25185  12.981  11.341   2.310 -0.1266  0.1603  0.0938
 9377W        W25186   8.786   4.379  13.629  0.1035  0.0077  0.2357
 9378W        W25187   9.357   7.645  13.124 -0.1553  0.0438 -0.0473
 9379W        W25188   2.723   9.042  11.686  0.2922  0.0289  0.1076
 9380W        W25189  17.725   7.687  15.104  0.2038 -0.0714  0.1426
 9381W        W25190   0.765  12.023  15.272  0.3980  0.1530 -0.0980
 9382W        W25191   7.486  12.083  13.094  0.0755 -0.0715  0.1507
 9383W        W25192   2.874   7.823   3.824 -0.1954  0.1915  0.0776
 9384W        W25193   7.272  18.183   1.020  0.1115  0.0969 -0.1236
 9385W        W25194   9.078   6.415  11.813  0.0819  0.0455 -0.1697
 9386W        W25195   7.232   7.558   1.626 -0.0724 -0.0116  0.0930
 9387W        W25196   8.953   6.105   4.889  0.1655  0.1066 -0.3468
 9388W        W25197  17.726   6.391   2.198 -0.3388 -0.0555 -0.0082
 9389W        W25198  18.537   6.024   2.451 -0.1022 -0.1436  0.0959
 9390W        W25199  15.359  14.223  14.292  0.0706 -0.0848 -0.0580
 9391W        W25200  11.790   8.198   5.718  0.3214  0.0583 -0.1722
 9392W        W25201  10.131   0.963   4.401  0.2848  0.0160  0.1351
 9393W        W25202   5.960   2.838   2.226 -0.1309  0.2672 -0.0709
 9394W        W25203  16.276   5.563  13.432  0.1533  0.3794 -0.0356
 9395W        W25204  15.983   8.799  11.438 -0.2682  0.2590 -0.0388
 9396W        W25205   0.776  15.075  13.973 -0.1383  0.2901 -0.1606
 9397W        W25206  14.340  15.607  14.713 -0.0151 -0.0389 -0.1811
 9398W        W25207   6.017  17.985  15.584 -0.1314 -0.0635  0.1236
 9399W        W25208   9.775  12.509  12.523 -0.1870  0.0216  0.1508
 9400W        W25209  13.716  18.418   4.963 -0.0558 -0.2447  0.0397
 9401W        W25210  13.345   8.899  12.091 -0.0365 -0.1244  0.1409
 9402W        W25211  15.854   1.729  11.672  0.1751 -0.3759  0.0549
 9403W        W25212  16.452  10.916   9.731  0.3015 -0.1935  0.0102
 9404W        W25213   8.146  10.235  14.015  0.1802 -0.0029 -0.1516
 9405W        W25214   7.772  16.827  12.645  0.3299 -0.0366  0.0999
 9406W        W25215   9.492  10.849   4.277  0.1162 -0.1457  0.0939
 9407W        W25216   8.155   0.541  14.165 -0.0435 -0.1400  0.0316
 9408W        W25217   2.164   0.812   4.758 -0.0958  0.0641 -0.2373
 9409W        W25218   3.489   5.668   2.677 -0.2016  0.0499 -0.0651
 9410W        W25219  13.114  12.707   2.421 -0.2744  0.0369 -0.0188
 9411W        W25220  12.120   7.795   4.371  0.1280  0.1667  0.3340
 9412W        W25221   9.959  16.351   5.045  0.0594  0.1054 -0.0674
 9413W        W25222  16.595   2.836   1.329  0.2319  0.2468  0.0788
 9414W        W25223  12.542  12.910   4.038  0.1109 -0.0570  0.0355
 9415W        W25224   6.884   1.854  15.362 -0.0554  0.2800  0.2102
 9416W        W25225   9.081   5.189   1.922 -0.0901 -0.0968 -0.4216
 9417W        W25226  16.018  11.482  12.115 -0.2946 -0.0152  0.1131
 9418W        W25227  12.568  16.497  14.941 -0.1630  0.0168  0.1474
 9419W        W25228  17.366   6.616  12.478  0.0950 -0.2505  0.0995
 9420W        W25229  11.942   8.378   5.151 -0.2125  0.1985  0.0311
 9421W        W25230   6.775   4.834   0.936  0.1188 -0.2882 -0.1515
 9422W        W25231  16.210  14.497   2.851  0.2094 -0.0884  0.2316
 9423W        W25232  12.158  13.697  13.876  0.1934  0.0050  0.1183
 9424W        W25233  16.121  18.580  11.422 -0.1204  0.0225 -0.1030
 9425W        W25234   7.878  17.925  11.730 -0.0194 -0.1870  0.0234
 9426W        W25235  10.545   8.254   3.905  0.1268  0.0063 -0.0218
 9427W        W25236  10.942   9.181   4.934 -0.0028 -0.0304  0.3661
 9428W        W25237  14.048   0.213   0.605 -0.2033 -0.1843 -0.1377
 9429W        W25238   0.318   8.196   1.279  0.1323 -0.1088  0.3596
 9430W        W25239   3.059   7.045   0.705 -0.1555  0.3358  0.0369
 9431W        W25240   6.174   2.329   1.292  0.0767  0.0718 -0.3151
 9432W        W25241  16.446  17.503   2.170 -0.0346 -0.1610 -0.1725
 9433W        W25242  17.610   2.508   1.792 -0.2325  0.0408  0.1311
 9434W        W25243  14.307   7.176  13.217  0.3805  0.0600  0.2078
 9435W        W25244   3.401   0.368   4.992  0.0372  0.1433 -0.2780
 9436W        W25245  11.053   8.113   2.156  0.0624 -0.0195  0.0755
 9437W        W25246   9.777   2.092   5.565 -0.3239 -0.1920  0.1779
 9438W        W25247  13.277   6.370  15.091 -0.0912 -0.1832  0.2034
 9439W        W25248  12.360   3.548   0.568 -0.0026  0.1570 -0.2412
 9440W        W25249  11.176  10.684   3.672  0.0966  0.1456 -0.0736
 9441W        W25250   7.191  15.355   0.944  0.2076 -0.0208 -0.0345
 9442W        W25251   3.240   1.499  10.765 -0.3046 -0.0195 -0.2391
 9443W        W25252   1.791  12.324  10.418  0.3778 -0.4298 -0.2001
 9444W        W25253   1.123  10.292  14.715  0.0187  0.1045  0.3875
 9445W        W25254   7.818  10.206   2.871 -0.0872  0.3220 -0.1504
 9446W        W25255  17.525  17.901   1.066 -0.0552 -0.0444  0.1808
 9447W        W25256  18.119  16.133  12.328  0.1740 -0.3481 -0.2628
 9448W        W25257  16.723   3.967   1.452  0.0010 -0.2307 -0.1231
 9449W        W25258  16.793   6.469  14.295 -0.5300 -0.1098 -0.1350
 9450W        W25259   3.946   3.151   2.460 -0.2704 -0.2909  0.1836
 9451W        W25260   9.168   5.571  15.228 -0.0094 -0.1097 -0.0727
 9452W        W25261   6.753   8.078   3.878  0.2065  0.0208  0.0662
 9453W        W25262  15.014   9.668   2.215  0.1948  0.1505  0.0519
 9454W        W25263   0.116   7.651  13.301  0.0860 -0.1774  0.3920
 9455W        W25264   5.177   1.346  11.267 -0.0574  0.2980  0.1391
 9456W        W25265   7.900   0.737   0.831  0.1383 -0.0091 -0.2894
 9457W        W25266  11.987   4.731   0.764 -0.2316  0.2140  0.3049
 9458W        W25267  16.216   2.262   4.967 -0.0336 -0.2461 -0.0589
 9459W        W25268  12.543  16.297   1.199 -0.1240  0.1302  0.1080
 9460W        W25269  17.966  13.783  14.596 -0.0358 -0.2234 -0.2957
 9461W        W25270   6.401  12.832   3.660 -0.1726 -0.0557  0.2529
 9462W        W25271  16.212   7.260   4.136  0.0424 -0.0496  0.2060
 9463W        W25272   9.073  16.844   2.698 -0.0703 -0.3239  0.0325
 9464W        W25273  10.642   3.496   2.976 -0.0194  0.0373  0.2557
 9465W        W25274   4.637   2.622  13.121  0.0562  0.0127  0.0104
 9466W        W25275   2.856   4.860   4.785 -0.0411  0.2656  0.2843
 9467W        W25276   4.820   8.962  11.440  0.2163  0.0494  0.0012
 9468W        W25277   6.153  13.378  14.705  0.3927 -0.2297 -0.0810
 9469W        W25278  17.807  16.393   3.687  0.2281  0.1575 -0.0528
 9470W        W25279  16.928   9.466   1.323 -0.2032  0.2390  0.0695
 9471W        W25280   2.931   4.031  12.941 -0.0067  0.1559  0.2020
 9472W        W25281  16.565   3.424   4.945  0.1309 -0.1344  0.1864
 9473W        W25282   9.355   7.246   1.083 -0.4934  0.0729  0.0967
 9474W        W25283   3.980  17.546   3.869  0.0994  0.1443  0.0585
 9475W        W25284   8.061   6.692  12.021  0.0113  0.2108 -0.2148
 9476W        W25285   4.200   9.864   5.756 -0.1613 -0.2454  0.1368
 9477W        W25286   4.568   9.710   3.858 -0.2641  0.1132  0.3035
 9478W        W25287  18.444  15.886  13.043 -0.1743 -0.3316 -0.2372
 9479W        W25288   4.293  10.617   4.670  0.3826  0.0547  0.2308
 9480W        W25289  11.089  18.057  14.723  0.0650  0.0120 -0.3576
 9481W        W25290  13.672   2.058   3.908  0.1050  0.2207 -0.1799
 9482W        W25291  13.316   0.377  11.355  0.1216  0.1575  0.0580
 9483W        W25292  12.481   6.384   3.310 -0.1743 -0.3269  0.1994
 9484W        W25293  11.731   8.793   0.681 -0.3728  0.1144  0.2004
 9485W        W25294  11.956   5.987  10.720 -0.1667 -0.0297  0.1125
 9486W        W25295   5.193  10.231  13.806 -0.1408  0.0177  0.1799
 9487W        W25296   8.774  14.894   1.978 -0.1206  0.3024 -0.1412
 9488W        W25297  10.279   9.318   0.933 -0.0069  0.0910 -0.0052
 9489W        W25298   0.053   5.496  14.774  0.1471 -0.2220 -0.1377
 9490W        W25299   1.994   3.292  15.160 -0.1500 -0.1236  0.1501
 9491W        W25300   2.853  14.444   4.484  0.2394 -0.3180  0.0423
 9492W        W25301   7.461   3.066  13.052 -0.3829  0.0884  0.3459
 9493W        W25302   6.459  12.852   3.097 -0.0890  0.0886  0.1548
 9494W        W25303  15.045  17.063   5.217 -0.2316 -0.2206  0.0530
 9495W        W25304  10.116  11.627  12.904  0.0569 -0.2533 -0.1772
 9496W        W25305   8.593  10.013   2.707 -0.1957  0.0741  0.1360
 9497W        W25306  15.101  13.972   4.272 -0.1050 -0.0771  0.1623
 9498W        W25307   9.311   0.691  14.873  0.1977  0.1191 -0.2200
 9499W        W25308  12.525   2.810   2.549  0.0074  0.1054 -0.1305
 9500W        W25309  11.274   1.604   3.942  0.0209  0.0467  0.2785
 9501W        W25310  11.522   5.923   2.121  0.3047 -0.3841 -0.1287
 9502W        W25311   6.722  12.441  12.797 -0.0942  0.1575  0.0763
 9503W        W25312  13.029   7.144  15.617  0.1043 -0.0141 -0.0162
 9504W        W25313  14.307   8.089  14.643 -0.0742  0.1557  0.3004
 9505W        W25314  16.090  15.888  14.829  0.0767  0.0865 -0.0549
 9506W        W25315   2.343   0.275   1.953 -0.1050 -0.2468  0.1313
 9507W        W25316   3.781   4.322   3.423  0.2654  0.0270  0.2461
 9508W        W25317   2.289  17.035   1.035 -0.3545  0.0811 -0.3681
 9509W        W25318   9.020   6.621   4.599  0.1256 -0.1656  0.0149
 9510W        W25319  18.346  13.061   4.113 -0.1760  0.0778  0.3588
 9511W        W25320  12.589   0.396   4.272 -0.0069  0.0450  0.1591
 9512W        W25321   7.077  15.466  13.130 -0.0029 -0.0268  0.2396
 9513W        W25322   5.669  14.222   0.628  0.2052  0.2172  0.0530
 9514W        W25323  10.851   8.689   0.254  0.1489  0.1177  0.2582
 9515W        W25324   5.486  18.511   2.078 -0.0332  0.1606  0.1937
 9516W        W25325  15.005   0.098   0.422  0.0163 -0.1232  0.2694
 9517W        W25326   1.493   8.720   9.752 -0.0696 -0.2370 -0.3697
 9518W        W25327   2.128   4.488  12.477 -0.0563 -0.1216  0.3198
 9519W        W25328  12.974  13.207  15.335 -0.4170  0.2466  0.2074
 9520W        W25329  12.310   2.068  12.702  0.3296 -0.3100  0.0593
 9521W        W25330   0.558   5.762   0.246 -0.1839  0.1501 -0.1252
 9522W        W25331   7.674   5.933  14.998  0.0303  0.0394 -0.1428
 9523W        W25332   5.022   9.344  12.656  0.0876 -0.2605 -0.2006
 9524W        W25333   0.418   4.796   2.305  0.0199 -0.0779 -0.0509
 9525W        W25334  15.894   6.493  14.861  0.3310  0.2124  0.1984
 9526W        W25335   8.314  12.756   5.476 -0.0547 -0.2280 -0.1049
 9527W        W25336  17.885   0.681   3.931  0.4361  0.3573 -0.0746
 9528W        W25337  18.018   7.546   1.934 -0.1781 -0.5128  0.1527
 9529W        W25338   3.061   3.130  15.571  0.0790 -0.0100  0.0937
 9530W        W25339   5.771   2.307  12.070 -0.0316 -0.1360 -0.2130
 9531W        W25340  13.863   6.344  15.031 -0.5680  0.1521  0.2157
 9532W        W25341   2.589  14.632   3.771  0.4166 -0.1449 -0.1658
 9533W        W25342  15.886   0.097  13.707 -0.3232 -0.2561 -0.1928
 9534W        W25343   7.627  11.471  13.683 -0.2931  0.0226 -0.1937
 9535W        W25344   4.458  17.200  10.523  0.2731  0.0762 -0.0758
 9536W        W25345   9.606   8.477   3.901 -0.0935  0.0727  0.2447
 9537W        W25346  16.180   0.803   0.527 -0.4340 -0.1865  0.1526
 9538W        W25347   2.243   0.822   2.639 -0.1226 -0.3745 -0.1869
 9539W        W25348  13.354  10.020  14.319  0.0690 -0.0715 -0.0816
 9540W        W25349  11.241   3.378  10.418 -0.0389  0.2397  0.6255
 9541W        W25350   4.388   1.102  14.704 -0.0663 -0.1040  0.2519
 9542W        W25351   3.102  17.877  13.912  0.2116 -0.2777 -0.0430
 9543W        W25352  12.260  16.747  14.629  0.0002 -0.2920  0.2523
 9544W        W25353   5.323   1.450  14.152  0.0893  0.3058 -0.2087
 9545W        W25354   1.581  16.791  11.265  0.3515 -0.2587 -0.2757
 9546W        W25355  14.067   9.184  15.389  0.1677 -0.2347  0.2015
 9547W        W25356   7.837   5.385  15.270  0.2310 -0.2454  0.2302
 9548W        W25357   8.731  15.590  14.590 -0.0409  0.1183  0.2527
 9549W        W25358   3.745  11.933  11.241 -0.3600 -0.3134  0.0042
 9550W        W25359   0.834   6.940   3.134 -0.3862 -0.1321 -0.0310
 9551W        W25360  18.344   7.643  13.406  0.0280  0.2308  0.1032
 9552W        W25361   7.450  17.320  12.308 -0.0998 -0.2410 -0.1096
 9553W        W25362  14.172   0.199   4.409  0.1436  0.0901  0.2866
 9554W        W25363   3.136  10.262   0.752 -0.0739 -0.2972  0.0939
 9555W        W25364  18.454  17.014   4.509 -0.0692  0.0343 -0.1398
 9556W        W25365  14.102  14.424   5.470 -0.2251  0.0737 -0.0867
 9557W        W25366  13.138  18.122  11.771  0.0610  0.1922 -0.1533
 9558W        W25367   9.216   1.986  13.078 -0.0731 -0.1502 -0.0037
 9559W        W25368   3.806   2.467   1.253 -0.0345  0.0649 -0.3273
 9560W        W25369  14.250   8.428   3.941  0.3356 -0.2107 -0.1083
 9561W        W25370  13.960  11.449  12.622 -0.2296 -0.1365 -0.0250
 9562W        W25371  15.303  13.127  11.793  0.0213 -0.2004  0.0094
 9563W        W25372  16.846   8.002   3.140  0.0138  0.0093  0.0035
 9564W        W25373   0.909  16.811   4.003  0.0881  0.0495  0.2572
 9565W        W25374   5.773   9.761  10.576  0.2390  0.0010 -0.0226
 9566W        W25375   3.610  13.021  13.270 -0.1416 -0.2385  0.1605
 9567W        W25376  10.168  11.454  14.660 -0.3013  0.1587 -0.2501
 9568W        W25377   6.304  10.374   0.766  0.1224 -0.1029 -0.0216
 9569W        W25378  11.940   0.988   1.208 -0.0113 -0.1621 -0.1417
 9570W        W25379   2.963   5.047   4.259 -0.0345 -0.0812  0.1749
 9571W        W25380  11.609   2.196  13.947  0.0822 -0.0738  0.1357
 9572W        W25381   4.075   3.545   2.152  0.1532 -0.2350  0.0206
 9573W        W25382  13.979   2.589   0.255  0.3300 -0.0808  0.2094
 9574W        W25383  15.757   8.900   1.082 -0.0638 -0.0976 -0.2936
 9575W        W25384  10.291  15.041  11.327 -0.2403  0.0927 -0.1583
 9576W        W25385  10.507   8.763   2.703 -0.3170  0.0157 -0.3112
 9577W        W25386   1.395  10.771  15.461  0.0792 -0.0592  0.2622
 9578W        W25387   3.505  11.254  14.974 -0.1888  0.2952  0.2201
 9579W        W25388   0.709  16.017  12.189  0.0604 -0.2392 -0.1477
 9580W        W25389  16.337  16.785   2.154 -0.2982  0.1456 -0.0365
 9581W        W25390   6.241   4.569  11.679 -0.1716 -0.4158  0.0949
 9582W        W25391   1.651   8.651   1.435  0.2185  0.0181  0.0532
 9583W        W25392   7.946   8.754  11.207 -0.1146 -0.0635 -0.0582
 9584W        W25393   7.686   4.522   2.477 -0.3742  0.0340 -0.1971
 9585W        W25394  14.245  12.738   3.636 -0.2736  0.0571 -0.2636
 9586W        W25395   6.115   3.394  14.913  0.0893 -0.0224 -0.1235
 9587W        W25396  15.497  18.557   5.031 -0.0329 -0.0768  0.0646
 9588W        W25397  11.111  15.771  11.255  0.2439  0.1386 -0.0678
 9589W        W25398   8.017  16.179  11.657 -0.0369 -0.0452  0.0447
 9590W        W25399   4.279  10.781  14.751  0.0591  0.1177  0.0868
 9591W        W25400   0.248  17.490  11.420  0.1125 -0.0399 -0.2455
 9592W        W25401   2.638  12.427   3.758  0.0495  0.1374  0.3388
 9593W        W25402  18.568  10.926  14.604  0.2908  0.2325 -0.0329
 9594W        W25403  11.082   2.009  13.833 -0.1168  0.2831 -0.2982
 9595W        W25404   1.226   6.415   5.369 -0.0838 -0.0100  0.0002
 9596W        W25405   1.670  10.689   3.176 -0.1524 -0.0411 -0.2457
 9597W        W25406  16.852  18.622  11.163  0.2928  0.0143  0.3098
 9598W        W25407  10.784   5.073   5.832  0.0644 -0.0376  0.3885
 9599W        W25408  12.925   9.430   2.468 -0.0601 -0.0091 -0.0708
 9600W        W25409   7.293   0.917  13.259 -0.1260  0.2448 -0.0497
 9601W        W25410  14.531   3.797  14.383 -0.2000 -0.3046 -0.2838
 9602W        W25411  12.440   8.159   1.507 -0.2277 -0.0998 -0.1611
 9603W        W25412  16.080  13.494  13.018 -0.3579 -0.0703  0.0074
 9604W        W25413  10.920   5.024   0.447  0.0562 -0.1599  0.0232
 9605W        W25414  17.357   5.510  11.466  0.0535  0.2390  0.4045
 9606W        W25415   1.393   3.082   1.028  0.2147  0.0645 -0.0860
 9607W        W25416   5.079   8.539  10.194  0.1568  0.0900  0.1427
 9608W        W25417  18.318   1.692   1.003 -0.2480 -0.0920 -0.1040
 9609W        W25418  13.726  11.699  11.379 -0.0942 -0.1487  0.1310
 9610W        W25419  11.005  14.441   5.506 -0.0418 -0.0350  0.0958
 9611W        W25420  11.145  17.493   6.023 -0.2810  0.2695  0.2219
 9612W        W25421   0.794  10.795  10.692  0.1052 -0.0907  0.3136
 9613W        W25422  12.091   7.102   3.976 -0.0299 -0.0959  0.2936
 9614W        W25423   5.661   9.897   1.722 -0.0707  0.1946 -0.1795
 9615W        W25424  18.475   3.503  11.401  0.0354  0.4264  0.3209
 9616W        W25425   1.538   1.158  13.945  0.1005 -0.0662  0.0165
 9617W        W25426   9.742   9.739   3.035 -0.3645 -0.2598 -0.2189
 9618W        W25427   6.371  18.522   1.981 -0.2841 -0.1429 -0.1785
 9619W        W25428   6.892  17.853  15.419  0.2151  0.0675 -0.1043
 9620W        W25429   9.184  14.097   1.221  0.1072 -0.1737  0.0200
 9621W        W25430   7.321   6.997  13.804  0.1155 -0.0139 -0.2754
 9622W        W25431   8.307   2.174   0.675 -0.0727 -0.3267  0.1086
 9623W        W25432   0.458   2.117  14.088 -0.1057  0.2808  0.1690
 9624W        W25433  15.966   0.515  14.316 -0.3919  0.0496  0.3562
 9625W        W25434   9.083  14.261   3.230  0.0879 -0.1079 -0.0186
 9626W        W25435  18.544  10.300   0.320  0.1181  0.0029 -0.2929
 9627W        W25436   0.504   9.048  12.311  0.0726 -0.1340 -0.4403
 9628W        W25437   7.031   5.425   4.507 -0.1612  0.0835 -0.0370
 9629W        W25438   8.914   6.839  10.861 -0.0965 -0.0219  0.4768
 9630W        W25439  16.601   4.214   4.069  0.1813  0.3150  0.2288
 9631W        W25440  10.837  11.821  13.318 -0.0730  0.1633 -0.0589
 9632W        W25441  18.239   5.387  11.553  0.0330 -0.1715 -0.2816
 9633W        W25442  17.769   9.481  10.892  0.0721 -0.0530  0.1481
 9634W        W25443  12.466   4.121   2.386  0.2796 -0.1526  0.1408
 9635W        W25444  10.969   9.065  13.496  0.1859 -0.1491 -0.1698
 9636W        W25445   5.615   4.071  12.684 -0.2076 -0.1447  0.2092
 9637W        W25446  10.602  16.017  15.351 -0.0934 -0.2238  0.0347
 9638W        W25447   2.045  13.448  15.609  0.1781  0.1561  0.0434
 9639W        W25448  12.782   6.842   1.406 -0.2637  0.2378 -0.3024
 9640W        W25449   6.182   2.721   0.941  0.0528 -0.0862  0.2716
 9641W        W25450   9.603   4.069  13.305 -0.0440 -0.2687 -0.2844
 9642W        W25451  11.319  13.608  13.790 -0.0564  0.1071  0.0729
 9643W        W25452   2.807   1.293  13.404 -0.2352  0.0280  0.2656
 9644W        W25453  16.607   8.644   1.546 -0.2484  0.0888  0.0676
 9645W        W25454  11.691   2.544   3.706 -0.0163  0.2490 -0.1705
 9646W        W25455  15.413   6.894  10.847  0.1961  0.2639  0.0228
 9647W        W25456   1.325   7.646   2.303  0.0165 -0.2341  0.3466
 9648W        W25457  17.917   4.988   4.855  0.0844  0.2545  0.2052
 9649W        W25458  15.620   2.568   3.371 -0.4950  0.0357 -0.1668
 9650W        W25459   4.801  16.866   2.036 -0.1924 -0.0604  0.2614
 9651W        W25460   1.475  15.201  13.224  0.0767 -0.0695  0.1517
 9652W        W25461  16.144  17.226  14.806 -0.1674  0.2504  0.2083
 9653W        W25462  11.027  13.978  13.405  0.1027  0.0949 -0.2886
 9654W        W25463  16.387   1.819   1.117 -0.0157  0.1803  0.1456
 9655W        W25464  10.028   1.354   2.049 -0.1028 -0.0609  0.1148
 9656W        W25465  14.345   1.896   4.049 -0.1980  0.1875  0.1662
 9657W        W25466  10.419  13.935   1.724 -0.4036 -0.0870  0.0826
 9658W        W25467   2.470   1.911  10.895 -0.0233  0.1110 -0.0896
 9659W        W25468   3.738  15.489   1.867  0.0661 -0.1627 -0.3367
 9660W        W25469   4.271   5.403  14.215 -0.0561 -0.4217  0.0167
 9661W        W25470   6.771  13.046   2.249 -0.3386  0.1596 -0.2903
 9662W        W25471  15.321  10.485  12.360  0.0403  0.2252 -0.1945
 9663W        W25472  15.513  14.254   3.109  0.1391 -0.0029 -0.0464
 9664W        W25473   4.996   4.551   3.981 -0.2178  0.1393  0.0340
 9665W        W25474   6.502  11.075   5.149  0.0139  0.4091 -0.1696
 9666W        W25475   4.995  12.987   3.557  0.2491 -0.2630 -0.3451
 9667W        W25476   9.043   1.268  15.216  0.2638 -0.2375 -0.0849
 9668W        W25477  13.003   8.446   2.070  0.1809  0.1996  0.3032
 9669W        W25478  11.481  15.953   3.607 -0.0445  0.0052 -0.0125
 9670W        W25479   0.116  17.208   1.589  0.0068  0.1453 -0.2692
 9671W        W25480   5.973   9.531  14.972 -0.0739  0.2055  0.0681
 9672W        W25481   2.858   0.569  14.329  0.3057 -0.3274  0.0821
 9673W        W25482  10.585  11.478   4.226 -0.1435 -0.4323  0.0541
 9674W        W25483   9.533  11.053   0.296 -0.2842  0.0236 -0.2215
 9675W        W25484   2.993  12.234   1.412  0.2190  0.1920  0.0687
 9676W        W25485  11.510  15.909  14.774  0.3866 -0.3385 -0.0290
 9677W        W25486  16.364  13.161  14.199 -0.0505 -0.2289  0.3638
 9678W        W25487   3.994  17.821  12.438  0.2840  0.1421  0.0424
 9679W        W25488   4.796   8.419   5.159  0.2639 -0.1978  0.1297
 9680W        W25489  10.195  12.572  12.048  0.0013  0.1713  0.1600
 9681W        W25490  16.716  15.337   1.922  0.1298  0.1675 -0.0594
 9682W        W25491  17.745  15.421  12.278 -0.1377  0.2499 -0.0713
 9683W        W25492   6.571   6.553  13.875 -0.0652  0.0394  0.0361
 9684W        W25493  14.198   7.435  14.303 -0.0398  0.1491  0.1528
 9685W        W25494   3.604  13.646   1.311 -0.2229  0.3722  0.1789
 9686W        W25495  11.595   1.884  13.482  0.0754  0.1258  0.1377
 9687W        W25496  16.546  17.322  13.637 -0.1381  0.1660 -0.1928
 9688W        W25497   4.349   1.389  14.204 -0.5570 -0.1136 -0.2202
 9689W        W25498  14.557   3.539  12.617  0.1547  0.2796  0.0579
 9690W        W25499  13.522   1.837  15.337  0.0853  0.0208  0.0972
 9691W        W25500   9.463   1.243  11.408  0.2703 -0.0429 -0.0059
 9692W        W25501   4.053   7.886   0.158  0.1627  0.1159 -0.1605
 9693W        W25502  15.475  10.134   3.149  0.0005  0.0890 -0.2225
 9694W        W25503  16.537   7.201  14.062  0.2011  0.1006  0.1020
 9695W        W25504  13.934  17.775   5.412  0.1087 -0.3347 -0.0809
 9696W        W25505   7.929   4.037  15.574 -0.1749  0.1725 -0.0162
 9697W        W25506   7.694  14.490   5.316 -0.0915  0.2751 -0.1539
 9698W        W25507  17.220   8.233  12.494 -0.1634  0.1348  0.3035
 9699W        W25508   6.398   2.372   1.798 -0.4054 -0.1456 -0.1613
 9700W        W25509   2.323   4.864  12.827  0.0546  0.1361  0.0590
 9701W        W25510   6.218  16.605  10.896  0.1209 -0.2086 -0.0854
 9702W        W25511  18.040   0.960   5.046 -0.1991 -0.1450  0.2231
 9703W        W25512  12.695  12.306   1.273  0.2895 -0.0100 -0.0713
 9704W        W25513   9.350  11.247   3.403 -0.0377 -0.0672  0.0892
 9705W        W25514   8.308   7.996  13.577 -0.0257  0.0715  0.0574
 9706W        W25515   4.647  12.415   2.748 -0.0313 -0.2145 -0.0340
 9707W        W25516   3.108   4.674   5.818  0.1549  0.0279  0.0673
 9708W        W25517   1.764   3.788   2.012 -0.5231  0.0102 -0.2893
 9709W        W25518  13.538  12.298  12.649 -0.0732 -0.2271  0.0722
 9710W        W25519  10.581   4.007   3.135  0.1759 -0.2425  0.1418
 9711W        W25520   7.064  14.031  10.757 -0.0364 -0.0068  0.3947
 9712W        W25521  12.460   3.791  14.117  0.1516  0.0933 -0.0433
 9713W        W25522   3.569   3.316  14.722  0.0142 -0.0111 -0.0482
 9714W        W25523  10.711  15.410   2.986 -0.4409 -0.0471  0.1562
 9715W        W25524  11.752   7.925  13.592  0.1725 -0.2399  0.1834
 9716W        W25525  16.777  10.277   1.138  0.1751 -0.0283 -0.1094
 9717W        W25526   2.428  12.413  13.898 -0.0844 -0.0025 -0.0651
 9718W        W25527  10.004  12.111  12.702  0.0855 -0.3505  0.0556
 9719W        W25528  17.056   0.044  11.658  0.3229  0.2213  0.2686
 9720W        W25529  17.637   6.534  11.101 -0.4196  0.1090 -0.1568
 9721W        W25530   9.952   6.112  12.832 -0.1683  0.0767 -0.1646
 9722W        W25531   6.549   8.362  11.725 -0.2341  0.1885  0.0359
 9723W        W25532   7.586  16.426  12.919  0.1836  0.0386  0.1620
 9724W        W25533   1.962  17.263   4.217 -0.0939 -0.4447 -0.1939
 9725W        W25534  11.649   8.455  15.526 -0.3415  0.5791  0.1207
 9726W        W25535   5.400   8.010   3.963 -0.1666 -0.0364  0.0446
 9727W        W25536   4.709   4.578   0.310 -0.1390  0.1486  0.0618
 9728W        W25537   7.633  16.163  14.346  0.1484  0.2626  0.1642
 9729W        W25538  12.249  13.955   5.607 -0.1562 -0.1784 -0.0885
 9730W        W25539   6.563   7.137   1.509 -0.2002  0.1302 -0.2025
 9731W        W25540  17.411   4.814  15.071  0.0016 -0.1084  0.0257
 9732W        W25541  17.919   3.197   4.819 -0.0787 -0.2070  0.2369
 9733W        W25542  15.164   9.559   1.524 -0.1165  0.3355 -0.1499
 9734W        W25543  14.738  18.416   1.723 -0.1371 -0.3195 -0.1767
 9735W        W25544  18.061   8.409  12.355 -0.3448  0.2518 -0.2857
 9736W        W25545   2.633   2.569   1.937  0.2595 -0.0293  0.0434
 9737W        W25546  11.286   9.123  14.392  0.0426 -0.0299 -0.0185
 9738W        W25547   4.557   7.143   0.148 -0.0482 -0.2058 -0.0999
 9739W        W25548  10.054   4.837  13.230 -0.1321 -0.0245  0.1294
 9740W        W25549   8.448  12.379  10.884 -0.1860  0.2741 -0.0987
 9741W        W25550   9.973   4.327   2.939  0.0531  0.2039 -0.0164
 9742W        W25551   3.818   0.546   1.210 -0.0264  0.0303  0.0615
 9743W        W25552  11.322   4.088   0.289  0.3481  0.4719 -0.1332
 9744W        W25553   8.325  14.741   3.688  0.1956  0.0454  0.2365
 9745W        W25554   8.743   5.634  13.413 -0.2185 -0.3000 -0.1240
 9746W        W25555   3.721   3.712   0.560 -0.0440 -0.0062 -0.2101
 9747W        W25556   0.534   1.497  10.290 -0.0253 -0.1742 -0.0546
 9748W        W25557  13.047  17.020   2.978 -0.0630  0.0394  0.1074
 9749W        W25558   1.172  10.320  15.233 -0.1405  0.1752 -0.1639
 9750W        W25559   9.620  15.448   4.735 -0.2695  0.1688  0.0110
 9751W        W25560   2.634  11.140  11.884 -0.1662  0.0575  0.0192
 9752W        W25561  15.127  15.445   2.585  0.0584 -0.0929 -0.2762
 9753W        W25562   7.034  17.855   1.563  0.3379  0.0916  0.2232
 9754W        W25563   5.023  13.625   2.172 -0.1300 -0.0863  0.0321
 9755W        W25564   7.272  11.553   0.631  0.2505 -0.0290  0.2028
 9756W        W25565   1.466   9.476   1.901 -0.0341  0.0881  0.0371
 9757W        W25566   2.321   8.127  12.738 -0.3511  0.1392 -0.2194
 9758W        W25567   9.991   0.456   4.449 -0.2069 -0.3797 -0.0802
 9759W        W25568   0.612  12.569   1.225 -0.2071 -0.1756  0.3342
 9760W        W25569   4.399   9.731  12.227  0.2358  0.3028 -0.4654
 9761W        W25570  14.380   9.716  13.334  0.0821  0.0419  0.0033
 9762W        W25571   4.425   2.970  15.505 -0.0514  0.0958  0.0308
 9763W        W25572  14.245   9.841   0.638 -0.0583 -0.1092 -0.0752
 9764W        W25573  11.490   1.357  12.618  0.0686 -0.2521 -0.0173
 9765W        W25574   5.190  14.298  10.929  0.2402  0.1682 -0.1015
 9766W        W25575   3.792  10.929  15.450 -0.1263 -0.2558 -0.2863
 9767W        W25576  11.759   4.574  14.086  0.0799 -0.2466 -0.0342
 9768W        W25577   6.401  15.533  11.613 -0.1025  0.1083 -0.2419
 9769W        W25578   0.136   6.412  15.300  0.4025 -0.2076 -0.0076
 9770W        W25579   3.367  10.778   3.803  0.2008 -0.1320 -0.2920
 9771W        W25580   8.489  10.304   1.066  0.2089  0.4316 -0.3086
 9772W        W25581   7.182  10.061   2.802  0.0343 -0.5030 -0.0634
 9773W        W25582  16.645  15.745   3.438 -0.2341  0.1673  0.1727
 9774W        W25583  10.073  17.046   4.086  0.1239  0.1714 -0.0437
 9775W        W25584   9.851   9.725   0.157  0.1758  0.0290 -0.0096
 9776W        W25585  10.831   4.487  13.685  0.2927 -0.0770 -0.1007
 9777W        W25586   3.358  18.307   1.764  0.3373 -0.0618  0.0096
 9778W        W25587  15.648   1.442  11.279 -0.0443  0.1815  0.2073
 9779W        W25588   2.282   3.967  14.185  0.2937 -0.0455  0.3018
 9780W        W25589  18.218  11.471  14.089  0.0944 -0.0617  0.1883
 9781W        W25590  16.410   0.138  15.115  0.1650 -0.0195  0.1465
 9782W        W25591  17.172  13.095   0.219  0.1053  0.0145  0.0886
 9783W        W25592  16.487  11.506  11.899 -0.2432  0.1398 -0.0986
 9784W        W25593   7.452  10.968  10.428  0.1024  0.1785  0.3152
 9785W        W25594  17.461   9.812   1.856  0.1623 -0.0442  0.2235
 9786W        W25595  10.116  11.997   3.044  0.1348 -0.2547 -0.0590
 9787W        W25596   8.858  10.406   3.036  0.0270 -0.2488 -0.2031
 9788W        W25597   3.153  13.706  12.527  0.0590 -0.0326 -0.2506
 9789W        W25598   5.550   4.903  10.994  0.1171 -0.0106 -0.0680
 9790W        W25599   7.798  15.463  12.592 -0.6165  0.0679 -0.0649
 9791W        W25600  16.004   2.926   0.569 -0.1235 -0.1215 -0.0215
 9792W        W25601  13.079   4.492   4.644  0.0231 -0.2518 -0.0858
 9793W        W25602   9.229  12.500  13.266  0.1024  0.0788  0.1046
 9794W        W25603   4.590   1.690   1.271 -0.2700  0.0343 -0.2695
 9795W        W25604  13.433   2.621   3.568  0.0725 -0.3033 -0.2838
 9796W        W25605   9.956   9.095  11.934  0.0313 -0.1137 -0.1314
 9797W        W25606   8.688   1.477  13.337 -0.1641  0.0869 -0.0621
 9798W        W25607   4.606  11.611   0.193 -0.2613 -0.1323 -0.1990
 9799W        W25608  14.801   1.098   2.326 -0.3718  0.0738  0.1611
 9800W        W25609  12.914   4.535   3.011  0.1708  0.0639  0.0657
 9801W        W25610  12.312  11.660  12.285  0.0237 -0.1735 -0.1254
 9802W        W25611   9.533  14.476  12.816  0.1481  0.2752 -0.1172
 9803W        W25612   2.680  16.101  13.483  0.1489  0.3095  0.2298
 9804W        W25613  14.156  11.020   1.600  0.0825  0.0705 -0.0482
 9805W        W25614  10.689  11.676  11.477  0.2123 -0.1475  0.0346
 9806W        W25615   2.547  15.614  14.786  0.1568  0.2164  0.2353
 9807W        W25616   0.719  18.133   4.625 -0.0750 -0.0898  0.0906
 9808W        W25617   7.970   2.566   0.636 -0.0690 -0.0301 -0.1498
 9809W        W25618  14.183   7.389  11.688 -0.0819  0.0503 -0.0586
 9810W        W25619   0.306  11.809   4.314 -0.0134 -0.0698 -0.0095
 9811W        W25620  10.314   8.521   5.008  0.1491 -0.2830  0.0077
 9812W        W25621   3.063  11.579   3.275  0.0888  0.0608  0.0842
 9813W        W25622   2.104  15.639  11.892 -0.0152  0.0737  0.1339
 9814W        W25623  15.600   0.931   1.793  0.0637 -0.0150  0.0312
 9815W        W25624   4.036   7.802   3.221  0.0289  0.3511  0.0526
 9816W        W25625  16.357   1.996   3.614 -0.2388 -0.0361  0.2387
 9817W        W25626  13.842  16.739   5.660 -0.2371 -0.1323  0.1938
 9818W        W25627   7.283  12.448   4.543  0.0982  0.4843 -0.0866
 9819W        W25628   7.513  15.066  12.368 -0.2186 -0.4634  0.1996
 9820W        W25629  18.057  15.590   0.052 -0.0381  0.1673 -0.0600
 9821W        W25630  11.612  11.298   3.558  0.0807 -0.2184 -0.3502
 9822W        W25631   2.269   9.657   0.417  0.1118  0.0467 -0.0551
 9823W        W25632  11.971   1.759  12.606  0.1768  0.2381  0.1392
 9824W        W25633   0.966   1.945  15.358  0.2194 -0.0700  0.0874
 9825W        W25634   0.436   4.334  14.132  0.0917 -0.1152  0.2148
 9826W        W25635   1.301   4.806   1.781  0.1789 -0.1557  0.0981
 9827W        W25636  17.727  16.845   4.899 -0.4182  0.1281  0.1324
 9828W        W25637  14.221   5.503   5.240 -0.1658 -0.0039  0.0560
 9829W        W25638   0.707  18.605   4.439 -0.0566  0.4598 -0.1507
 9830W        W25639  13.204  17.657   0.323  0.2397  0.1789  0.1163
 9831W        W25640   7.132   0.903   2.185 -0.2243  0.3213  0.2531
 9832W        W25641  13.882   6.684   3.274  0.0096 -0.0654  0.2314
 9833W        W25642   7.314   4.904   2.581  0.2491 -0.1555 -0.2683
 9834W        W25643   3.090  10.518   4.261  0.0157  0.1510  0.0019
 9835W        W25644   1.219   5.400  14.610 -0.3494 -0.1619 -0.1855
 9836W        W25645  18.529   7.366   2.773 -0.1642 -0.0853  0.0906
 9837W        W25646   9.240   8.457   3.574 -0.2650  0.0537 -0.0740
 9838W        W25647  16.730  13.290   3.988 -0.0879  0.0831  0.0075
 9839W        W25648   7.612   2.754  10.357 -0.0224 -0.0950 -0.3288
 9840W        W25649  11.697  18.080  12.927  0.1311  0.1037 -0.0478
 9841W        W25650  14.275  18.297   3.742  0.0361  0.1820  0.2309
 9842W        W25651  15.825   3.586  12.739 -0.0114 -0.2256 -0.0386
 9843W        W25652  10.389   1.044  13.147  0.0966  0.1665 -0.2444
 9844W        W25653   9.059   0.303   1.386  0.0618  0.1760 -0.1500
 9845W        W25654  12.114  11.497   1.255 -0.4903  0.1934 -0.0679
 9846W        W25655  14.564   4.865  11.628  0.0848  0.0995  0.0916
 9847W        W25656  15.904   3.830  13.256  0.0401 -0.0840 -0.0794
 9848W        W25657  13.513   9.727   3.106 -0.1154  0.3420  0.0045
 9849W        W25658   0.316   0.417  15.078  0.1658 -0.0032  0.1245
 9850W        W25659  12.787   4.427  14.910  0.0989  0.1926  0.0467
 9851W        W25660   0.681  11.722  11.292 -0.1739  0.1575 -0.2553
 9852W        W25661   1.864  16.241  12.670 -0.2875 -0.2144  0.4607
 9853W        W25662   4.228   5.073  15.192  0.3159  0.0274 -0.0355
 9854W        W25663  13.418   7.802  11.687  0.0756 -0.1241  0.1704
 9855W        W25664   1.282   3.603  11.647  0.0917 -0.2157  0.0350
 9856W        W25665  10.641  10.432   5.172  0.1489 -0.0419 -0.0230
 9857W        W25666  17.933  10.545   0.146  0.0900  0.4984  0.0070
 9858W        W25667  12.750  12.179   0.108 -0.5292 -0.1647  0.4433
 9859W        W25668   2.974   7.722  13.166 -0.1793 -0.0486  0.1308
 9860W        W25669   7.795   4.504  14.740  0.0234  0.2275  0.0851
 9861W        W25670   1.968  10.835   0.958  0.2605 -0.4967 -0.1101
 9862W        W25671   7.941   8.552   4.240  0.1069 -0.0954 -0.0824
 9863W        W25672  12.296  10.849  12.425  0.2395 -0.0301 -0.0244
 9864W        W25673  15.145   1.981  14.324  0.0387  0.0134  0.0537
 9865W        W25674  16.320  16.614   4.443 -0.0105  0.1214  0.0491
 9866W        W25675   6.894   1.134  13.915 -0.2948  0.0307 -0.1027
 9867W        W25676   1.786   3.870   3.462 -0.0692  0.2382 -0.0719
 9868W        W25677   6.754  14.232  15.029  0.1832 -0.1478 -0.2585
 9869W        W25678   1.998  11.849   3.512 -0.1845 -0.1453  0.1522
 9870W        W25679   2.524  18.472  14.473 -0.0246 -0.0171  0.3870
 9871W        W25680   7.135   5.166  14.516 -0.1244 -0.0300 -0.0466
 9872W        W25681   6.486   1.398  12.363 -0.2612  0.1289  0.1776
 9873W        W25682  10.798   4.594  14.247  0.1867  0.2936 -0.1997
 9874W        W25683   8.497   0.275  13.499  0.0107  0.2379 -0.0985
 9875W        W25684   3.296   4.046   3.407  0.0853 -0.2143  0.0714
 9876W        W25685   1.681  14.871   0.913  0.2040 -0.0606  0.2633
 9877W        W25686  18.525  10.689  13.124  0.2637 -0.0419 -0.2063
 9878W        W25687  13.897   3.070   1.366 -0.3128 -0.1576 -0.2861
 9879W        W25688   7.960  11.410   4.708  0.1303 -0.0923 -0.2675
 9880W        W25689   4.150  12.373  14.785  0.2458  0.0662  0.2146
 9881W        W25690   0.469  14.143  11.217 -0.1308 -0.1571 -0.1678
 9882W        W25691   6.929   7.921   2.963 -0.0767 -0.2374  0.1914
 9883W        W25692  18.468  12.542   5.057  0.3328 -0.1050 -0.1422
 9884W        W25693  10.711   0.841  12.113 -0.0071 -0.0698  0.0310
 9885W        W25694  10.761  14.990  14.531 -0.0788  0.0370 -0.1175
 9886W        W25695  10.726   5.528  15.176  0.0746  0.1258  0.0278
 9887W        W25696   6.393   6.260  15.607  0.1101  0.0659 -0.2385
 9888W        W25697   0.659   1.725  12.515  0.0346 -0.1687 -0.0525
 9889W        W25698   4.235   2.152  13.946  0.0871  0.0529  0.1072
 9890W        W25699  11.342  15.500   3.791  0.1021 -0.2027  0.0034
 9891W        W25700  15.805   2.065  13.575  0.0506  0.1809 -0.3367
 9892W        W25701   3.612  12.700   3.356 -0.0926 -0.0639 -0.0086
 9893W        W25702  16.467   2.992   3.909 -0.0147  0.1396  0.0981
 9894W        W25703  12.499   4.943   3.256  0.0583 -0.1096  0.1389
 9895W        W25704  11.501   8.185   1.700 -0.2399  0.1873  0.0165
 9896W        W25705   6.233   3.992  11.650  0.0876 -0.0501  0.4089
 9897W        W25706  17.119   6.778  13.356 -0.2971 -0.1476  0.2536
 9898W        W25707  16.853  17.149   0.739  0.0736  0.2172 -0.0979
 9899W        W25708  12.973   6.203   4.823 -0.1010 -0.0088 -0.2035
 9900W        W25709  10.621   5.691  11.865 -0.1710 -0.1773  0.0120
 9901W        W25710  17.304   6.913  12.953 -0.0972  0.1431 -0.1298
 9902W        W25711   6.291   1.928   3.171  0.0470 -0.2046  0.1618
 9903W        W25712  15.446   0.397   9.651 -0.1942  0.0449 -0.0947
 9904W        W25713   6.374  18.452   2.587 -0.0710  0.1820  0.0047
 9905W        W25714   6.464  16.138  13.759 -0.0127  0.2041  0.1000
 9906W        W25715  17.267   0.409  11.000  0.1253 -0.1486  0.4067
 9907W        W25716  10.342  15.147   0.205  0.2157  0.0182  0.0047
 9908W        W25717  12.060   7.434   3.482  0.3514 -0.2759 -0.0602
 9909W        W25718   2.020  18.583   2.158  0.0460 -0.2017 -0.3152
 9910W        W25719   4.804  10.239   1.807 -0.2991 -0.2519  0.2622
 9911W        W25720   0.237  15.505   3.508  0.4316  0.2521  0.0875
 9912W        W25721   8.743   7.749   4.116  0.1876  0.0314 -0.2049
 9913W        W25722   7.043   1.647  10.700  0.1474 -0.2382  0.0703
 9914W        W25723   7.896   7.695  11.072 -0.2851  0.0902  0.1924
 9915W        W25724  14.845   3.607   0.718  0.1109 -0.0399  0.2232
 9916W        W25725  13.339  12.803  15.439  0.2538 -0.0898  0.2713
 9917W        W25726   1.167  17.609  12.626  0.4998  0.0761  0.0944
 9918W        W25727  12.373   4.636   4.930 -0.0821  0.1926  0.2259
 9919W        W25728   5.259   6.974  13.161  0.2530  0.2026  0.1788
 9920W        W25729  15.541   3.799  11.331  0.1879  0.1746  0.1737
 9921W        W25730   0.712  12.125  11.555 -0.2790  0.0990  0.3141
 9922W        W25731   9.375   9.188  15.003 -0.4162 -0.2182  0.2590
 9923W        W25732   9.843  13.431  12.085 -0.1669  0.1654 -0.3869
 9924W        W25733   5.724  18.493   0.039 -0.0078 -0.0397 -0.0241
 9925W        W25734  10.461   8.013   1.412  0.3410 -0.0922 -0.0478
 9926W        W25735  12.836  15.594  11.951 -0.2400  0.1125  0.0231
 9927W        W25736  18.670  12.607   0.062  0.0094 -0.0708  0.0655
 9928W        W25737  12.994   8.531  11.971  0.0656  0.0049  0.1894
 9929W        W25738  12.885   3.884   9.916 -0.0268 -0.0281 -0.0151
 9930W        W25739   9.940  13.602   5.536  0.1485 -0.0865 -0.1284
 9931W        W25740  14.615   0.242   1.729  0.0984  0.1287 -0.0541
 9932W        W25741  16.161   6.111  12.031  0.2368 -0.1898 -0.2580
 9933W        W25742  11.033  10.475  13.828 -0.3268  0.1681  0.0178
 9934W        W25743   7.890   5.663   4.426  0.1246 -0.2400  0.0926
 9935W        W25744  14.139  15.223   5.691  0.2606 -0.1052 -0.0222
 9936W        W25745  10.988   8.391  11.547 -0.0977  0.1126 -0.1146
 9937W        W25746  14.897  10.021   1.331 -0.1125  0.1739 -0.0273
 9938W        W25747  16.624  11.638   3.524  0.2390  0.0787  0.0699
 9939W        W25748   6.225   5.212  14.888 -0.3555  0.0164  0.1626
 9940W        W25749  12.750  17.338  11.440  0.3337  0.0365 -0.0174
 9941W        W25750  13.751   0.245   4.766  0.0651 -0.2101  0.0741
 9942W        W25751   4.913  17.128  13.027  0.2530 -0.0457  0.1402
 9943W        W25752   7.222   1.996   5.083  0.1902  0.2818  0.0238
 9944W        W25753   0.580  17.320   3.785 -0.0583 -0.4592 -0.1563
 9945W        W25754   3.477   7.268   2.758 -0.0017 -0.0182  0.0941
 9946W        W25755  12.697   0.601  11.969  0.3274  0.1992 -0.2553
 9947W        W25756   0.962  10.864   4.235  0.2195  0.0923  0.0580
 9948W        W25757   2.380   5.440  15.120  0.1439  0.1681 -0.2669
 9949W        W25758   6.298   7.421  12.468  0.0294 -0.0899 -0.0478
 9950W        W25759   7.618  10.756   2.214 -0.1094  0.4295  0.0489
 9951W        W25760  12.238  11.519  13.522  0.0297  0.2663 -0.2968
 9952W        W25761  13.470  14.034   4.189 -0.0439 -0.0613  0.2726
 9953W        W25762   0.851   4.760   1.985 -0.1237 -0.0979  0.0151
 9954W        W25763  14.586  15.601  10.894 -0.2175 -0.3544 -0.1743
 9955W        W25764  18.530  15.445   0.469  0.0883 -0.1527 -0.1111
 9956W        W25765  10.764  12.691   4.819 -0.0078 -0.1274  0.0411
 9957W        W25766  17.703   0.312  10.029 -0.0169 -0.0933 -0.6036
 9958W        W25767  10.573   1.305   1.962 -0.0417 -0.1522  0.0769
 9959W        W25768  12.694  10.233   3.942  0.1897 -0.5723 -0.2922
 9960W        W25769  12.647  16.842  12.773  0.0598 -0.0149  0.3375
 9961W        W25770   5.962   4.572  12.377  0.3349 -0.1213  0.2004
 9962W        W25771  18.085  14.263   4.102  0.2800 -0.2487  0.0379
 9963W        W25772   7.427   0.566   0.171  0.0778  0.1559  0.1638
 9964W        W25773  18.325   6.243  15.299 -0.0881 -0.0943  0.2977
 9965W        W25774   9.768  10.036   3.999 -0.0498 -0.1694  0.0612
 9966W        W25775   2.023   5.229  15.475  0.2245 -0.1117 -0.0719
 9967W        W25776  15.741  10.489   0.448 -0.1749 -0.3451  0.2593
 9968W        W25777   7.073  16.966  14.593 -0.0731 -0.4173  0.3116
 9969W        W25778   5.881   6.106  13.756  0.0786  0.0319  0.1683
 9970W        W25779  18.516   3.016  11.066  0.0387  0.4129  0.0006
 9971W        W25780   7.640   4.770   5.164 -0.0402  0.1348 -0.0659
 9972W        W25781  13.796  15.925   4.511  0.0025 -0.3481  0.0224
 9973W        W25782  14.020  17.116   1.286  0.1464  0.2513  0.2865
 9974W        W25783  14.057   9.941   3.099 -0.2861 -0.2291  0.0105
 9975W        W25784   9.086   5.283  14.352 -0.2135 -0.1164  0.2852
 9976W        W25785   7.421   5.300   3.399 -0.2471  0.3017 -0.6068
 9977W        W25786   4.599   2.256  12.641  0.0662 -0.2574 -0.3320
 9978W        W25787   5.710   1.546   2.441  0.1155 -0.2064 -0.0919
 9979W        W25788  10.981   8.621  14.545  0.0054  0.1405  0.1817
 9980W        W25789  13.537   1.666  12.308 -0.3790 -0.1056 -0.2506
 9981W        W25790   1.642  17.593  10.262 -0.1836  0.2724  0.0563
 9982W        W25791  13.024  12.588   0.369 -0.0676 -0.1594  0.0444
 9983W        W25792  13.425  17.830  12.204 -0.1388 -0.1457  0.0085
 9984W        W25793  16.556  13.710  13.847  0.0412  0.1575 -0.2003
 9985W        W25794   2.375   8.250   4.734  0.0887 -0.1282  0.1741
 9986W        W25795   4.271   3.141  11.414  0.4166  0.2381 -0.0390
 9987W        W25796   9.934   6.116  11.846 -0.2263 -0.0114  0.1182
 9988W        W25797   9.280   5.693   1.771 -0.2003  0.3334  0.0154
 9989W        W25798   3.859   4.793   4.887  0.1032 -0.1839 -0.0750
 9990W        W25799   8.973   5.205   3.410 -0.0156 -0.1867  0.0745
 9991W        W25800   7.159  11.768   3.134  0.4311  0.1922  0.2112
 9992W        W25801   5.941  12.105   5.085 -0.0328  0.2153  0.2823
 9993W        W25802  14.771   6.012   4.102 -0.2648  0.0266  0.1286
 9994W        W25803  16.432   0.706  14.179  0.0339 -0.0921 -0.0102
 9995W        W25804  18.511   5.397  10.379 -0.3307  0.0319 -0.0948
 9996W        W25805  10.365   7.390   2.685  0.1777  0.0346 -0.4154
 9997W        W25806   2.940   6.283   4.704  0.1207 -0.0234 -0.1644
 9998W        W25807   5.346  12.941   2.354  0.3012  0.1721  0.1451
 9999W        W25808   5.769  13.049  15.597 -0.2218 -0.2121 -0.4236
10000W        W25809   7.884   3.031  14.927 -0.1717  0.2258  0.0158
10001W        W25810  10.601  17.730   2.943 -0.0736  0.0375 -0.0348
10002W        W25811   5.438   2.552  10.771  0.1067 -0.3434 -0.0521
10003W        W25812   7.902  13.230  11.022  0.0606 -0.2445  0.0418
10004W        W25813   8.001   2.143   4.371  0.0786  0.1577  0.0254
10005W        W25814  14.424   1.719  15.423 -0.0316 -0.0957 -0.2224
10006W        W25815   9.526  14.009   0.668 -0.2071 -0.0318 -0.0279
10007W        W25816   0.647  13.503  11.413  0.0797 -0.0257  0.0710
10008W        W25817   9.368  14.963  10.505 -0.0446  0.3304 -0.0644
10009W        W25818  18.202  13.203  11.841  0.1331  0.4792 -0.3014
10010W        W25819   2.091   0.317   3.433  0.1532  0.2706  0.1646
10011W        W25820  18.453  11.716   0.193  0.1022  0.1501  0.0774
10012W        W25821   1.769  12.673   3.187  0.1697  0.0581 -0.0155
10013W        W25822   2.788  10.445   4.687  0.0668 -0.3701  0.2712
10014W        W25823   1.054  16.628  11.119 -0.2749 -0.1306  0.1202
10015W        W25824   3.419   9.922  13.188 -0.2388  0.1434 -0.1377
10016W        W25825   0.577   0.926   3.868  0.1175 -0.0450  0.0054
10017W        W25826   4.411   1.918  14.362  0.0146  0.0625  0.2669
10018W        W25827  17.763  14.364   0.238 -0.3190  0.5076  0.0991
10019W        W25828   9.831   9.618   3.700 -0.0775 -0.2850  0.5392
10020W        W25829  11.197   5.755  12.952 -0.0297  0.0156  0.0727
10021W        W25830   4.486   3.622   2.444 -0.1578  0.1239  0.0025
10022W        W25831   8.506  18.009  11.766  0.1800  0.0838 -0.0513
10023W        W25832  15.642  15.488   4.250 -0.1835 -0.1178 -0.2109
10024W        W25833  13.757   7.835   1.501  0.3103 -0.2576 -0.0250
10025W        W25834  17.131   5.642   2.217  0.0596 -0.2868 -0.0936
10026W        W25835  15.565  17.852   3.925  0.1141 -0.0301  0.0534
10027W        W25836  15.197  18.580  14.400 -0.1065  0.1434 -0.0079
10028W        W25837   2.592  10.044  13.813  0.0316  0.2060  0.0553
10029W        W25838  13.978   5.666   0.187 -0.1270  0.0863  0.2480
10030W        W25839  17.204   4.944  13.244 -0.1172  0.0617  0.0051
10031W        W25840   9.877   5.550  14.143  0.2746 -0.1190 -0.1338
10032W        W25841   4.262   7.945  12.178  0.1711 -0.0481 -0.0156
10033W        W25842   9.338   0.653   0.431  0.1353  0.1221  0.1187
10034W        W25843  12.423   4.821   1.037 -0.1056 -0.1895  0.2016
10035W        W25844   3.152   6.162   2.552 -0.1733  0.3073  0.4507
10036W        W25845   6.476   3.678   2.582  0.1380  0.2324 -0.1757
10037W        W25846   1.178  13.613   1.719  0.5895 -0.2253 -0.3035
10038W        W25847  18.588   7.552  13.902 -0.1384  0.0726 -0.1961
10039W        W25848  12.239   2.428  12.331  0.0168  0.0454  0.1427
10040W        W25849   6.936  14.643  11.879 -0.0404  0.0333  0.0465
10041W        W25850  17.402   9.652   2.714 -0.0806 -0.1754  0.2267
10042W        W25851  10.771   3.504  14.162 -0.2112 -0.0507  0.4139
10043W        W25852  17.262  10.512  15.359  0.2173 -0.1003  0.1107
10044W        W25853   7.135   9.144  11.254  0.0312 -0.0922  0.0965
10045W        W25854   2.757   7.315   1.088 -0.0571 -0.1360 -0.1762
10046W        W25855  15.348  17.864  10.270 -0.2247  0.0939  0.2618
10047W        W25856   5.662  14.564  13.250  0.0192  0.2659  0.0569
10048W        W25857   9.094   4.502   2.325  0.0091  0.1863 -0.2423
10049W        W25858  15.122  17.590   0.806 -0.4043  0.0654 -0.0452
10050W        W25859  13.363  13.875   0.715 -0.3268  0.1409 -0.1875
10051W        W25860  17.957   4.054   3.854 -0.0367  0.0370 -0.1126
10052W        W25861   2.385   1.796   0.267  0.2955  0.4100 -0.0610
10053W        W25862   2.977  10.366  10.627 -0.0373  0.3586  0.1442
10054W        W25863   6.675   3.236   3.175 -0.1238 -0.0014 -0.2564
10055W        W25864  14.964   8.662  13.587 -0.0767  0.1223  0.3686
10056W        W25865  17.476  15.917   1.731  0.2774 -0.1481  0.1769
10057W        W25866   0.288   0.381   0.945 -0.2225  0.1587  0.2700
10058W        W25867   5.108   1.208   0.775  0.3052 -0.1555 -0.0094
10059W        W25868   4.359  13.756   3.568  0.0722 -0.0476  0.1271
10060W        W25869  13.731   8.238   0.124  0.2462  0.0799  0.0887
10061W        W25870  10.588  16.471  12.619  0.0421 -0.2419 -0.1590
10062W        W25871  16.094   2.995   5.520 -0.0744 -0.1435 -0.0440
10063W        W25872   8.651  17.428   2.388  0.1547 -0.0360 -0.3630
10064W        W25873   4.925   9.594  14.806 -0.1046 -0.2667  0.0601
10065W        W25874  14.770  17.809   9.833 -0.1603 -0.0006  0.0813
10066W        W25875   4.720  16.357  11.517 -0.1772 -0.0309 -0.0253
10067W        W25876   7.937   1.749  12.269 -0.1727  0.1359 -0.1600
10068W        W25877  11.887   3.108  12.189 -0.0205 -0.1102 -0.0697
10069W        W25878   9.246   0.253  15.156  0.0190  0.0146 -0.1437
10070W        W25879   3.768  16.042  10.252  0.2390 -0.2050  0.1501
10071W        W25880   0.428   1.357   4.998  0.0790 -0.1075  0.0578
10072W        W25881  12.380   2.295   4.490 -0.0948 -0.0836 -0.1145
10073W        W25882  18.550  10.194  15.103  0.0595  0.0477  0.1685
10074W        W25883  18.300  15.732   4.360 -0.1277  0.1358 -0.0443
10075W        W25884   4.195  15.304   4.325 -0.0114 -0.0047 -0.0819
10076W        W25885  12.919  14.193  15.209 -0.0460 -0.2157  0.1538
10077W        W25886   5.866   5.812   3.408 -0.0788 -0.2291 -0.1175
10078W        W25887   5.776   0.238   1.109 -0.0626 -0.2378  0.1437
10079W        W25888   5.185  17.772   3.337 -0.1869 -0.0135  0.1086
10080W        W25889   1.083  18.616   5.363 -0.4524 -0.3735  0.1592
10081W        W25890   0.155  18.642   2.723 -0.2164 -0.0723  0.0061
10082W        W25891  15.544   8.179   2.568  0.0453 -0.0814  0.0373
10083W        W25892   7.062   2.407   3.075  0.0137 -0.3424  0.0492
10084W        W25893   7.432   6.498   0.535  0.0109  0.0538  0.0078
10085W        W25894  13.602  15.904   1.812  0.0644 -0.2697 -0.0250
10086W        W25895   6.582  14.924   2.363  0.4801 -0.1511 -0.3995
10087W        W25896  13.503  16.224   1.425 -0.1305  0.2024  0.0017
10088W        W25897  18.435  11.982  11.353 -0.0061 -0.0389 -0.1406
10089W        W25898   9.789   4.972  15.430 -0.0951  0.0176 -0.1533
10090W        W25899  15.574  15.705   2.611 -0.0061 -0.1420  0.2216
10091W        W25900  15.872  10.997  11.913  0.0021 -0.0574  0.3619
10092W        W25901  15.914  12.565  10.989  0.1048 -0.0435  0.2965
10093W        W25902  17.377  11.066  12.181 -0.1738 -0.0781  0.0016
10094W        W25903  13.933  10.539  11.759 -0.2528  0.0489 -0.1206
10095W        W25904  10.819  17.312   2.489  0.1403 -0.0020  0.0232
10096W        W25905  10.334   6.829  10.422  0.2225 -0.0360  0.3212
10097W        W25906   7.872   2.589  11.482 -0.0759 -0.0293  0.0000
10098W        W25907   7.462   4.663  15.143 -0.2026 -0.1064  0.1956
10099W        W25908  12.427  16.063  14.002 -0.0596 -0.1248 -0.0685
10100W        W25909  13.258  17.679   5.247 -0.1523 -0.1595  0.0418
10101W        W25910   5.048  18.223   1.074 -0.3016 -0.2041 -0.2050
10102W        W25911   1.558  16.156   3.703 -0.0567  0.3448 -0.0506
10103W        W25912   8.299  10.265  14.824  0.2360 -0.3610 -0.0088
10104W        W25913  14.550  10.392  13.433  0.0063  0.0966 -0.1469
10105W        W25914   9.916   4.499   1.462 -0.1032 -0.1661 -0.3146
10106W        W25915   7.139   5.797   4.211  0.3332 -0.0434  0.0522
10107W        W25916   1.167  12.284  11.640  0.3369  0.2862 -0.3206
10108W        W25917   9.440  16.142  11.954  0.0709  0.0841  0.0013
10109W        W25918   4.139   7.740   1.028  0.2981  0.1834 -0.0491
10110W        W25919   6.109   6.907   3.763 -0.1215  0.2147  0.0201
10111W        W25920  16.854   4.473   1.485  0.1823 -0.1198  0.3019
10112W        W25921  14.800  13.165   3.100 -0.2421 -0.0332 -0.0452
10113W        W25922   5.361  12.437  11.236  0.1240 -0.1818  0.2098
10114W        W25923  10.492   2.119   3.060 -0.1447  0.2331 -0.1967
10115W        W25924  13.176  10.878   5.517 -0.4003  0.0100  0.0758
10116W        W25925   4.140   8.348   4.208 -0.2524 -0.0535 -0.1733
10117W        W25926  11.316  12.905  15.560  0.2764  0.1471  0.1913
10118W        W25927  12.205   8.128  13.814  0.0393 -0.5017 -0.0673
10119W        W25928  15.964   5.307  10.295  0.1640 -0.1801  0.1257
10120W        W25929   4.369  10.911  15.235  0.2597  0.1628  0.2563
10121W        W25930   0.114   9.799   3.330 -0.2100  0.0522 -0.3418
10122W        W25931   8.127  14.515   1.003 -0.2697  0.1806  0.1905
10123W        W25932   4.857  14.171   3.790 -0.1157  0.2225 -0.1328
10124W        W25933   5.599  11.992   5.925  0.1741  0.0488  0.0354
10125W        W25934   9.569   8.738  13.491  0.2283 -0.1485  0.0890
10126W        W25935   2.264   5.701  15.578  0.0229  0.2112  0.1597
10127W        W25936   6.174  14.580  10.658  0.0871 -0.1269 -0.3747
10128W        W25937  13.164  12.441   1.017 -0.0731  0.0386 -0.0239
10129W        W25938  18.306   6.784  15.431  0.0679 -0.0539 -0.2144
10130W        W25939   5.799   1.930   3.422 -0.0520  0.1671 -0.2332
10131W        W25940   9.423   5.825  11.362 -0.1505 -0.1577 -0.2620
10132W        W25941  13.847   1.014   5.271 -0.1490 -0.1906  0.1971
10133W        W25942   4.305  10.571  11.476  0.0801 -0.0864 -0.0995
10134W        W25943  11.350   5.047  11.797 -0.3474 -0.1161 -0.0968
10135W        W25944  15.922  12.136  15.577 -0.2051  0.1769 -0.0589
10136W        W25945   8.242   2.426  14.033 -0.1603  0.2931 -0.1601
10137W        W25946  17.032   2.979  12.779  0.1192 -0.0757 -0.2579
10138W        W25947  17.547  17.401  14.592 -0.0445  0.0629 -0.1360
10139W        W25948   6.769  16.156   3.672 -0.0459 -0.1111  0.2321
10140W        W25949  14.243   6.456   5.208  0.1562  0.1132 -0.2602
10141W        W25950   6.225  14.327  14.620 -0.1115  0.0581 -0.0870
10142W        W25951  17.097   5.090   2.078  0.0149  0.0500  0.4238
10143W        W25952   7.991   9.466  13.691  0.0126  0.0470 -0.3224
10144W        W25953   3.838   7.914   2.359  0.2359 -0.1489  0.3450
10145W        W25954  17.786  12.252  10.384 -0.0002 -0.1167 -0.1518
10146W        W25955   2.229  15.656  15.272 -0.0408 -0.1607  0.0121
10147W        W25956  15.765  16.690  13.045 -0.1468 -0.1835 -0.0248
10148W        W25957   3.272  16.403  13.945  0.0345  0.2276 -0.1394
10149W        W25958  14.244   2.627   5.510 -0.3980 -0.0780  0.0414
10150W        W25959   2.968  16.327   4.646 -0.3160  0.1102 -0.0535
10151W        W25960   1.162   9.109  13.734  0.0709  0.0036  0.0234
10152W        W25961  17.893   8.185   0.144  0.0727 -0.2226  0.2240
10153W        W25962   2.963   1.574  12.860 -0.1478 -0.1218  0.2383
10154W        W25963   5.156   6.663   5.203 -0.0012 -0.0719  0.0234
10155W        W25964  16.416   5.557  14.582  0.1607 -0.2493  0.0289
10156W        W25965  13.882   1.418   1.444  0.1158 -0.3247  0.1147
10157W        W25966   5.269   7.001   3.744 -0.2054  0.0687  0.2272
10158W        W25967   4.415   2.843   0.829 -0.0394 -0.3892 -0.0597
10159W        W25968   1.522   5.054  13.814 -0.2111  0.1894  0.0238
10160W        W25969   1.070  10.402   4.228 -0.2772  0.1820 -0.1416
10161W        W25970  17.171   3.098  15.355 -0.2363 -0.0825 -0.0709
10162W        W25971   1.869   4.804  11.927  0.1719 -0.0805 -0.0012
10163W        W25972   5.353   2.167  12.244  0.1566 -0.1579 -0.2070
10164W        W25973   8.393   3.059   4.120 -0.0884 -0.0753 -0.1422
10165W        W25974  10.302  15.053   5.254  0.0916  0.0084  0.2240
10166W        W25975  12.656  18.333  11.911  0.0591 -0.0517  0.2798
10167W        W25976  14.003   4.734   0.610  0.0282 -0.0938  0.2133
10168W        W25977  13.977  16.025   4.989  0.0608 -0.0136 -0.1783
10169W        W25978   8.634   7.803   1.052  0.0057 -0.2295 -0.1523
10170W        W25979   3.966  13.429   0.440  0.1277  0.1758 -0.2433
10171W        W25980   9.558  11.828  15.126 -0.0199  0.1416 -0.1374
10172W        W25981   4.308   4.286   4.323 -0.0621  0.1914 -0.0069
10173W        W25982   8.751  11.305   2.432  0.1218 -0.1424 -0.3016
10174W        W25983   3.647  17.542   4.869  0.1204  0.0696 -0.1524
10175W        W25984   8.581   5.505   2.744  0.0879 -0.0074  0.1472
10176W        W25985   9.843  12.372   2.098  0.1039 -0.0971 -0.1933
10177W        W25986   6.574   6.397   2.079 -0.1749 -0.2165  0.0907
10178W        W25987  16.520  10.659   4.057  0.0017 -0.1670  0.2886
10179W        W25988   5.927   6.828   2.127  0.0073 -0.0077  0.0936
10180W        W25989  10.621  12.445  10.133 -0.2517 -0.1010  0.1069
10181W        W25990   9.969   9.157  11.395 -0.1142  0.1101  0.1197
10182W        W25991   6.830   3.116   1.880 -0.2210  0.1591  0.0447
10183W        W25992   3.149  16.745  13.141  0.0456 -0.0819  0.2708
10184W        W25993  15.456   0.192   1.133  0.2067 -0.0211  0.0744
10185W        W25994  10.766   5.813   2.334  0.2062 -0.1961 -0.1405
10186W        W25995  13.779   3.115  13.009  0.5761 -0.0148  0.0106
10187W        W25996   5.284   8.723  12.600 -0.0497  0.2210 -0.1453
10188W        W25997   4.452  12.846   4.980 -0.1415 -0.0073  0.1944
10189W        W25998  15.524   2.157   1.417 -0.0311  0.2373  0.0306
10190W        W25999   8.085   1.416  14.986 -0.0227 -0.0754 -0.1218
10191W        W26000   7.069   7.790   4.737 -0.1427  0.3058  0.2207
10192W        W26001   0.000  17.973   1.975  0.0077 -0.0213 -0.2061
10193W        W26002   5.301  12.796  14.726  0.0041 -0.2990  0.1452
10194W        W26003  17.222  15.344   0.860  0.0502 -0.0021  0.1369
10195W        W26004   3.415  12.599  12.045  0.0733  0.1073  0.1435
10196W        W26005  17.886   3.017   2.872  0.0475 -0.1883 -0.0477
10197W        W26006  15.909   9.846   1.955  0.2594  0.2140  0.0399
10198W        W26007  10.326  11.149  12.856  0.2580 -0.1577 -0.1974
10199W        W26008  10.490  17.850   4.366  0.0566  0.1071  0.3071
10200W        W26009   6.203   0.656   1.305 -0.1933 -0.2777  0.1863
10201W        W26010  16.485  18.325  12.913 -0.0697  0.1026  0.1974
10202W        W26011   5.707   7.324   2.808 -0.1978  0.0287 -0.5599
10203W        W26012   0.020  12.605  13.084  0.2508  0.1490 -0.0055
10204W        W26013   9.266   9.933  10.861  0.1029  0.0605 -0.1602
10205W        W26014  11.163   3.259  10.937  0.0078  0.3305  0.2617
10206W        W26015  17.018   1.249   3.375 -0.1363  0.1105 -0.2090
10207W        W26016   5.129   4.043  14.834 -0.1148 -0.3308  0.0686
10208W        W26017   1.392   2.573   4.809 -0.0416  0.2862 -0.2391
10209W        W26018   0.014  14.321  14.932 -0.0542 -0.4439 -0.1039
10210W        W26019   7.067   7.223  11.014  0.0094  0.1215  0.2248
10211W        W26020  17.804   6.960  10.823  0.3057 -0.1185  0.0214
10212W        W26021  15.239  14.219   3.710  0.2444 -0.1012 -0.0709
10213W        W26022  13.631  14.527  13.798  0.0790  0.1642 -0.1452
10214W        W26023  13.790  15.160   1.666 -0.1732 -0.0536  0.0811
10215W        W26024  17.005  14.627   3.830  0.0711  0.1427  0.1250
10216W        W26025   8.386  13.636  15.557 -0.0042  0.1418 -0.1434
10217W        W26026  18.246  14.771   3.394 -0.1432 -0.1364  0.1424
10218W        W26027  14.631  10.724   4.421 -0.1294  0.2873  0.1659
10219W        W26028   0.896   6.281   4.412  0.2279 -0.0355 -0.1380
10220W        W26029   9.371   9.480   4.626 -0.3046  0.2249  0.1939
10221W        W26030  16.232  11.082   4.153  0.0608  0.1207  0.0519
10222W        W26031   7.516  12.863   9.788  0.3444 -0.1052  0.1112
10223W        W26032  10.160   9.047  12.403 -0.1654  0.1067 -0.1625
10224W        W26033  16.943   1.749  11.017 -0.1727  0.2773  0.0647
10225W        W26034  15.579   4.865  14.640  0.1636 -0.1319  0.2398
10226W        W26035   6.480   6.145  12.295 -0.0673  0.0327  0.2244
10227W        W26036  10.825  16.245  14.238 -0.0165  0.0460  0.0179
10228W        W26037   8.942   1.404  11.369  0.2689 -0.0384  0.3280
10229W        W26038   9.009   8.499   4.733 -0.2718  0.1338  0.2842
10230W        W26039   2.949  16.043  14.585 -0.0501  0.0549  0.1767
10231W        W26040  14.038   4.534  11.969  0.2265  0.1938  0.0618
10232W        W26041   4.936  12.565  15.552  0.0583  0.1282  0.1529
10233W        W26042  14.846  17.880   0.415 -0.0200  0.1003 -0.1082
10234W        W26043   6.859  14.527   4.643 -0.1387  0.1412 -0.1462
10235W        W26044  13.844   9.341   2.478  0.0449  0.1489 -0.0113
10236W        W26045  12.290  13.531   0.760 -0.0159  0.0395 -0.0834
10237W        W26046   9.101   4.987   1.475 -0.0428  0.0875  0.1805
10238W        W26047   1.066   1.887   4.165  0.0547 -0.1635  0.0509
10239W        W26048   6.233  16.558   4.311 -0.0047  0.0996  0.1739
10240W        W26049   2.251   5.108   1.226  0.0133 -0.0802  0.2217
10241W        W26050  18.062   5.921   2.582 -0.1882  0.1832  0.0182
10242W        W26051  16.679   0.512  15.412  0.3429  0.3242 -0.0560
10243W        W26052  10.708   8.622   4.682 -0.1754  0.1863  0.0156
10244W        W26053   8.309  11.986  10.489 -0.2575  0.0188  0.2298
10245W        W26054   3.057   5.697  11.930  0.0127 -0.0138  0.2238
10246W        W26055  11.668   3.908   2.956 -0.1418 -0.0177 -0.5193
10247W        W26056  13.184  14.464  12.553  0.3523 -0.3434 -0.3428
10248W        W26057  13.615  13.715  12.723  0.1247  0.2605 -0.1797
10249W        W26058   6.037  14.155   0.194 -0.0494  0.0440  0.0265
10250W        W26059   7.979   6.039   4.067  0.0525  0.0032  0.0031
10251W        W26060   0.725   8.822   2.327  0.1124  0.1024 -0.0925
10252W        W26061  18.213  14.506  14.750  0.1091 -0.0460  0.0229
10253W        W26062   8.659   0.462   4.851  0.0656  0.0539  0.2121
10254W        W26063  16.880  17.438  12.710 -0.2250 -0.1536  0.0259
10255W        W26064  16.685  16.860  10.995  0.2021  0.0531 -0.1362
10256W        W26065  14.667  10.640  14.618 -0.0465  0.0276 -0.0329
10257W        W26066  14.111   9.985  12.210  0.0270 -0.0968 -0.2111
10258W        W26067   3.460   8.865  12.815  0.0912  0.2747 -0.1473
10259W        W26068  14.373   4.599  15.142  0.0698  0.1179 -0.1910
10260W        W26069   4.160   0.744  15.070 -0.2675  0.3074  0.1569
10261W        W26070   0.455   2.502   4.678 -0.3524  0.0455 -0.4371
10262W        W26071  10.815   4.924   3.160  0.1730  0.4504  0.0099
10263W        W26072   4.879  11.940   1.110 -0.2068 -0.2614 -0.1049
10264W        W26073   9.125   4.213   1.732  0.1375  0.0632 -0.0165
10265W        W26074   3.321  13.998  10.279 -0.2818 -0.1169 -0.1521
10266W        W26075   7.366   5.259   1.176 -0.2595  0.2914 -0.1429
10267W        W26076   3.384   1.444   4.064  0.0134 -0.6821  0.1533
10268W        W26077   1.534  18.098   5.052  0.0554 -0.0674  0.0358
10269W        W26078   1.670   4.674  13.553  0.0703  0.0445  0.2070
10270W        W26079   0.103   4.515  13.694 -0.0384  0.0661 -0.1518
10271W        W26080  10.573  10.599  12.856 -0.0011 -0.0649  0.4104
10272W        W26081   1.911   7.511   1.084  0.1489  0.2461 -0.0361
10273W        W26082  18.299   5.468  11.100 -0.2543  0.0190  0.0496
10274W        W26083  12.778   8.468   5.243 -0.0452  0.0221  0.0150
10275W        W26084   4.820  12.607  11.187 -0.2062  0.0523  0.1908
10276W        W26085   7.856   3.950  14.994  0.0351 -0.2031 -0.2436
10277W        W26086  10.390   1.584   0.410 -0.0949  0.0933 -0.1717
10278W        W26087  10.751  11.169  11.664 -0.0651 -0.1780 -0.3690
10279W        W26088   8.077  11.968   1.535 -0.0884  0.1281 -0.2429
10280W        W26089  16.285  11.248   3.171 -0.1868  0.2192  0.3789
10281W        W26090   1.222   8.727  13.393  0.1328  0.2605 -0.0619
10282W        W26091  15.155  16.828  10.824 -0.0217 -0.0421 -0.0790
10283W        W26092   9.401   9.825  11.985 -0.4597  0.2979  0.2009
10284W        W26093   3.930   7.915   4.599  0.0000  0.1798  0.3076
10285W        W26094   7.509   4.696  10.925 -0.1873  0.2066 -0.3096
10286W        W26095   5.796  17.005   3.902  0.0552 -0.3860 -0.0359
10287W        W26096   6.232  11.186   4.712 -0.1758 -0.2088  0.1522
10288W        W26097  12.031   4.641  12.651  0.0507 -0.2491 -0.2335
10289W        W26098  15.711   1.269   2.637 -0.1017  0.2985 -0.1103
10290W        W26099  18.657  18.389   0.527  0.3547  0.3357  0.0998
10291W        W26100   5.482  12.734   4.748  0.0060 -0.0586  0.1025
10292W        W26101   2.922  11.777   0.586 -0.0903  0.2168 -0.2878
10293W        W26102   3.754  18.170   2.891 -0.2480  0.2640 -0.2545
10294W        W26103  13.732   0.071   1.452  0.3386  0.1710 -0.0799
10295W        W26104  15.814   6.595   3.440  0.1563  0.0974 -0.2535
10296W        W26105   3.546  15.712  11.632  0.2769 -0.0379  0.0426
10297W        W26106   8.948   7.407  11.237 -0.0485  0.1038  0.2330
10298W        W26107   6.198  18.364   0.352  0.1310 -0.1767 -0.1619
10299W        W26108   3.211  13.590  15.447 -0.2606 -0.0906  0.0288
10300W        W26109  17.210  14.158   3.786  0.2148 -0.0254 -0.2334
10301W        W26110   6.854   1.669   1.390 -0.0098  0.1632  0.3143
10302W        W26111   8.499  13.617   2.929  0.1292  0.1003  0.0709
10303W        W26112  17.068   3.983  15.572  0.4155  0.0537  0.1400
10304W        W26113   8.525   9.044  12.539 -0.0930 -0.1257  0.2589
10305W        W26114  13.533  18.071   5.279  0.0150 -0.1897 -0.0611
10306W        W26115   5.548   9.298  10.249 -0.4139 -0.0038 -0.1393
10307W        W26116  12.514   6.477  14.654 -0.1630 -0.0570 -0.2879
10308W        W26117   7.127   9.761   0.615 -0.0876  0.3024 -0.1790
10309W        W26118  13.495  15.386   0.468 -0.3371 -0.1173  0.0699
10310W        W26119   8.979   7.574   1.364 -0.1830 -0.1344  0.1765
10311W        W26120  10.384   1.752   4.778  0.2141 -0.2736 -0.0386
10312W        W26121  11.416  16.056  12.240  0.1580 -0.0515  0.0137
10313W        W26122  14.253   7.949  12.082 -0.0011  0.0898 -0.1072
10314W        W26123   6.780   8.032  13.578 -0.1653  0.1870  0.1834
10315W        W26124  15.585   1.134   3.413  0.1160  0.1312 -0.3358
10316W        W26125   5.422   8.307  12.992 -0.0128 -0.1958  0.4349
10317W        W26126  13.691  12.755   3.719  0.1834  0.0888 -0.0662
10318W        W26127  18.645  12.835   0.527 -0.0909 -0.2090  0.1166
10319W        W26128   7.242   3.756   2.199  0.2877  0.1668 -0.0159
10320W        W26129   8.117   5.444   1.107 -0.2734  0.1367 -0.1852
10321W        W26130  17.871   8.274   0.974 -0.0515  0.4356  0.1312
10322W        W26131   6.203  15.408  11.104 -0.0921 -0.3121 -0.2950
10323W        W26132   6.921   8.770  14.683 -0.1201  0.0381  0.1163
10324W        W26133   1.448   8.145   3.771 -0.1058 -0.0874 -0.0331
10325W        W26134   0.907  15.294  14.423  0.0704  0.0470 -0.1234
10326W        W26135   1.948   3.156  12.086 -0.0014  0.1225 -0.2312
10327W        W26136   4.885   5.500  10.778 -0.2233  0.0903  0.1488
10328W        W26137   3.649  17.251  15.560 -0.0656 -0.4436  0.0110
10329W        W26138   4.831   6.126  14.821  0.2438  0.4007  0.3456
10330W        W26139  10.383   5.520  14.732 -0.2186 -0.0013 -0.0658
10331W        W26140   4.010   3.231  14.923  0.0163  0.1356 -0.4357
10332W        W26141   3.819  10.522   0.133  0.1297 -0.2317  0.0378
10333W        W26142  15.340   4.253   0.454 -0.1737 -0.0622  0.4178
10334W        W26143   1.592  11.974   4.594  0.1464 -0.0288  0.0855
10335W        W26144   7.096   9.104  11.952  0.3691 -0.2717 -0.1490
10336W        W26145   7.308  15.506  12.071 -0.1675  0.3548  0.1251
10337W        W26146   4.431   1.329  13.684 -0.1286  0.1026  0.0402
10338W        W26147   3.520   0.684  10.513  0.0413 -0.2377  0.2088
10339W        W26148  13.946  15.380  15.065  0.0362  0.1835  0.2340
10340W        W26149  18.182   5.195  13.018 -0.0252  0.0982 -0.2273
10341W        W26150   5.046   1.522  11.694  0.2751 -0.0165 -0.2245
10342W        W26151   6.519   1.754  15.015  0.3061 -0.1670 -0.2347
10343W        W26152  16.116  11.294  14.137 -0.0627  0.2468  0.4187
10344W        W26153   3.525  14.059   5.783 -0.1025  0.1829 -0.0416
10345W        W26154  18.501  13.320  10.634  0.3930 -0.0778  0.0337
10346W        W26155  17.530   1.846  10.848  0.1914  0.0998 -0.0752
10347W        W26156   5.247  13.152  10.020  0.3017  0.1152 -0.2146
10348W        W26157  13.111   8.974  11.589  0.0581 -0.1886  0.2415
10349W        W26158   9.533   8.955  11.651 -0.1453 -0.0052 -0.3411
10350W        W26159   1.944  17.729  15.042 -0.0348  0.1332  0.0610
10351W        W26160  17.171  17.313   3.262  0.0460  0.1771  0.2495
10352W        W26161  16.780  11.102  11.610 -0.1005 -0.0583  0.0604
10353W        W26162  13.606  13.374   1.692 -0.0042 -0.0684  0.2261
10354W        W26163  10.503   4.785   4.556 -0.0539  0.2046 -0.0724
10355W        W26164   9.037   2.893   2.481 -0.1403  0.2013  0.2226
10356W        W26165   1.033  12.595   2.790 -0.2287 -0.0783 -0.0902
10357W        W26166  17.370  12.110  13.004 -0.0790 -0.2516  0.1309
10358W        W26167  17.425   6.230   0.709 -0.2601  0.1328 -0.2177
10359W        W26168  15.106   3.601   4.748 -0.0895 -0.0591  0.2102
10360W        W26169   4.658   5.301  15.117 -0.0992 -0.0097  0.1197
10361W        W26170   5.565   2.612   3.073 -0.2451  0.1151  0.0635
10362W        W26171   0.670  11.112  12.592 -0.0256  0.0655 -0.2239
10363W        W26172   3.556  14.667  12.424  0.1066 -0.5132 -0.0333
10364W        W26173   1.030   1.476   4.448 -0.1088 -0.1285  0.0618
10365W        W26174   0.037  13.495   3.150 -0.1100 -0.3349  0.0092
10366W        W26175   7.515  11.820   0.231 -0.1370 -0.0133  0.0348
10367W        W26176   5.169  11.632  12.525  0.1243 -0.1445 -0.0820
10368W        W26177   1.503   3.389   0.668 -0.2481  0.0136  0.0718
10369W        W26178  12.425  15.880  11.188  0.0681 -0.2111  0.1379
10370W        W26179  18.085  16.561  14.556 -0.1713 -0.0978  0.1536
10371W        W26180  12.291  14.851   6.227  0.1146 -0.0296  0.2897
10372W        W26181  13.687  13.243   4.763 -0.0809  0.3048 -0.0247
10373W        W26182   0.690  15.616   2.146 -0.0054 -0.0442 -0.1362
10374W        W26183   5.797  14.942   5.369 -0.1217  0.1951 -0.0754
10375W        W26184   5.750  12.322   4.676 -0.1165  0.2228  0.1229
10376W        W26185   6.615  12.888  12.732  0.0507  0.1325  0.0855
10377W        W26186   9.556   7.676   1.841  0.0620 -0.1258  0.0890
10378W        W26187  16.288   6.235   1.987  0.0991  0.0046  0.0791
10379W        W26188   8.177   1.483  11.746  0.1071 -0.0659  0.0980
10380W        W26189  13.696  10.715   1.474 -0.2412  0.2006  0.5096
10381W        W26190  17.202  16.246  12.479 -0.0110 -0.0824 -0.0951
10382W        W26191  10.185   5.946  14.115 -0.2245  0.0988  0.0859
10383W        W26192  13.717   4.198   1.850 -0.0065  0.2565  0.1204
10384W        W26193   9.667  11.551   0.946  0.2384  0.2803  0.1523
10385W        W26194   9.014  11.529  13.772 -0.1277  0.3725  0.2883
10386W        W26195  14.429  18.342   2.522  0.0679 -0.1480  0.0484
10387W        W26196   7.532  13.445   4.214 -0.1032  0.0402  0.2574
10388W        W26197   1.089  10.569  14.320 -0.1621 -0.3187  0.2351
10389W        W26198   8.066   9.297  12.501  0.1069  0.0526  0.0691
10390W        W26199   3.900   0.348  15.129  0.0203 -0.1823  0.0759
10391W        W26200  16.156  18.345   4.536  0.2052 -0.0765 -0.1988
10392W        W26201   3.751   6.833   3.978  0.0706 -0.1194 -0.0256
10393W        W26202   4.403  10.080  10.476 -0.0865  0.0429  0.1534
10394W        W26203   2.642   8.930  10.805 -0.0003 -0.2841 -0.0676
10395W        W26204   1.137  18.505   5.802  0.0566 -0.1271  0.0118
10396W        W26205   5.693   3.005   0.816  0.1329 -0.0158  0.2333
10397W        W26206  16.046  11.517   2.617  0.1588  0.1304  0.1620
10398W        W26207   6.243  12.331   4.533  0.0652 -0.0500 -0.2111
10399W        W26208  16.399  12.218  10.821  0.0566 -0.1560  0.2464
10400W        W26209  18.047   5.362   0.930  0.1266  0.2592  0.0026
10401W        W26210   1.263   6.871  11.968 -0.0335 -0.1371 -0.1208
10402W        W26211  10.219  10.329   5.646  0.1929  0.2526  0.0776
10403W        W26212   3.816   4.038   4.324  0.1714 -0.1422 -0.4745
10404W        W26213  17.460  10.001  11.997  0.1138  0.1246 -0.0927
10405W        W26214   2.270   7.325  13.328  0.1775  0.2661  0.3285
10406W        W26215   4.934  10.176   3.192 -0.2083  0.1894  0.1023
10407W        W26216   1.161  11.602   3.665  0.1156 -0.1186 -0.0032
10408W        W26217  10.767   8.931  11.034 -0.2540  0.0146  0.0080
10409W        W26218  13.956   6.135   1.079 -0.2615 -0.0568  0.1576
10410W        W26219   4.206  17.057   0.884  0.0251 -0.0402 -0.1117
10411W        W26220  13.147   0.338   2.024 -0.1265  0.0032  0.2712
10412W        W26221  10.233   4.142  11.262 -0.0201 -0.0653  0.0913
10413W        W26222  10.427  16.152  13.952  0.0614 -0.3781  0.1388
10414W        W26223  16.160  16.554   1.136  0.0909  0.1621 -0.2080
10415W        W26224   0.806   8.308   2.937  0.0303  0.0281 -0.0678
10416W        W26225   8.232  16.792   0.336 -0.0186 -0.2809 -0.2314
10417W        W26226  15.598  15.380   1.320 -0.1229  0.0843 -0.5323
10418W        W26227   7.165  16.855   0.653  0.1442  0.1868 -0.0682
10419W        W26228   1.024  12.241  10.149  0.0846  0.2880  0.2956
10420W        W26229   2.399   2.327   0.892  0.1298 -0.1038 -0.4712
10421W        W26230  17.614   4.951  15.597 -0.1525 -0.0340 -0.0216
10422W        W26231   6.910  16.549  10.874 -0.0301  0.2091  0.0651
10423W        W26232   7.274  14.983   1.776 -0.1556 -0.0710  0.0333
10424W        W26233   6.955   8.774   1.945 -0.0708 -0.0999  0.1207
10425W        W26234  17.455   7.850  13.745 -0.3930  0.0508  0.0677
10426W        W26235  10.606  12.601   0.686  0.0610 -0.0372  0.0783
10427W        W26236   3.504   6.860  10.474 -0.3489  0.1328  0.0526
10428W        W26237  10.290  16.245   3.850  0.0130 -0.1005 -0.1193
10429W        W26238  11.128   5.945   3.171  0.1398 -0.2792 -0.0168
10430W        W26239  10.298   9.582  11.677  0.2253 -0.3546 -0.0333
10431W        W26240  17.105   8.721  12.436 -0.2734  0.1642 -0.1328
10432W        W26241   5.859  13.438   0.847 -0.0190  0.1981  0.0553
10433W        W26242   9.164   8.064  11.621  0.0659  0.0600  0.1395
10434W        W26243  15.408   4.210  15.122  0.1192 -0.0468 -0.1878
10435W        W26244  10.847   0.065  11.818  0.0073  0.0989 -0.1766
10436W        W26245   9.145  15.999  13.030 -0.1426  0.1863  0.0208
10437W        W26246  13.774  10.976   0.808 -0.0952 -0.2226 -0.0713
10438W        W26247   4.148  15.445  13.775  0.1814  0.2023 -0.0396
10439W        W26248  15.616  18.030  14.916 -0.3598 -0.1397  0.0255
10440W        W26249  13.992   7.382  15.183 -0.1827  0.1510  0.0726
10441W        W26250  10.985   1.379   1.728  0.0668  0.0991  0.0238
10442W        W26251   3.815  17.490  14.769 -0.1610 -0.2969  0.0067
10443W        W26252   9.143   6.214   1.821  0.2152  0.0521 -0.0070
10444W        W26253  17.253   8.029   1.079  0.0835  0.2814  0.0304
10445W        W26254   8.915  14.409  14.126  0.1254  0.2040  0.0578
10446W        W26255   8.915   3.931   0.106  0.0692  0.0904 -0.0967
10447W        W26256   8.798   1.792   2.090 -0.0282 -0.1775  0.0876
10448W        W26257   7.257   6.934  13.093  0.3382  0.1636  0.0647
10449W        W26258   9.789   4.736  12.060 -0.2141  0.1847 -0.2130
10450W        W26259  15.093  16.527  15.517  0.2594 -0.3175  0.0570
10451W        W26260   2.004   7.563   5.253  0.1510  0.0665 -0.0949
10452W        W26261  10.083   8.576   2.069  0.1213  0.1985  0.1027
10453W        W26262  17.750   3.505   0.607  0.0406 -0.2241 -0.0567
10454W        W26263  10.905   0.935   3.681 -0.2365  0.1708 -0.2131
10455W        W26264   9.561   3.730   1.125 -0.1995  0.0385  0.1466
10456W        W26265  16.103  15.975  10.806  0.0507  0.1745 -0.0111
10457W        W26266  15.660  18.199  14.448 -0.1750 -0.0706 -0.1260
10458W        W26267  15.573   7.924   1.762 -0.3455 -0.3800  0.1334
10459W        W26268   4.130   4.164   9.826  0.3190 -0.2144 -0.0816
10460W        W26269   9.264  14.925  12.930  0.1055  0.0775  0.0243
10461W        W26270  11.482  11.379  15.498  0.2463 -0.0903  0.0603
10462W        W26271  15.593  11.932   4.233 -0.0797  0.2996  0.1122
10463W        W26272   6.971  16.215  13.788  0.2194 -0.0294  0.0509
10464W        W26273   4.210   8.838   2.828 -0.1720 -0.0084  0.2857
10465W        W26274   2.699   0.082   3.419  0.1501 -0.0101 -0.0256
10466W        W26275  11.854   7.228  14.314 -0.0023 -0.3571 -0.0535
10467W        W26276   6.860   1.689  12.167 -0.1164 -0.1184 -0.2704
10468W        W26277   2.307   8.537   3.696 -0.2711  0.5102 -0.0887
10469W        W26278  13.819  18.242   0.077 -0.3718  0.2774  0.3749
10470W        W26279  14.107   0.612  14.932  0.3460  0.0206  0.2579
10471W        W26280   8.286   8.506   4.680 -0.0437 -0.0269 -0.0029
10472W        W26281   7.573  18.589   1.373  0.1864 -0.0683  0.0878
10473W        W26282   7.481  13.271   2.558 -0.1021 -0.1851  0.3052
10474W        W26283   2.712  16.374   3.248  0.1296  0.1676  0.1632
10475W        W26284  16.929  14.963  14.078  0.2450 -0.0975 -0.0466
10476W        W26285   7.358   8.768  12.958  0.2330  0.1552 -0.2163
10477W        W26286   6.490  15.400  14.080  0.2061  0.0970  0.0144
10478W        W26287   0.883  15.026   0.541  0.1171  0.0095  0.1462
10479W        W26288  13.242  15.053   0.124 -0.3806 -0.1283  0.0026
10480W        W26289  18.635   0.856   2.390 -0.0480 -0.1154 -0.3645
10481W        W26290   6.062   5.884  11.285  0.1585 -0.1109  0.2718
10482W        W26291   2.754   5.390   1.239 -0.1659 -0.2555 -0.2659
10483W        W26292   9.749   6.141   3.742  0.0221  0.1263  0.1738
10484W        W26293   2.104  10.210   4.120  0.3206  0.0418  0.2392
10485W        W26294   9.307   5.968   4.011  0.1528 -0.1260 -0.2127
10486W        W26295   7.999   4.613   5.436 -0.0142  0.0230  0.0644
10487W        W26296   0.281  12.918   2.286 -0.1098 -0.0626 -0.1666
10488W        W26297   1.533   6.138  10.155  0.0788  0.2010 -0.2337
10489W        W26298  11.882   0.044  13.961  0.0657  0.0188  0.1943
10490W        W26299   1.579   9.966   2.766  0.0755  0.1596 -0.0562
10491W        W26300  16.612  15.603  10.138 -0.0527  0.0776  0.0086
10492W        W26301  11.781   5.876   1.168  0.0317  0.0596 -0.1152
10493W        W26302   3.348  18.366   2.612  0.0912  0.0460 -0.2619
10494W        W26303   6.839   2.248   4.759  0.0237  0.0128 -0.1483
10495W        W26304   3.967  14.072   5.970  0.0500 -0.0609  0.1010
10496W        W26305  17.643   6.659   3.430 -0.1567  0.1014 -0.2471
10497W        W26306   4.815   1.139  15.022 -0.0818  0.0675 -0.2784
10498W        W26307   7.056  16.018   0.222 -0.2017 -0.0616  0.0831
10499W        W26308   2.561   0.842   0.058 -0.1834 -0.2079  0.2331
10500W        W26309   8.935   7.254   3.308  0.2074  0.2410  0.3551
10501W        W26310   7.441  13.079   0.384  0.0573  0.1782  0.2723
10502W        W26311   4.591  15.630  14.066  0.3767 -0.0424  0.1755
10503W        W26312  13.267   1.821   4.220 -0.2249 -0.4850  0.1088
10504W        W26313  13.971   9.712   4.708  0.0996 -0.0547 -0.0585
10505W        W26314  11.928   2.123  14.499 -0.5230  0.4066 -0.2870
10506W        W26315  17.523  15.607   3.163 -0.2200 -0.0489  0.0743
10507W        W26316  16.569  12.032   3.852 -0.0727 -0.1808  0.2925
10508W        W26317   5.903  18.377   3.866  0.1180 -0.1184  0.1301
10509W        W26318  18.110  14.208  15.586  0.2601 -0.1426  0.1994
10510W        W26319  16.457   0.840  11.208  0.2218  0.4532 -0.1847
10511W        W26320   8.731  15.570  11.907  0.0100  0.2725  0.0369
10512W        W26321   4.931  10.371  14.941 -0.2752 -0.0937 -0.0382
10513W        W26322  11.066  14.630   0.387  0.0907  0.0360 -0.1101
10514W        W26323  16.904   0.843   1.800 -0.4408 -0.1593 -0.2927
10515W        W26324  11.308  13.412   6.395 -0.0196 -0.5607 -0.1319
10516W        W26325   2.248  12.328   1.866 -0.1137  0.0582 -0.3017
10517W        W26326   2.356   8.868   5.589 -0.2012  0.1136 -0.2137
10518W        W26327   7.315  15.866   0.902 -0.0925 -0.3157 -0.0211
10519W        W26328  14.563   0.925  12.654  0.0011  0.0299  0.0879
10520W        W26329   6.439   8.541  12.286 -0.0637 -0.1766 -0.1327
10521W        W26330   7.572  17.312  13.262 -0.2042  0.1402  0.0698
10522W        W26331  15.845   2.180  12.430  0.0145  0.2444  0.2771
10523W        W26332  12.848   7.484   1.997 -0.1806 -0.1123  0.1047
10524W        W26333  12.975   1.543  12.298 -0.0505  0.2284  0.1248
10525W        W26334  15.988   2.698   6.207 -0.0527 -0.2188 -0.1978
10526W        W26335  11.287  16.297   1.817  0.0228  0.0568 -0.0179
10527W        W26336   2.842   4.850  10.985  0.0452 -0.1140  0.1736
10528W        W26337  14.785   5.052   6.008 -0.2243  0.1574  0.4936
10529W        W26338  10.095   0.819   3.762  0.0032 -0.4988  0.2368
10530W        W26339  16.808  14.915   1.542 -0.0953  0.0099  0.0852
10531W        W26340   4.767  14.778  13.544  0.2371  0.0549 -0.3344
10532W        W26341   3.553   7.369  15.172 -0.2595  0.1384  0.0448
10533W        W26342  10.065   7.962   0.552  0.1914  0.1450  0.2173
10534W        W26343  10.618  17.404  11.475 -0.3454 -0.0431  0.0403
10535W        W26344   6.856  13.738   2.929  0.1804 -0.0761 -0.4052
10536W        W26345  17.513   3.345   4.115  0.1365 -0.1793  0.1669
10537W        W26346   0.446   8.691   1.469 -0.2775  0.1421  0.1025
10538W        W26347   4.568  15.531   4.529  0.1696  0.3623 -0.2132
10539W        W26348   2.072   6.563   2.691  0.0780 -0.1635  0.0656
10540W        W26349   3.575   0.117  12.294 -0.1433  0.0558 -0.0652
10541W        W26350   5.722  12.446  12.469 -0.1385 -0.0270  0.0346
10542W        W26351  16.803   8.572   4.469 -0.0926 -0.3163  0.1364
10543W        W26352   1.799   5.812   2.210 -0.0966 -0.0005  0.0596
10544W        W26353  16.767  11.278   2.192  0.4918 -0.0939 -0.0713
10545W        W26354   1.802   3.158   4.022  0.1306  0.1125 -0.1272
10546W        W26355   0.287   2.304  11.242  0.1506  0.3176 -0.0366
10547W        W26356  10.606  17.658  12.112 -0.2969  0.1416 -0.2122
10548W        W26357  12.269  15.417   4.225  0.1602 -0.1491 -0.0073
10549W        W26358  17.560   9.611   4.494 -0.2362  0.1656  0.0107
10550W        W26359  14.772   7.351   3.210  0.0084  0.0895  0.3277
10551W        W26360  17.428  10.928  14.599 -0.0903 -0.1600  0.3935
10552W        W26361   1.626   1.970  13.943  0.5072  0.1343 -0.1326
10553W        W26362   5.711   3.522   2.093 -0.1011 -0.0522 -0.2866
10554W        W26363  15.564   7.365  13.910 -0.1143 -0.0595 -0.0545
10555W        W26364  13.966   9.998  13.112 -0.0037  0.3168  0.0560
10556W        W26365  15.451   5.067   4.850 -0.2939  0.3305  0.0324
10557W        W26366   2.993  13.997  10.969 -0.1925  0.4718  0.3739
10558W        W26367   4.399  12.547  13.048  0.0439 -0.1755 -0.1119
10559W        W26368   8.439  14.890   0.759 -0.2517 -0.0259  0.0594
10560W        W26369  18.227   5.086   9.246 -0.2926 -0.1868 -0.0577
10561W        W26370   4.108  13.299  12.614 -0.0379 -0.0973 -0.2409
10562W        W26371   7.717   8.142  15.617 -0.0008  0.1245  0.0439
10563W        W26372  15.898  14.259  13.889  0.2758 -0.1200 -0.3952
10564W        W26373  10.437   7.106  13.884  0.0473  0.1407 -0.0599
10565W        W26374  14.062  16.978  13.216  0.0897  0.0682  0.1071
10566W        W26375   5.602   1.173  12.790  0.0691 -0.2004 -0.2214
10567W        W26376  14.465  16.448   1.904  0.1410 -0.3111  0.2810
10568W        W26377  13.543   1.884   2.928 -0.1953  0.0463 -0.0297
10569W        W26378   3.708   8.102  13.784  0.1384  0.1201  0.1496
10570W        W26379   0.676   6.909  13.165 -0.1000 -0.1652  0.3255
10571W        W26380   8.550  16.723  15.523 -0.0608 -0.0037 -0.0092
10572W        W26381   2.643  13.952   4.398 -0.1180 -0.3107 -0.1071
10573W        W26382  14.308   3.448   3.879 -0.1300 -0.0651 -0.0373
10574W        W26383  15.816   9.090  14.759  0.1739 -0.1446 -0.3452
10575W        W26384   6.566   4.981  13.271 -0.0310  0.1253  0.2397
10576W        W26385  12.727   3.076   1.558 -0.1588  0.0503  0.1469
10577W        W26386  11.104  12.168   4.092 -0.2193  0.0059  0.0834
10578W        W26387  17.689  13.317   2.223  0.2805  0.0379  0.2017
10579W        W26388  17.988  17.381   3.038  0.1422 -0.1558 -0.2652
10580W        W26389  14.130  12.617  15.200 -0.1687  0.0699  0.2662
10581W        W26390  13.864   9.949  14.503 -0.0408 -0.2477 -0.0230
10582W        W26391  14.251  16.001  13.598  0.0303  0.1077 -0.0104
10583W        W26392   0.934   5.407  15.105  0.1993  0.2720 -0.2402
10584W        W26393  14.397   1.102   4.301 -0.4384  0.0303 -0.0848
10585W        W26394   3.621  14.942   2.757  0.1812  0.2487 -0.0476
10586W        W26395  17.383  11.233  11.048 -0.0266 -0.0077 -0.0837
10587W        W26396  14.232   8.788  10.224  0.5276  0.3218  0.3158
10588W        W26397  11.490   2.937   2.977  0.2278  0.2024 -0.0172
10589W        W26398   8.014   1.514  10.020  0.0248  0.0572  0.2185
10590W        W26399   3.385  18.388   4.437  0.1380 -0.1335 -0.2801
10591W        W26400   8.072   7.229   4.295  0.0235  0.1193 -0.0171
10592W        W26401  13.270  11.172  12.008  0.0074  0.0753 -0.2522
10593W        W26402   6.733  16.400   0.386  0.0484 -0.0821 -0.0759
10594W        W26403   7.953  14.997  15.089 -0.0012 -0.1745 -0.2087
10595W        W26404  14.025   1.492  13.891 -0.0796  0.1631  0.1794
10596W        W26405   2.977   0.798  14.867 -0.2996  0.0649  0.0837
10597W        W26406   1.470  17.829   0.720 -0.2111 -0.2517  0.2131
10598W        W26407   6.815   2.661  13.490  0.2336 -0.0826 -0.1284
10599W        W26408  16.572   0.037  15.621  0.2008  0.2012 -0.2359
10600W        W26409  12.530   2.931   3.772 -0.2466 -0.1174  0.1231
10601W        W26410   5.549  10.191  14.284 -0.1404 -0.2287  0.0459
10602W        W26411  15.145   8.038  14.371  0.2875  0.0378  0.1897
10603W        W26412  10.641   6.257  11.251  0.0646 -0.0316 -0.1219
10604W        W26413   8.225   7.699   4.307 -0.1200 -0.1489  0.1861
10605W        W26414  13.027  10.202  15.566 -0.2168 -0.2435 -0.1300
10606W        W26415   9.957  14.271  10.703  0.0371  0.0888 -0.0296
10607W        W26416  15.250  16.268   3.714 -0.0899  0.2716  0.0709
10608W        W26417  14.266  15.083  12.185  0.0001  0.0030 -0.3750
10609W        W26418   0.089   3.848  11.545 -0.1312  0.1440  0.0495
10610W        W26419   0.611   1.595   0.668 -0.2195 -0.1857  0.3310
10611W        W26420  10.481  12.057  12.906 -0.0568  0.2181 -0.0765
10612W        W26421   8.216  10.703   0.873 -0.1256 -0.0504  0.1089
10613W        W26422   6.848  13.959  13.405  0.1223  0.1563 -0.3143
10614W        W26423  12.615  12.174   2.191 -0.2884  0.0226  0.0045
10615W        W26424  11.104   4.602  10.390 -0.4887  0.5296  0.1909
10616W        W26425   4.588   6.566  14.871 -0.1260 -0.2493  0.1154
10617W        W26426  11.791  17.201  12.669  0.4233  0.0901  0.1283
10618W        W26427   6.468   2.277   2.730  0.1202  0.1277  0.0609
10619W        W26428  17.436   8.226  14.516 -0.0649 -0.0053 -0.1422
10620W        W26429  18.439  15.413  15.124 -0.2130  0.1205  0.3293
10621W        W26430   3.964  11.883   3.647  0.2726  0.0813  0.1082
10622W        W26431   8.714  16.951   2.178 -0.1466  0.3003 -0.1744
10623W        W26432   5.862   8.783   2.005 -0.0351  0.1958 -0.4223
10624W        W26433  17.305   5.483  13.455 -0.0906  0.1439 -0.0079
10625W        W26434  18.275  16.337   2.530 -0.3505  0.0384 -0.1148
10626W        W26435  15.122  12.597  14.600 -0.2120  0.2593  0.1235
10627W        W26436   9.979  16.768   1.996 -0.0407 -0.0472 -0.2353
10628W        W26437   0.587   4.395  12.408 -0.1350 -0.0981 -0.1248
10629W        W26438   6.846  15.601  14.358  0.2102 -0.0044 -0.0492
10630W        W26439   9.367  17.556  11.441 -0.2366  0.2262 -0.1428
10631W        W26440   7.022   8.069   1.695  0.1720  0.0379  0.0670
10632W        W26441   6.226  16.030  10.755 -0.2726  0.1614  0.3901
10633W        W26442   2.022  17.100  11.562 -0.0520  0.1923  0.0336
10634W        W26443   1.744   6.719   3.594 -0.1572  0.1007 -0.0945
10635W        W26444   2.084  11.434  11.462  0.0587 -0.0371  0.0027
10636W        W26445  11.094  12.226  14.829 -0.2637  0.0348  0.0084
10637W        W26446   1.850  18.046   0.378  0.1851 -0.2022 -0.2260
10638W        W26447   0.088   0.272  12.275 -0.2045 -0.0448 -0.0216
10639W        W26448  11.217   6.382   1.941 -0.3070  0.0517 -0.0644
10640W        W26449   5.423  17.999  12.152 -0.1554  0.0684  0.2357
10641W        W26450  18.004  12.761   5.028 -0.0308  0.4486 -0.1377
10642W        W26451   5.063  11.699   2.705  0.3250  0.1086 -0.0127
10643W        W26452  14.084   3.411   0.429  0.6163 -0.0767  0.2306
10644W        W26453  13.795   5.127  12.859 -0.1138 -0.3232  0.1574
10645W        W26454  15.708   9.684  13.457 -0.1525  0.0134  0.0726
10646W        W26455   6.173  10.173  11.297 -0.2172 -0.2726 -0.1740
10647W        W26456   6.128  11.275   0.377 -0.3110 -0.0135  0.0243
10648W        W26457  14.041   4.221  14.826 -0.2659  0.3482  0.0961
10649W        W26458   5.910  12.371   1.077  0.0258  0.0937  0.1128
10650W        W26459   9.401   9.448  13.010  0.4036  0.0523 -0.0963
10651W        W26460   6.796   0.072   1.730  0.3518 -0.0543 -0.0412
10652W        W26461   5.040  11.887  13.626  0.2520  0.0197  0.0814
10653W        W26462   8.835   1.584   3.945 -0.0995 -0.0638 -0.2307
10654W        W26463   7.526   0.112   4.865 -0.2294 -0.2310 -0.0144
10655W        W26464   2.065   3.065   4.419 -0.0605 -0.1930 -0.0894
10656W        W26465   6.239  14.662  13.500 -0.1895 -0.2660 -0.0628
10657W        W26466  13.514  12.414   0.397 -0.0638  0.2750 -0.3581
10658W        W26467  13.333   8.955  14.177  0.0259 -0.1368 -0.1252
10659W        W26468  15.795  12.574  12.404  0.3939  0.0742  0.0653
10660W        W26469   5.698   8.146   5.335 -0.0957 -0.1442 -0.1391
10661W        W26470   6.161  16.092  12.830 -0.1928 -0.0227 -0.1313
10662W        W26471   8.481   7.522  13.661 -0.1289 -0.0650 -0.2404
10663W        W26472  14.203  16.305  13.943 -0.1856  0.1500 -0.2861
10664W        W26473   1.270  12.888   2.445  0.2935  0.0075  0.1898
10665W        W26474  18.441  12.431  14.789 -0.3268  0.0125 -0.4912
10666W        W26475   2.883  12.004  11.135  0.1463 -0.1006  0.2410
10667W        W26476   9.626   2.157  11.884 -0.1785 -0.0358 -0.0407
10668W        W26477   8.353  15.235  11.941 -0.1089 -0.0649 -0.0572
10669W        W26478  13.926  16.367  11.157  0.1351 -0.2440 -0.1730
10670W        W26479  18.210  16.217  14.899  0.2636  0.1389 -0.3306
10671W        W26480  14.907   2.467  12.573  0.2738 -0.4302 -0.0451
10672W        W26481  11.315   6.777   4.322  0.1352 -0.1782  0.2222
10673W        W26482  11.445  11.942   4.459  0.3585 -0.0200 -0.0467
10674W        W26483  11.243  14.246  12.806 -0.1812  0.0835  0.1753
10675W        W26484  14.155  15.158   0.957 -0.1483 -0.0034  0.0583
10676W        W26485  15.181  13.311  12.734  0.1560  0.0186  0.1614
10677W        W26486   1.936   8.106   3.830 -0.1898 -0.0302  0.0661
10678W        W26487  16.726   0.375  14.354 -0.3074 -0.1303 -0.0172
10679W        W26488   1.040  17.155   1.184 -0.0019  0.2072  0.2485
10680W        W26489   8.459  13.588  14.966  0.1463 -0.3026  0.2964
10681W        W26490   5.071   1.913   4.607 -0.0277  0.1112 -0.0566
10682W        W26491   3.751  17.439   0.344 -0.0347 -0.1544  0.0271
10683W        W26492   1.092  12.035   9.654  0.1354  0.1899  0.1228
10684W        W26493  10.354   7.930  14.406  0.1156 -0.0068 -0.0074
10685W        W26494  14.386  10.536  15.047  0.0573  0.1800 -0.0486
10686W        W26495   0.163   5.008   0.637  0.0568 -0.1353 -0.1709
10687W        W26496   4.728  10.467   0.834 -0.1067 -0.1539 -0.2843
10688W        W26497  14.687   3.969   1.072 -0.2223 -0.1120  0.1988
10689W        W26498   5.633   3.271   4.766 -0.0802 -0.0523  0.2429
10690W        W26499   5.109   3.192  14.958  0.1885  0.2609  0.0962
10691W        W26500   8.847   8.431  11.459 -0.0950 -0.0541  0.0863
10692W        W26501   1.620   6.985  12.964  0.1516  0.2500  0.1282
10693W        W26502  17.350   1.868  11.362  0.3340  0.2261 -0.1499
10694W        W26503   3.270   2.643   4.843  0.2402 -0.0770  0.1312
10695W        W26504   0.905   4.011   4.888 -0.1505 -0.2202  0.0374
10696W        W26505   0.322   2.783  10.215  0.3380 -0.3453  0.1345
10697W        W26506  12.755   4.434   1.003  0.1887 -0.1963  0.0852
10698W        W26507   1.690  10.337   2.339  0.0312 -0.1515  0.1590
10699W        W26508  14.734   9.988  13.047  0.4248 -0.0125  0.1208
10700W        W26509   4.682   7.986   4.499 -0.0848 -0.1468  0.1775
10701W        W26510   0.411  10.681  11.480 -0.2212  0.2022 -0.2291
10702W        W26511  17.233   8.605   4.697 -0.1804 -0.1537  0.2287
10703W        W26512   3.129   0.864  15.393  0.4292 -0.1656  0.2332
10704W        W26513  17.936   6.452  15.050 -0.0407 -0.0862  0.0293
10705W        W26514  12.429   9.668   1.206 -0.1571  0.0857 -0.1885
10706W        W26515  17.427   2.961   1.927 -0.0371 -0.0857  0.2754
10707W        W26516   6.755  12.844  14.836  0.0281 -0.1654  0.0405
10708W        W26517  11.176  13.912  11.574  0.2201 -0.0017  0.1412
10709W        W26518   9.080   6.920  11.401 -0.1762  0.4793 -0.0394
10710W        W26519   6.004   4.448   3.456  0.0210 -0.1772  0.0868
10711W        W26520  13.507   4.494  14.748 -0.1875 -0.1107 -0.1222
10712W        W26521   3.047   1.971   5.368 -0.0144  0.2392  0.0356
10713W        W26522   5.061  17.046  15.237  0.0379 -0.3972  0.2068
10714W        W26523  17.121   5.881  11.759  0.0858 -0.0439 -0.2145
10715W        W26524   0.904  10.853   1.307 -0.0989  0.0218  0.3291
10716W        W26525  17.538   9.984   0.860 -0.0699 -0.0072 -0.2568
10717W        W26526  14.816  11.008   5.354  0.0894 -0.1972 -0.3259
10718W        W26527   6.228   9.834   4.986 -0.1118 -0.1735  0.4663
10719W        W26528   3.132   4.233  15.125 -0.1235  0.2596  0.2616
10720W        W26529  17.049   2.859   4.505  0.2605  0.0058 -0.0143
10721W        W26530  10.700  12.201  11.039 -0.2297  0.1949  0.0170
10722W        W26531  12.519   3.020  13.096 -0.0840  0.0480  0.1295
10723W        W26532  12.103   4.397  13.242 -0.0634 -0.0684  0.1484
10724W        W26533   0.423  15.920   3.938  0.2260 -0.0387  0.1832
10725W        W26534   3.979   8.360  12.069  0.2319  0.0921 -0.0549
10726W        W26535   3.770   2.468   4.931 -0.0400  0.1442 -0.0853
10727W        W26536  16.840   7.624   4.585  0.0788 -0.5068  0.1946
10728W        W26537  18.628   6.774   1.956  0.3002 -0.0729 -0.1296
10729W        W26538  12.703   0.180   3.353 -0.1406  0.0311 -0.3018
10730W        W26539  10.785  14.723  13.583 -0.0763  0.1350 -0.2197
10731W        W26540  14.897  16.352  13.596 -0.2427  0.1259 -0.3138
10732W        W26541  17.652   0.368   2.478  0.2504 -0.1717 -0.1416
10733W        W26542  14.156  11.880  14.615  0.1622  0.0346 -0.2745
10734W        W26543   1.525   4.893   3.296 -0.2699 -0.1410  0.2107
10735W        W26544   9.048  16.678  11.789  0.1328  0.2572 -0.0458
10736W        W26545   2.095  12.228   3.793 -0.2034 -0.0811  0.1172
10737W        W26546  12.023  13.076  15.043 -0.0923  0.0925 -0.1025
10738W        W26547  14.772   8.883  13.160  0.2349 -0.2089  0.1351
10739W        W26548   8.673   5.988   2.463 -0.1143  0.0648  0.1850
10740W        W26549  10.189  16.670  12.165 -0.1009  0.0529  0.0683
10741W        W26550   0.915   8.004   4.469  0.1281 -0.1853 -0.0298
10742W        W26551  11.146  11.099   3.443  0.1236  0.0264  0.2430
10743W        W26552   5.081   3.344   5.183  0.1346  0.1587  0.0382
10744W        W26553   2.613  15.810   4.602 -0.1821  0.0807 -0.0222
10745W        W26554  15.273  11.066  13.708  0.0992  0.1710 -0.1723
10746W        W26555   6.360  14.088  14.181 -0.1063 -0.0079 -0.2124
10747W        W26556  14.664  14.991   5.051 -0.0844 -0.0248 -0.0765
10748W        W26557  13.813  14.357   0.105  0.1701 -0.0756  0.0500
10749W        W26558  11.555   6.397  13.700 -0.3111 -0.0432 -0.1674
10750W        W26559  17.164   0.288   1.037 -0.0373 -0.2951 -0.2279
10751W        W26560   5.977  13.988   2.231  0.1844  0.0638 -0.3831
10752W        W26561   2.367   7.006  13.752 -0.0784 -0.0505 -0.0868
10753W        W26562   6.094  10.863   1.985 -0.2329 -0.1568  0.4470
10754W        W26563  11.699   6.109   0.679  0.0445  0.1348 -0.0851
10755W        W26564   9.470   1.853  13.947 -0.0294  0.0212 -0.0244
10756W        W26565   8.781  15.723   4.798 -0.1274 -0.0200 -0.0639
10757W        W26566  10.123  12.565   2.736  0.1359  0.0644 -0.1168
10758W        W26567   1.975  15.217   3.652 -0.1327  0.0426  0.2007
10759W        W26568  15.609  14.686  13.824 -0.2273  0.0106 -0.1931
10760W        W26569  17.705   7.646   9.998  0.0165  0.0828  0.0596
10761W        W26570   1.165  16.643  11.989 -0.0331  0.0149  0.0625
10762W        W26571   3.065  10.426  15.066  0.2182 -0.1310  0.2624
10763W        W26572   3.379  11.764  13.541 -0.1874 -0.4694 -0.1253
10764W        W26573  15.521  11.402  12.214 -0.0538  0.0648  0.1492
10765W        W26574   4.197   0.991  12.414 -0.0387 -0.1478 -0.2009
10766W        W26575   8.965  15.670  13.444  0.0745 -0.0242 -0.0953
10767W        W26576  16.274   8.173   1.511  0.1593  0.1984  0.0581
10768W        W26577  11.446   4.741   5.051 -0.0949  0.1632  0.0879
10769W        W26578   1.267   4.619  12.876  0.2455  0.2600  0.3254
10770W        W26579   9.959   9.349   3.317 -0.0510 -0.0597 -0.0221
10771W        W26580  17.533  14.748   3.778  0.1993 -0.1734 -0.2280
10772W        W26581   2.617   5.559   3.074 -0.1610  0.1254  0.1772
10773W        W26582  16.604  10.453  13.837 -0.1129  0.3351 -0.0673
10774W        W26583   0.898   9.752   0.287  0.1927 -0.2017 -0.1610
10775W        W26584  15.704   9.128   2.409 -0.2833 -0.1750 -0.0855
10776W        W26585   3.716   2.849  13.996  0.3080  0.0824 -0.2149
10777W        W26586   5.378  15.150   0.439  0.1028 -0.1138  0.0587
10778W        W26587  15.287   9.731   4.236 -0.2160 -0.4489  0.2799
10779W        W26588  17.429   6.998   4.703  0.0046 -0.2177  0.1462
10780W        W26589   4.893  16.421   4.674  0.2024  0.2428 -0.0542
10781W        W26590  17.610  12.093  12.522 -0.0730 -0.2375 -0.3026
10782W        W26591  12.596   0.751  15.148 -0.1027  0.2753 -0.0966
10783W        W26592  12.297   2.327  14.845  0.2186  0.0460 -0.2949
10784W        W26593   6.060   3.456   4.511  0.0366 -0.0906 -0.0038
10785W        W26594  18.433   2.082   2.864  0.0037  0.2385  0.2601
10786W        W26595  16.183  10.220   4.240 -0.1493  0.0438  0.0905
10787W        W26596   8.882  13.423   1.502  0.1446 -0.1108 -0.0998
10788W        W26597  14.485   6.746   4.832  0.0800  0.3217  0.1580
10789W        W26598  11.815  11.092  13.593  0.1052  0.0929 -0.0681
10790W        W26599   6.939  10.099   3.499 -0.1847  0.1127 -0.1659
10791W        W26600   0.884   7.130  10.703 -0.1457 -0.1783 -0.0897
10792W        W26601   5.727  10.167  10.997 -0.2643 -0.2263 -0.3216
10793W        W26602  15.524   7.864  13.686 -0.0541  0.1672 -0.1042
10794W        W26603  15.321  16.930   0.102  0.2432 -0.2338  0.1726
10795W        W26604  14.292  10.007   3.574  0.1794  0.3195  0.0162
10796W        W26605  14.072   2.143   0.768 -0.1752 -0.2701  0.1295
10797W        W26606  10.064   6.823   4.198  0.0702 -0.0003  0.1692
10798W        W26607   8.250   9.410  15.173  0.2923  0.1152 -0.0107
10799W        W26608   6.808   1.950   2.946 -0.1325 -0.1269 -0.0721
10800W        W26609   7.637  14.158   2.756  0.0736  0.1313 -0.0614
10801W        W26610   4.798   0.760  14.557 -0.1972 -0.0190  0.2803
10802W        W26611   8.861  11.421   1.919  0.0530  0.3389 -0.3309
10803W        W26612  12.408   8.399  13.393 -0.3173  0.0674 -0.2469
10804W        W26613  14.645   4.958   1.264  0.2035 -0.4264 -0.1314
10805W        W26614   9.866   5.587  11.607  0.0672 -0.4025 -0.3202
10806W        W26615   1.262  12.831   1.903 -0.1187  0.0603 -0.3452
10807W        W26616   3.465  18.146  14.628 -0.0214 -0.0683 -0.2118
10808W        W26617   7.744   5.703  10.875  0.2937 -0.1683  0.0082
10809W        W26618   7.109  10.677  13.236  0.1629  0.0759 -0.1944
10810W        W26619   6.110   1.589   4.827  0.1990  0.0179  0.1552
10811W        W26620   8.316  15.242  12.862  0.0714  0.1331 -0.2676
10812W        W26621  12.991  10.901  10.341 -0.1091  0.2125 -0.1754
10813W        W26622   5.504  11.303  15.253 -0.0851 -0.1704  0.5297
10814W        W26623   8.688  12.892  10.462 -0.2488 -0.0469  0.0668
10815W        W26624  17.936   1.231  12.869 -0.1462 -0.0692 -0.0216
10816W        W26625  10.411   5.609  13.849 -0.0608 -0.1895 -0.0877
10817W        W26626  11.805  10.221   4.618 -0.0556 -0.2554  0.1890
10818W        W26627  16.292  11.905  14.064 -0.1106 -0.4046 -0.2112
10819W        W26628   8.478   1.629   5.867 -0.4149  0.0059 -0.1297
10820W        W26629  16.992  11.172   3.697  0.0702  0.1776  0.1689
10821W        W26630   0.846   9.277   3.252  0.1060  0.0293 -0.3853
10822W        W26631  16.751   5.664   0.699  0.2297 -0.0362  0.2606
10823W        W26632   1.225   5.776   2.925 -0.0103  0.0406  0.1571
10824W        W26633  15.060  12.848  12.542  0.0671 -0.1073 -0.5180
10825W        W26634  14.209   4.689   2.702  0.1746  0.4079  0.0140
10826W        W26635  16.111   2.857  13.829  0.2625  0.1431 -0.0315
10827W        W26636  10.235   3.051  14.226 -0.0810  0.0223  0.0879
10828W        W26637  11.928  18.500   5.418  0.0304  0.3126 -0.2087
10829W        W26638  14.207  11.199  12.976  0.0785 -0.0800  0.1130
10830W        W26639   1.301   0.650  14.728 -0.0447 -0.0605 -0.0310
10831W        W26640  13.763  11.482   1.732  0.0011  0.1492  0.1292
10832W        W26641  14.822  17.921  10.313  0.0083 -0.0537  0.2176
10833W        W26642   0.962  16.330   4.273 -0.1901  0.2590 -0.1980
10834W        W26643  10.998  14.484   4.377 -0.0646 -0.1089 -0.0585
10835W        W26644   4.672  14.861   2.163  0.0507  0.2674  0.0886
10836W        W26645   6.125   0.674   0.303 -0.4715  0.1909  0.0037
10837W        W26646  15.788  16.754   0.177  0.0889 -0.1921  0.0562
10838W        W26647   3.809  11.890   2.797  0.0954 -0.2064  0.1776
10839W        W26648   8.865   1.606  14.747 -0.0251  0.1897 -0.2956
10840W        W26649   8.167   9.313   3.244  0.1502  0.0589  0.0260
10841W        W26650   9.741   7.675  14.152 -0.0696  0.4008  0.1016
10842W        W26651   5.055  14.835   3.248  0.0219 -0.0634 -0.3725
10843W        W26652  13.948  10.653   2.365  0.1688 -0.0319 -0.1502
10844W        W26653   1.357  16.394  15.360 -0.0974  0.2247 -0.0233
10845W        W26654  16.076  11.773  11.664  0.2469  0.2140 -0.2488
10846W        W26655   9.835  11.466   1.516 -0.0203 -0.2028  0.0754
10847W        W26656   0.118   6.433  14.115 -0.0395 -0.0887 -0.0758
10848W        W26657  10.177   6.789  15.321 -0.0715  0.1300 -0.1273
10849W        W26658   1.244   3.152   2.466 -0.0538 -0.1611 -0.2911
10850W        W26659  16.892   7.672   0.208 -0.2097 -0.2581 -0.1718
10851W        W26660  12.791   6.113   0.329 -0.1296 -0.1339  0.2217
10852W        W26661  11.876   2.122   2.918 -0.0718  0.2310 -0.0037
10853W        W26662  12.147   0.298   3.494 -0.1189 -0.0572 -0.1123
10854W        W26663  11.382  11.587  11.065 -0.2031  0.2086 -0.0315
10855W        W26664   0.453  14.152  15.100  0.0897 -0.3404  0.0679
10856W        W26665   8.788   0.816   2.810  0.2389 -0.1601  0.0422
10857W        W26666  12.238  10.953  10.978 -0.1846  0.2235 -0.1155
10858W        W26667   2.127   9.852   2.862  0.0618  0.2922 -0.1156
10859W        W26668   9.560   7.813  11.780  0.3096  0.0356  0.0999
10860W        W26669   4.171  17.381   2.813 -0.2647  0.0370 -0.1915
10861W        W26670   5.106   8.032  12.731 -0.0367 -0.1298 -0.0239
10862W        W26671   6.616  15.794   9.878  0.1388  0.1678 -0.0796
10863W        W26672  14.008  13.035   2.230  0.1108  0.0278  0.1554
10864W        W26673   2.505  13.547  14.714  0.4126 -0.0228  0.2742
10865W        W26674  17.764   0.028   4.699 -0.0129 -0.2298  0.1616
10866W        W26675  15.235   7.528   4.135 -0.1083 -0.2935  0.0255
10867W        W26676   5.788  16.782   1.174 -0.0831 -0.2590 -0.0080
10868W        W26677  12.618  12.157   2.802 -0.0109  0.0006 -0.2506
10869W        W26678  11.465   3.888   0.746 -0.3856 -0.0940 -0.1049
10870W        W26679   3.908   9.605  13.216  0.0054 -0.1842  0.2299
10871W        W26680  16.560  17.051   1.742 -0.1049  0.2195  0.0255
10872W        W26681  10.932  12.641   5.911 -0.0282  0.0592 -0.1793
10873W        W26682   5.386  14.265  15.391  0.0726  0.1500  0.1470
10874W        W26683  16.137  12.744   0.856  0.1958  0.0902  0.1029
10875W        W26684  12.890  11.344   3.830 -0.1682  0.1195 -0.1413
10876W        W26685   7.001  12.068  11.891 -0.3444  0.3506 -0.0833
10877W        W26686  15.124  16.453   2.625  0.0983  0.0178  0.2944
10878W        W26687  14.746  12.848   3.502  0.2246  0.1402  0.0707
10879W        W26688  11.856   7.020   9.727 -0.0841 -0.2328 -0.1656
10880W        W26689   0.339  11.272   5.136 -0.0996  0.2861  0.1178
10881W        W26690   7.635   6.748   3.269  0.1392 -0.0056 -0.0695
10882W        W26691   3.810  17.752  13.842 -0.1542  0.1750 -0.1898
10883W        W26692  17.234  17.609   0.651  0.0818  0.0829 -0.1471
10884W        W26693   7.873   1.851  15.190  0.0809  0.1259 -0.0171
10885W        W26694  12.511  12.744   2.196 -0.0213  0.1859 -0.2969
10886W        W26695   2.576  16.794   1.438 -0.0049 -0.2628 -0.0265
10887W        W26696  12.699   8.582  14.278  0.1058 -0.1744 -0.1611
10888W        W26697   6.389   9.709   0.914 -0.1822 -0.0736 -0.0866
10889W        W26698  18.220   5.884  13.829 -0.1961  0.3187 -0.1108
10890W        W26699  10.314  12.570   1.866  0.1085  0.0383  0.2763
10891W        W26700  15.857  17.870   1.761  0.1911 -0.0167  0.0105
10892W        W26701  15.510  12.747   4.224  0.1507 -0.0964  0.0777
10893W        W26702   0.917  12.922  12.929  0.0705 -0.0667  0.2407
10894W        W26703   4.172  10.456   3.287  0.1078 -0.0829 -0.1614
10895W        W26704   7.636  17.205   4.011  0.0871  0.2985 -0.0231
10896W        W26705  14.118   8.274   5.496 -0.1086 -0.2954  0.1792
10897W        W26706  12.977   4.596  10.873  0.1615 -0.0744  0.0827
10898W        W26707   6.180  10.732  14.120  0.0277 -0.2896  0.0725
10899W        W26708  12.472  14.608   1.156 -0.2371 -0.1840 -0.1120
10900W        W26709  10.710   6.797   1.844  0.3900  0.0860  0.0240
10901W        W26710   9.468   9.127  10.517 -0.3904  0.0788  0.2204
10902W        W26711   1.736   5.340  13.211 -0.3007  0.0030 -0.1023
10903W        W26712  10.087   3.892   4.294  0.1068  0.1675 -0.1578
10904W        W26713  15.768   8.340  13.711 -0.1623  0.4540 -0.0848
10905W        W26714  10.546  10.951   4.435 -0.0411 -0.1766 -0.0702
10906W        W26715  15.644  10.693   4.539  0.2454 -0.2906  0.1003
10907W        W26716   6.235  13.222  12.640  0.1463  0.0227 -0.0362
10908W        W26717   2.259  14.035   1.796  0.0472  0.0117 -0.2349
10909W        W26718  12.795   5.362   1.442 -0.1698  0.2843 -0.1190
10910W        W26719   8.034  11.820   3.543 -0.4775  0.1545  0.1602
10911W        W26720  17.121   6.968  12.159  0.1440 -0.0493 -0.1039
10912W        W26721  11.938  10.382   2.185 -0.1235  0.1076 -0.1977
10913W        W26722  18.617   4.462   9.905  0.0975 -0.0139 -0.1074
10914W        W26723   5.020  10.669   4.157 -0.2844 -0.1216 -0.4298
10915W        W26724   9.350  15.319   3.178  0.0878  0.1692  0.0227
10916W        W26725  15.504   7.592   2.948  0.0656  0.3144 -0.0116
10917W        W26726   6.854   6.171  10.866 -0.0580 -0.0055 -0.4430
10918W        W26727   1.054   6.506   0.480 -0.2748 -0.2216 -0.1233
10919W        W26728  15.914   7.860  12.051 -0.1907 -0.2336  0.1025
10920W        W26729   6.106   2.331   2.347  0.3906 -0.0760  0.0700
10921W        W26730   9.569   3.883  12.774 -0.2361 -0.3588  0.2331
10922W        W26731   6.213   8.755  11.534  0.0385 -0.0856 -0.0590
10923W        W26732  10.856  14.084  11.142  0.2115 -0.3308  0.1086
10924W        W26733  13.566   6.458  14.656  0.2383 -0.1741 -0.0174
10925W        W26734   8.446   3.446   3.139  0.0151 -0.1423 -0.2481
10926W        W26735   4.212  11.197   4.709  0.0506 -0.0766  0.1473
10927W        W26736   1.499   5.508   2.512 -0.1562  0.1249  0.2833
10928W        W26737   3.972   4.186  12.910 -0.0706 -0.2764 -0.2796
10929W        W26738  13.268   3.796   4.584 -0.1682  0.2139  0.1941
10930W        W26739  14.145  13.437   1.501 -0.0720 -0.0568  0.1025
10931W        W26740   3.941   7.462   1.906  0.0929 -0.1710  0.1051
10932W        W26741  12.858   9.470   1.997  0.1743 -0.0341  0.0349
10933W        W26742  10.681   9.693   3.208 -0.1496  0.1895 -0.3665
10934W        W26743  12.389   8.023  15.168 -0.0686 -0.1506 -0.1227
10935W        W26744   1.378  14.110  14.218 -0.1293  0.0811 -0.0693
10936W        W26745  18.567  16.499   0.530 -0.2432 -0.1197 -0.2504
10937W        W26746  12.068   3.683   2.529 -0.2790 -0.2936  0.1794
10938W        W26747  17.087  16.594   2.317 -0.0463 -0.1987  0.0417
10939W        W26748  18.494   0.454  13.463  0.1206  0.2010  0.2316
10940W        W26749  15.050  14.346   5.467 -0.3769 -0.2136  0.2348
10941W        W26750   1.246  17.930  10.367 -0.0260  0.1152 -0.2015
10942W        W26751  18.037  10.004   0.127  0.0361  0.0325 -0.1131
10943W        W26752  12.683  16.479  11.685  0.3639  0.0615 -0.1311
10944W        W26753   3.392   3.533  10.492 -0.1324 -0.1011 -0.0551
10945W        W26754  15.456  17.572  14.369  0.2394  0.0954  0.1793
10946W        W26755  13.791   5.072   0.231  0.1853 -0.2327 -0.2252
10947W        W26756   2.743  13.839   2.147  0.2951  0.3778  0.0168
10948W        W26757  12.094  13.463   2.980 -0.0327  0.1832 -0.2145
10949W        W26758   3.837  15.362   5.264 -0.0050  0.2071  0.2138
10950W        W26759   8.768   7.107   3.723 -0.0402 -0.0178  0.0242
10951W        W26760   2.161   3.575   2.738 -0.1212 -0.3608 -0.4149
10952W        W26761   1.481   0.076  11.023  0.0351  0.1333 -0.1848
10953W        W26762  10.665  17.916   2.493 -0.1581  0.2438  0.1043
10954W        W26763   4.989   3.978   3.836 -0.0520  0.0086 -0.0148
10955W        W26764  11.871  12.264  12.613 -0.2789  0.4926 -0.1845
10956W        W26765  16.405  12.471  11.269 -0.1564 -0.0919  0.1862
10957W        W26766  17.001  11.418  13.584  0.1868 -0.3157 -0.1784
10958W        W26767   3.209  15.128   3.113  0.1111 -0.4539  0.0689
10959W        W26768  10.180   1.507  13.064 -0.1085 -0.1395 -0.0692
10960W        W26769   1.710   2.945  10.933 -0.1426  0.0149  0.0549
10961W        W26770  17.845   9.998   5.220  0.3614  0.0106 -0.0050
10962W        W26771  16.719  12.398   4.458 -0.0727 -0.1149  0.0408
10963W        W26772  14.758  13.584  14.123 -0.0688 -0.0899  0.1211
10964W        W26773  11.562   6.064  11.134  0.0029  0.1005  0.0884
10965W        W26774  17.487  11.911   2.603 -0.1193  0.1003 -0.0211
10966W        W26775   3.285   5.428  12.974 -0.0595  0.5053  0.2989
10967W        W26776   2.049   4.684   3.464 -0.1679 -0.1052 -0.1434
10968W        W26777   2.801   8.284   3.033 -0.1319 -0.0763 -0.0414
10969W        W26778   8.481   8.665   0.384  0.2706  0.0816 -0.1236
10970W        W26779   5.675  16.929  14.829 -0.2114 -0.0882 -0.0522
10971W        W26780  11.338  11.194  13.842  0.1777  0.4151 -0.2036
10972W        W26781  10.462  18.413   4.034  0.5130 -0.3935  0.0592
10973W        W26782   2.765   5.667  10.059 -0.0011  0.3535 -0.0990
10974W        W26783   2.652   3.685  10.488 -0.2232 -0.0708  0.0412
10975W        W26784   6.029  12.101   0.211  0.0979  0.2712  0.1436
10976W        W26785  14.146   0.895   9.992 -0.1742 -0.2635  0.2996
10977W        W26786   0.801   8.519  14.427 -0.0733  0.1670 -0.0279
10978W        W26787  17.701   2.029   1.738 -0.1790 -0.1914 -0.1320
10979W        W26788   7.933   0.534   6.378 -0.3003 -0.1883  0.0118
10980W        W26789  11.738  15.139   4.418  0.0040 -0.0477  0.1478
10981W        W26790   6.860  12.603   2.965  0.0407  0.2166  0.0211
10982W        W26791   1.127   9.391   4.256 -0.1129 -0.0715  0.0359
10983W        W26792   6.137   1.294  10.627  0.3296  0.4677  0.0004
10984W        W26793   4.652   5.157   2.620 -0.5179  0.5426 -0.1096
10985W        W26794   7.316   1.224  13.679  0.0498  0.1759  0.1796
10986W        W26795   3.492   3.317  14.018  0.0930 -0.1652 -0.1664
10987W        W26796  15.159   4.715   2.172 -0.4538 -0.0084  0.0613
10988W        W26797  14.859   9.158   1.367  0.0408  0.2851  0.2029
10989W        W26798  13.481  18.301   1.389 -0.1154 -0.1542  0.2453
10990W        W26799   6.523  13.893   3.427  0.0501 -0.0455  0.0303
10991W        W26800   1.561  15.378   3.319 -0.1723  0.0731  0.3557
10992W        W26801  10.961  13.334  12.853  0.0126 -0.0154 -0.3215
10993W        W26802  16.233   4.004  11.040  0.3734  0.0766  0.0939
10994W        W26803  11.768  12.791  12.251  0.3094  0.1103  0.1173
10995W        W26804   9.293  10.424   3.951  0.1177 -0.1657  0.0379
10996W        W26805   7.358  17.788   0.501 -0.1915 -0.0417  0.2476
10997W        W26806   0.958   7.335   0.980  0.3755 -0.0593  0.0046
10998W        W26807  16.728   6.819  14.748 -0.0941 -0.1135 -0.1059
10999W        W26808   4.676  12.917   2.625 -0.1859  0.0966  0.1892
11000W        W26809   5.502   4.366   1.180  0.0949  0.0902 -0.1636
11001W        W26810  10.846   5.436   5.419  0.0751  0.0401  0.1415
11002W        W26811   7.678  11.311  14.221 -0.2021  0.0309 -0.0354
11003W        W26812   7.985  13.851   3.539 -0.0026 -0.0423 -0.5497
11004W        W26813   8.603  12.028  11.489 -0.1227  0.1458  0.2007
11005W        W26814  15.669   7.242   4.132  0.0945 -0.1146 -0.1732
11006W        W26815  13.296  16.674   2.179  0.1652 -0.0667  0.2642
11007W        W26816   7.169  12.675   5.355  0.2913  0.0153  0.0715
11008W        W26817   1.717   3.520   2.568 -0.0456  0.0971 -0.2322
11009W        W26818  16.672  10.963  12.495  0.1705 -0.0459 -0.2205
11010W        W26819  15.795  15.797   0.604  0.3374 -0.3032  0.1775
11011W        W26820  16.934   7.723  11.838  0.1868 -0.0015  0.0535
11012W        W26821  17.738   6.505  14.465  0.1145 -0.5241 -0.0324
11013W        W26822  18.034   8.997  11.422  0.0850  0.0297 -0.1669
11014W        W26823  12.268  14.839   5.145 -0.0151 -0.1430 -0.4793
11015W        W26824  15.213   4.699   0.745 -0.0112 -0.0826 -0.0896
11016W        W26825   9.915   3.536   0.088 -0.1349  0.0059  0.0812
11017W        W26826   1.860   6.195   1.510  0.0007  0.3330 -0.4245
11018W        W26827   1.463   9.195  11.162  0.1896 -0.0487  0.0182
11019W        W26828   8.978   7.230  14.598  0.2971 -0.0381 -0.3173
11020W        W26829   3.342   9.319   0.394 -0.0779 -0.0960 -0.3808
11021W        W26830  15.958  10.237  12.787  0.0659 -0.0385  0.0655
11022W        W26831   2.865  15.142  12.907  0.0457 -0.1407 -0.2132
11023W        W26832   7.177  10.177   5.228 -0.1684 -0.0632  0.1005
11024W        W26833  13.213  10.134   3.234  0.1936  0.1095  0.2525
11025W        W26834   8.008  16.763   4.931 -0.1337  0.0618 -0.0211
11026W        W26835   1.676  17.331  11.214  0.0009  0.0626 -0.0103
11027W        W26836   2.260  11.088   1.235 -0.2611  0.1553  0.0713
11028W        W26837  17.026  12.794  11.311  0.1027 -0.2294 -0.0227
11029W        W26838  17.939  11.260   1.890  0.0966 -0.0466  0.3413
11030W        W26839  14.283   5.554  14.549  0.1527  0.1031  0.0141
11031W        W26840   2.018   1.738  10.981 -0.0588 -0.0849 -0.0403
11032W        W26841   5.997   4.392   5.718 -0.0817  0.1232  0.0730
11033W        W26842  16.352   2.941  12.357 -0.1807  0.0269 -0.0513
11034W        W26843  13.268  15.942  13.949 -0.4376  0.0144  0.0103
11035W        W26844  18.194  10.106   2.359 -0.0706  0.1086 -0.3557
11036W        W26845  14.657   3.163   0.452  0.0730 -0.2361  0.0523
11037W        W26846   7.587  12.711   1.172  0.2085  0.4128  0.3071
11038W        W26847   3.713   8.186   3.413  0.0581 -0.0263  0.0159
11039W        W26848   6.863  11.232  13.139 -0.0742  0.2522  0.0688
11040W        W26849  13.608   0.948  12.765 -0.1179  0.0488 -0.1539
11041W        W26850  17.427  14.656   3.297 -0.0782 -0.2132  0.0283
11042W        W26851  13.491  17.461  14.654 -0.1895 -0.1965 -0.2516
11043W        W26852  15.628  10.875  10.665 -0.0040 -0.0542 -0.1689
11044W        W26853  12.314  15.496   1.354  0.3262 -0.3826 -0.2830
11045W        W26854   4.468   8.151   5.733 -0.0170  0.1946  0.0728
11046W        W26855  16.894   3.438  11.938 -0.1120  0.0864  0.0764
11047W        W26856   4.847   6.559   3.576 -0.0552  0.2186  0.0588
11048W        W26857   2.342  13.425  11.739 -0.3278 -0.0556  0.0436
11049W        W26858   4.846   1.709  14.102 -0.0353  0.3267 -0.1116
11050W        W26859   6.492  18.297  10.276  0.0668  0.3039  0.1098
11051W        W26860   0.559   5.200   2.968  0.2043  0.2231 -0.0833
11052W        W26861   2.350  11.610  13.730 -0.0812  0.0274 -0.1378
11053W        W26862   6.151   2.383  11.789  0.2508 -0.1851 -0.0368
11054W        W26863   9.854  18.109  11.906  0.2970  0.1841 -0.1008
11055W        W26864   0.975   1.324  13.138 -0.1602  0.0905  0.0237
11056W        W26865   8.754   8.316  10.940 -0.1650  0.0330 -0.0621
11057W        W26866  12.987  10.485  12.077 -0.1849  0.0444 -0.4863
11058W        W26867   7.436   5.759   4.611 -0.1410  0.2365  0.0972
11059W        W26868  13.841   4.300   1.358 -0.1363 -0.2971  0.0890
11060W        W26869   4.728  13.813   0.269 -0.1027  0.1620 -0.1922
11061W        W26870  14.762   2.959  12.634 -0.2295  0.0035  0.1203
11062W        W26871   2.232  10.302  14.620 -0.0129 -0.0134  0.0678
11063W        W26872   5.262   2.291   4.951 -0.0483  0.1635  0.2529
11064W        W26873   4.931  13.490   1.380 -0.2204 -0.0878  0.0052
11065W        W26874  18.297  14.086  11.327  0.1507 -0.0902  0.0048
11066W        W26875  11.461  15.612  11.590  0.2219 -0.2499  0.0602
11067W        W26876   2.847   9.000   0.688 -0.2722 -0.2689  0.0880
11068W        W26877   8.734   5.479   2.186 -0.0541  0.0293  0.0825
11069W        W26878  17.910  17.322  10.902  0.1309 -0.1266 -0.0550
11070W        W26879   9.700  18.624  12.417  0.0379 -0.0852 -0.1315
11071W        W26880   3.383  17.018   0.589  0.0550 -0.2157 -0.0626
11072W        W26881   3.293  16.773  14.758 -0.0456  0.0779 -0.2712
11073W        W26882   1.033   2.421   0.762  0.0716  0.1352  0.3457
11074W        W26883   8.745   7.305   2.367 -0.0382  0.0445  0.2190
11075W        W26884   4.523   3.653  15.509 -0.2827  0.0054  0.0004
11076W        W26885   0.746  13.470   1.278  0.1858 -0.1316  0.2126
11077W        W26886   6.480   3.658   3.569  0.1960  0.0478  0.0828
11078W        W26887  10.825   0.701  11.651  0.2086  0.1401  0.2834
11079W        W26888  16.900   3.022   2.885  0.1993  0.2720 -0.1110
11080W        W26889   7.004  10.373  11.066  0.0461 -0.1722  0.0340
11081W        W26890   4.137   9.160  14.313  0.4174 -0.0537 -0.0663
11082W        W26891  11.089   0.341   0.574  0.1007 -0.1569 -0.2680
11083W        W26892  13.837   3.976  12.051 -0.0307 -0.0528 -0.1017
11084W        W26893  11.787   4.441   3.657  0.0331  0.1331  0.0607
11085W        W26894   9.232  15.027   0.203  0.1072  0.1533  0.0542
11086W        W26895   5.660   8.921   1.074  0.2501 -0.1559 -0.1527
11087W        W26896  13.525   6.896  13.836  0.0514  0.2328 -0.2503
11088W        W26897  11.181  17.297  13.684 -0.2063  0.2330 -0.0365
11089W        W26898   2.087  12.533  10.992  0.2354  0.1041 -0.3972
11090W        W26899   8.481  17.774   3.352  0.0474 -0.2770  0.1480
11091W        W26900   9.395   4.893   2.156 -0.2010 -0.4285 -0.1222
11092W        W26901  11.341  18.429  13.024 -0.0232  0.1847  0.3094
11093W        W26902   7.471  13.682  12.656 -0.1661  0.0469 -0.0671
11094W        W26903   3.407   8.090   0.888  0.0428 -0.0044  0.0415
11095W        W26904   2.687  13.172   1.470  0.0551 -0.0387 -0.0454
11096W        W26905  11.219  16.920  15.390  0.0515  0.2009 -0.1567
11097W        W26906   5.483  10.732   1.208 -0.0993  0.1331  0.0674
11098W        W26907   9.769  18.063   5.669 -0.0092  0.0636  0.0860
11099W        W26908   1.966   9.929   0.028 -0.0404 -0.1338  0.0406
11100W        W26909   9.475  16.121   1.628 -0.1008 -0.2125  0.1093
11101W        W26910  15.430   5.844  11.127 -0.0493  0.0872 -0.2956
11102W        W26911   0.005  16.788   4.994  0.4514 -0.0474  0.0461
11103W        W26912  14.667  12.207  14.590  0.1243  0.2703  0.1110
11104W        W26913   6.534   0.898  12.311  0.1740 -0.0019  0.1247
11105W        W26914   5.552   1.748   4.656  0.2590 -0.0174 -0.0914
11106W        W26915   1.796   1.225  11.960 -0.0372  0.0843 -0.4579
11107W        W26916   6.376   5.132  13.932 -0.1058  0.2357 -0.2188
11108W        W26917   4.896   6.987  14.201 -0.1066 -0.0825  0.2561
11109W        W26918   3.358  12.786  13.868  0.0355 -0.0933  0.0922
11110W        W26919  10.852   1.346   2.529 -0.0091  0.0026  0.0623
11111W        W26920   6.898  13.620   5.160 -0.0017  0.0886  0.1836
11112W        W26921  16.365   1.405  15.472  0.0391  0.3345  0.0847
11113W        W26922   5.811   6.847  12.328  0.0595  0.1594 -0.0542
11114W        W26923   7.034   7.612  13.850 -0.1143  0.1421 -0.1158
11115W        W26924  16.056   1.696  11.117  0.3239 -0.3811 -0.1380
11116W        W26925  12.829  17.974   5.049 -0.0129  0.3994 -0.0352
11117W        W26926   7.552   5.559  14.333  0.2698 -0.0668 -0.0915
11118W        W26927  18.150   7.250  15.554 -0.1443  0.0140  0.1161
11119W        W26928  17.482   3.893  12.731  0.0715 -0.1207  0.0271
11120W        W26929   3.848   7.316  11.615 -0.2377 -0.0679  0.1570
11121W        W26930  14.747  15.796   0.502  0.1168 -0.1213 -0.0578
11122W        W26931  18.331  18.541   0.043  0.1593  0.0583 -0.1371
11123W        W26932  16.774  12.193   2.200  0.0236  0.2394 -0.1334
11124W        W26933   1.633   0.830   1.867  0.3935 -0.1757  0.2019
11125W        W26934  10.728  17.876  13.386 -0.1267 -0.0986 -0.3292
11126W        W26935   1.416  11.411  10.448 -0.1536  0.0560  0.0171
11127W        W26936  13.643   6.716  12.520 -0.1539  0.2707  0.0381
11128W        W26937   3.940   6.414   4.896  0.0736  0.0220 -0.0896
11129W        W26938  10.014   5.192  13.875  0.1450  0.0151  0.2524
11130W        W26939   5.774  16.450   3.183 -0.0233 -0.2955  0.1520
11131W        W26940  10.851  11.791   1.755  0.0485  0.2688  0.1733
11132W        W26941  10.847  12.341   2.586  0.1932 -0.0504  0.0849
11133W        W26942   0.142  16.732  10.835 -0.1196 -0.0571  0.0333
11134W        W26943   1.615   2.985  13.420 -0.2155 -0.2629 -0.0410
11135W        W26944   7.585  13.974  14.883  0.0530  0.1072 -0.4434
11136W        W26945  13.146  17.170   1.401  0.0792 -0.2068  0.2302
11137W        W26946   2.861  14.010  10.015 -0.2903 -0.0918 -0.0018
11138W        W26947   2.848   2.258  12.389 -0.0067  0.1221 -0.0018
11139W        W26948   3.473  13.045  12.599 -0.0315 -0.0849 -0.1005
11140W        W26949  16.224   0.217   1.786  0.6051  0.1503 -0.0581
11141W        W26950  17.898   4.517  12.357  0.1751 -0.2152 -0.0422
11142W        W26951   9.085   5.910   2.232  0.0836 -0.3741  0.2680
11143W        W26952   9.463  12.960   5.189  0.1360  0.2428  0.0675
11144W        W26953   9.664   9.807  12.423  0.0436 -0.3048  0.0358
11145W        W26954   3.909  12.931   0.463 -0.0530 -0.2578  0.4597
11146W        W26955   0.517  10.458  13.600  0.0089  0.1879  0.1285
11147W        W26956   2.452   5.883  11.083 -0.2982  0.0476  0.1799
11148W        W26957  14.777  11.419  14.050 -0.1996 -0.4382  0.4292
11149W        W26958   2.601   5.912  15.280  0.1709 -0.2143  0.0780
11150W        W26959  11.680  11.861   2.783  0.0339  0.2624 -0.2322
11151W        W26960   9.671  16.371   5.520 -0.1531 -0.1422 -0.0243
11152W        W26961   6.432  11.209   2.100  0.0460 -0.0430 -0.0070
11153W        W26962  14.931   3.856   2.080 -0.0792  0.0644 -0.0286
11154W        W26963  15.789  15.279   2.371  0.0381 -0.3294 -0.1071
11155W        W26964   7.609   7.118  12.699  0.1572 -0.0277  0.0313
11156W        W26965  13.044   5.678  13.386  0.1009  0.1114  0.0332
11157W        W26966   5.039  13.439  13.059  0.3357 -0.1357 -0.1853
11158W        W26967   2.366  17.148   0.278 -0.2269 -0.2317  0.2613
11159W        W26968   5.941   4.523  12.849 -0.2332  0.0576  0.1685
11160W        W26969   4.579   7.330   0.589  0.1625 -0.0769 -0.0341
11161W        W26970  17.364  14.152  10.348  0.0647 -0.1670 -0.0509
11162W        W26971   0.628  11.193  13.169  0.2971 -0.1224 -0.1599
11163W        W26972   1.351  13.460  10.727  0.1378  0.0302  0.1329
11164W        W26973  16.844  14.347   2.014 -0.0826 -0.1769  0.2279
11165W        W26974  15.789  11.194  14.489  0.3858  0.0301 -0.2392
11166W        W26975  12.445  15.040   1.932 -0.2547 -0.0307  0.5813
11167W        W26976  16.716  16.523  12.659 -0.1694 -0.0867  0.1821
11168W        W26977   2.830  17.432  14.609  0.0013  0.0348  0.2706
11169W        W26978   2.533  17.280  11.163 -0.0076 -0.1850  0.1891
11170W        W26979  13.915  11.916   3.550 -0.1733 -0.0480  0.0302
11171W        W26980   8.082  17.765   4.678 -0.0771  0.1260 -0.1657
11172W        W26981  15.518   6.543   1.367 -0.0880 -0.1009  0.0501
11173W        W26982   1.150  11.158   3.405  0.0480  0.0490 -0.0646
11174W        W26983  17.085   8.865  14.141 -0.2085 -0.3249 -0.1264
11175W        W26984   9.018   4.192   0.574 -0.1080 -0.0526  0.2584
11176W        W26985  12.367   7.724   1.784  0.3117 -0.1181  0.1996
11177W        W26986   3.159  13.192  12.988 -0.2973 -0.3929 -0.0986
11178W        W26987  17.558   9.939  11.447  0.0225 -0.1127 -0.1463
11179W        W26988  17.127  11.326  12.520  0.0292 -0.1106 -0.0245
11180W        W26989  16.001  14.307   1.955  0.0223 -0.0427 -0.1351
11181W        W26990  18.067   9.895   0.666 -0.1041  0.0764  0.0148
11182W        W26991   1.067   0.193   2.124 -0.1657  0.0509 -0.1423
11183W        W26992  14.330   3.266   2.830  0.1207  0.3110  0.1863
11184W        W26993  18.659  17.058   0.291  0.2459 -0.1222  0.0664
11185W        W26994   3.931   3.379  13.233  0.1037 -0.1037  0.2519
11186W        W26995   9.915   6.884  11.462  0.1913  0.0557 -0.1081
11187W        W26996   4.669  12.716  11.640  0.1101 -0.1896 -0.5779
11188W        W26997  15.213  13.687   2.357  0.2439 -0.1008  0.1463
11189W        W26998  11.572  17.021  13.930 -0.0271 -0.2587  0.0146
11190W        W26999   8.062   2.250  12.301 -0.2010  0.1069 -0.3285
11191W        W27000   2.441   0.596   3.664  0.0195 -0.1378 -0.1608
11192W        W27001   7.175  11.354  14.017 -0.0405  0.1875 -0.0605
11193W        W27002   6.600  17.180   1.517  0.0976 -0.0724 -0.0304
11194W        W27003   9.163   8.668  12.410  0.2912 -0.1903  0.2013
11195W        W27004  14.252   8.489   3.418  0.1810 -0.0341 -0.1086
11196W        W27005  12.653   1.209   4.746  0.0905  0.0069 -0.0342
11197W        W27006  17.773  12.983  12.935  0.0280  0.0312 -0.3105
11198W        W27007   6.941   7.992   0.036  0.0725 -0.2963  0.0139
11199W        W27008  18.113   3.060  12.254  0.1054 -0.0469 -0.1736
11200W        W27009   6.890   3.366  11.853 -0.1492 -0.1349  0.4025
11201W        W27010  16.094   2.569  12.558  0.1918  0.2014  0.0773
11202W        W27011   2.710   1.990   4.983  0.1527 -0.1736  0.2724
11203W        W27012   4.333   6.855   1.219  0.2176  0.0350 -0.1848
11204W        W27013   2.802  18.005  13.493 -0.2550  0.1262  0.2289
11205W        W27014   9.807  17.691  14.440  0.0659 -0.0727 -0.1911
11206W        W27015  11.961   5.964   5.130  0.4858 -0.0206  0.0456
11207W        W27016   7.318  17.588   3.958 -0.0312  0.2127  0.0603
11208W        W27017  11.338   1.632   4.789 -0.0699  0.0707 -0.2665
11209W        W27018  14.748   5.543  15.478 -0.1563 -0.0234 -0.0612
11210W        W27019  16.375  18.642   3.059  0.0351 -0.1528 -0.0662
11211W        W27020  14.222   8.170   0.041  0.0765 -0.2870 -0.2263
11212W        W27021  14.596   9.147  11.418  0.0873 -0.0624  0.0739
11213W        W27022   6.637   3.972   1.903 -0.1090  0.0285 -0.2809
11214W        W27023  10.840  17.284  15.267  0.3068 -0.0089 -0.0177
11215W        W27024  15.863  14.327   2.471  0.1415  0.2980  0.0671
11216W        W27025  12.682  13.590   1.958 -0.2881 -0.1799 -0.1027
11217W        W27026   8.557   9.997   0.415  0.2311 -0.2478 -0.1257
11218W        W27027  14.043   2.332  14.042  0.0318  0.1349  0.0052
11219W        W27028   4.856   3.905   1.521  0.0894 -0.1986  0.1085
11220W        W27029  13.103  13.462   3.244 -0.1822 -0.1406 -0.2720
11221W        W27030   7.913  10.846  10.115  0.0396  0.0625 -0.2466
11222W        W27031  17.890  13.816  11.215 -0.2480  0.0356 -0.2143
11223W        W27032  13.604  15.106   3.103 -0.1605  0.0437 -0.0478
11224W        W27033   1.890  17.386   3.764 -0.1313 -0.0896 -0.0145
11225W        W27034   2.791   6.372   1.330  0.1877 -0.1485  0.0550
11226W        W27035   5.931  13.528  12.933  0.1156 -0.0296  0.0630
11227W        W27036   9.506  15.354  12.141 -0.2866 -0.0935 -0.0495
11228W        W27037   5.716   7.208   0.799 -0.0363  0.3308  0.0500
11229W        W27038  14.374   8.927  15.040 -0.0441  0.2154 -0.0200
11230W        W27039   2.671  12.162   2.179 -0.1614  0.1884  0.2283
11231W        W27040  15.341   8.825  13.077  0.0883  0.0028  0.3023
11232W        W27041   2.281   2.934  14.974  0.0565 -0.0294  0.0323
11233W        W27042  10.736  11.469  13.689 -0.2407  0.1769 -0.0864
11234W        W27043   2.825  15.593   1.340 -0.0642  0.0476  0.0345
11235W        W27044   1.815   0.206  12.511  0.0304 -0.0228 -0.5640
11236W        W27045  12.004  14.503  11.750  0.0025  0.0615 -0.0412
11237W        W27046   0.965   4.790  10.764  0.0378  0.2878  0.0063
11238W        W27047   5.365   8.376   4.394  0.0357 -0.1565  0.1254
11239W        W27048  17.058   0.822   0.313  0.2663  0.1833 -0.0523
11240W        W27049  15.647   3.917   3.129 -0.1191  0.1208  0.1360
11241W        W27050   4.496  11.351  12.860  0.0244 -0.0984  0.2923
11242W        W27051   4.692  18.516   5.079  0.2921  0.1608 -0.1662
11243W        W27052  11.811   8.431  13.929  0.0513 -0.1171  0.0314
11244W        W27053  17.670  10.989   0.107 -0.0896 -0.0045  0.0174
11245W        W27054  17.479   0.667  13.764  0.2150 -0.2317  0.0326
11246W        W27055  10.798   4.990  11.747  0.3182  0.2038  0.0021
11247W        W27056  14.456  13.038   5.830 -0.1070 -0.1509 -0.0821
11248W        W27057   4.895  18.129   4.781  0.3466 -0.4047 -0.1445
11249W        W27058   7.526  17.517  12.776  0.1474 -0.1118 -0.1213
11250W        W27059  16.413   2.918  13.450 -0.1345 -0.3061 -0.0712
11251W        W27060   5.340   7.008  12.242 -0.0194 -0.0322 -0.4090
11252W        W27061   5.050   0.375   5.116 -0.0202 -0.0252  0.2789
11253W        W27062  13.239   9.615  15.490  0.1332  0.2406 -0.1750
11254W        W27063   0.120  15.874   0.694  0.2654 -0.0402  0.0388
11255W        W27064   0.285  12.715  11.307 -0.0715  0.0984  0.2088
11256W        W27065  11.073   7.707  13.695  0.1545  0.1734 -0.1700
11257W        W27066   1.387   9.753   4.831  0.2425  0.3091  0.0236
11258W        W27067   4.275  12.817   3.155 -0.0018  0.2833  0.0868
11259W        W27068   6.373  12.382  13.722  0.1290 -0.1208 -0.1247
11260W        W27069  10.329   5.001  15.492 -0.1293  0.1128 -0.1541
11261W        W27070  13.174  14.427  14.087 -0.2246  0.0891  0.0028
11262W        W27071   0.024   0.445   9.882 -0.2916 -0.0675 -0.0530
11263W        W27072   2.160   2.117   4.827 -0.0714 -0.1018 -0.1269
11264W        W27073  13.296  13.292   2.536  0.1455  0.3167 -0.0463
11265W        W27074   1.489  16.047  13.761 -0.1496 -0.1609 -0.0079
11266W        W27075   3.944   6.062  11.270  0.1499  0.1880 -0.2590
11267W        W27076   4.897   4.625  12.803  0.1475  0.1698 -0.0683
11268W        W27077  17.021   3.899   2.004  0.0000  0.0580 -0.1710
11269W        W27078   8.115  13.221   4.513  0.1738 -0.3813  0.0158
11270W        W27079   9.144  10.552   1.902 -0.1205  0.0526  0.1376
11271W        W27080   8.370  18.515   0.797  0.0425 -0.3093  0.0965
11272W        W27081   9.962  15.011  13.413 -0.1566  0.0811 -0.0342
11273W        W27082   1.007   3.768   4.439 -0.2227  0.0422 -0.4039
11274W        W27083  17.799  12.642   1.576 -0.5454  0.1560 -0.1675
11275W        W27084   0.716  16.686  11.541 -0.1308  0.0149  0.1303
11276W        W27085  17.247   6.637  10.072  0.1974  0.0915 -0.1080
11277W        W27086  12.606  14.866   3.889  0.1177  0.3210 -0.0330
11278W        W27087  12.120  16.343  15.593 -0.1283  0.1452  0.0373
11279W        W27088  14.446   8.548  12.972  0.1758  0.1203  0.1078
11280W        W27089  16.593   0.521   1.606 -0.2266  0.2714  0.0320
11281W        W27090   3.457  11.011  11.429  0.0118  0.1263  0.0544
11282W        W27091   5.526  12.511   0.056  0.0303  0.1223 -0.0241
11283W        W27092  11.328  17.680  12.062  0.1869 -0.0361 -0.0018
11284W        W27093   1.984   9.907   2.389  0.2057 -0.0421 -0.2382
11285W        W27094   8.809   7.724   3.655  0.1142  0.1154  0.0909
11286W        W27095  16.380  14.929  13.129  0.2318  0.0457  0.2059
11287W        W27096   1.846   4.289   2.072  0.2995  0.0041 -0.0838
11288W        W27097  17.130  17.627  14.564 -0.2304 -0.2774  0.1204
11289W        W27098   6.233   3.628  15.473  0.1586  0.3081  0.6662
11290W        W27099   7.379  12.531   0.600 -0.3414  0.0525  0.0759
11291W        W27100   1.328   2.075   1.029  0.1417 -0.0692 -0.1565
11292W        W27101   9.473  16.931  15.594  0.2777 -0.4304 -0.1266
11293W        W27102  11.953   1.676   2.582  0.1919  0.0071  0.2642
11294W        W27103  14.558  11.739   4.388  0.1102 -0.0935 -0.0487
11295W        W27104   4.763   5.679   3.369 -0.1474  0.0720  0.0919
11296W        W27105   1.678   9.543   3.608 -0.0745  0.2269  0.3568
11297W        W27106  14.888   6.594   0.655 -0.2178  0.1001  0.0824
11298W        W27107  16.412   1.029   6.130  0.0968 -0.3806  0.1575
11299W        W27108  10.119   4.674   4.898  0.1334 -0.0429  0.0856
11300W        W27109  15.263   2.522   1.092  0.0881  0.3489 -0.1900
11301W        W27110   8.429  16.139   1.737 -0.1464  0.0277 -0.1575
11302W        W27111   3.947  11.334   1.925 -0.1037  0.2352 -0.1450
11303W        W27112   4.257  17.916   2.939  0.1867  0.1445 -0.0624
11304W        W27113  13.604   4.720  11.598  0.1988  0.1595  0.0618
11305W        W27114   1.748   5.584   0.139 -0.2871 -0.1380  0.2195
11306W        W27115  15.131   0.092  14.999  0.1026  0.4445  0.0897
11307W        W27116  12.894  12.816   5.366  0.0895 -0.0888  0.1392
11308W        W27117   6.585   8.018   1.475 -0.1036  0.1720 -0.0210
11309W        W27118  18.440   4.373  13.149  0.0442 -0.2315  0.0085
11310W        W27119   2.583   1.384   0.046  0.0016 -0.2886 -0.0327
11311W        W27120   0.789   7.065  13.928  0.2851 -0.0222 -0.2476
11312W        W27121   5.741  16.000  15.078  0.1498  0.0180  0.0632
11313W        W27122   7.805   1.417  13.764 -0.2703  0.1931 -0.2877
11314W        W27123  12.191   7.901  11.452  0.1815 -0.1060 -0.1870
11315W        W27124   7.502  16.036  14.898  0.1224  0.1992  0.5171
11316W        W27125  17.560  15.514   1.462  0.0008  0.0076  0.3743
11317W        W27126   3.653   1.059  12.929 -0.2032  0.0629 -0.3633
11318W        W27127  11.826  18.134   4.059  0.0403 -0.0833  0.0253
11319W        W27128  17.069  16.111  11.334  0.1343  0.1967  0.1888
11320W        W27129  11.369   7.759  13.288 -0.0421  0.1795 -0.0495
11321W        W27130  11.403  11.998  15.402 -0.0591 -0.4772 -0.1490
11322W        W27131   3.924   1.934  14.307  0.0888  0.0974  0.0410
11323W        W27132   1.011  16.127  10.866  0.1373  0.0411 -0.2385
11324W        W27133  10.438  16.890  15.475  0.0029  0.0287  0.1091
11325W        W27134   3.911   6.443   1.347 -0.1022 -0.1788  0.3159
11326W        W27135   6.159  17.361   1.768 -0.0130 -0.2386  0.2788
11327W        W27136   4.261  13.748   1.685  0.1352  0.1259 -0.1113
11328W        W27137  12.333   6.495   1.581  0.3119 -0.2952  0.0383
11329W        W27138  10.572  15.807   3.807  0.1922 -0.0499 -0.2675
11330W        W27139   3.650   6.860  15.083  0.0035 -0.0554  0.1152
11331W        W27140   0.332   5.471  10.348  0.0140  0.1796 -0.2413
11332W        W27141  10.590   1.865   3.439  0.0542  0.1227 -0.1610
11333W        W27142  14.905   5.856   0.956  0.1776 -0.3810  0.1262
11334W        W27143   6.714   8.143   4.476 -0.1305  0.4397  0.1424
11335W        W27144   9.964   8.341   1.676  0.1051  0.0223  0.1534
11336W        W27145  16.937   3.485  15.613  0.1881  0.0201  0.1880
11337W        W27146  18.320  13.077  14.902  0.0158  0.0565  0.1157
11338W        W27147   6.534  15.705   0.188  0.1225  0.3015 -0.1382
11339W        W27148  13.642  17.140   3.105  0.3551  0.0721  0.2705
11340W        W27149  11.254   8.575   0.722  0.1515  0.2766  0.1196
11341W        W27150  10.195  15.051   3.589  0.1953  0.1182  0.1696
11342W        W27151  13.272  15.546   5.266 -0.1896  0.1955 -0.0056
11343W        W27152   7.242  14.780   5.217 -0.0765 -0.1878 -0.1258
11344W        W27153   9.068   3.548  13.969  0.2014 -0.1558  0.1168
11345W        W27154   3.730   8.291   0.241 -0.0622  0.0415 -0.1582
11346W        W27155   1.448  10.042   0.917 -0.1846  0.1326 -0.0421
11347W        W27156  14.119  16.498   0.226 -0.0676 -0.3278  0.0485
11348W        W27157  10.410   0.305   5.206  0.0757  0.0275  0.2256
11349W        W27158  15.672  10.255  13.232  0.2150 -0.2197 -0.0750
11350W        W27159   4.261   1.129  11.585 -0.3865  0.3863  0.2877
11351W        W27160   0.800  14.501   3.863 -0.2755  0.2604 -0.6199
11352W        W27161   2.828   4.270   1.073  0.1858  0.2632 -0.3171
11353W        W27162   2.089  18.385  10.680  0.0018 -0.2089  0.0284
11354W        W27163  17.103  16.297  11.805  0.1039  0.1398  0.0691
11355W        W27164   5.631   8.644   3.046  0.1696  0.1381  0.1839
11356W        W27165   5.989   4.796   4.382  0.2545 -0.2080 -0.3562
11357W        W27166   5.711  12.246  14.234  0.1636  0.0929 -0.2019
11358W        W27167  16.953  15.487  13.098 -0.1336 -0.0573  0.1954
11359W        W27168  17.238   2.539   0.017 -0.1193  0.3125  0.2844
11360W        W27169  13.572  17.371  11.988  0.1269  0.0736 -0.1802
11361W        W27170   7.944   2.070  11.336  0.1050  0.1753 -0.2004
11362W        W27171  17.334   3.676  13.516 -0.0126 -0.1506 -0.0185
11363W        W27172   5.318   6.335  10.442  0.1051 -0.0037 -0.1251
11364W        W27173   0.125  17.386  15.406 -0.1355 -0.0573 -0.1737
11365W        W27174  15.088   8.813  10.910 -0.0288  0.1139  0.2561
11366W        W27175  16.505   1.755   4.943 -0.1039  0.1240  0.3236
11367W        W27176   9.442  18.304   0.971 -0.1973 -0.1842  0.1032
11368W        W27177  11.254  16.633  13.583  0.5436  0.2388 -0.1052
11369W        W27178   1.333  14.421   1.536 -0.1505 -0.1826 -0.0394
11370W        W27179  11.026   1.795   2.534 -0.0542  0.1608 -0.0459
11371W        W27180   4.745  14.612   3.556  0.2795  0.0655  0.3864
11372W        W27181   5.599  11.501   4.076  0.0314 -0.3225 -0.1259
11373W        W27182   6.572  10.618   5.295  0.1342 -0.3597  0.2285
11374W        W27183   6.191  15.057  13.888  0.3605  0.2354 -0.0663
11375W        W27184   1.317  14.445  14.635 -0.0090  0.1200 -0.0404
11376W        W27185   9.189   1.395  13.225 -0.1147 -0.4152 -0.1867
11377W        W27186  11.153   7.425   5.260  0.0353  0.1808 -0.2052
11378W        W27187  16.150  13.735  13.479  0.0368 -0.0830 -0.0758
11379W        W27188  14.861  11.270  14.825  0.1169  0.2588 -0.0011
11380W        W27189   8.232   4.150   1.302 -0.2112  0.0261 -0.1091
11381W        W27190   9.221   9.741   2.163 -0.0155  0.1240 -0.0215
11382W        W27191   6.572  16.229  11.013 -0.3069 -0.2073 -0.0293
11383W        W27192   2.251  16.408   1.271  0.3419 -0.1673 -0.1746
11384W        W27193   9.407   5.393  13.035 -0.0392  0.0194 -0.0694
11385W        W27194  11.355  10.208   3.901  0.0670  0.4835 -0.0706
11386W        W27195  17.732   5.308   3.566 -0.0236 -0.0961  0.2193
11387W        W27196  15.834  13.533   1.820 -0.0337  0.2306  0.2219
11388W        W27197  16.517   6.445   2.878  0.1555 -0.0158 -0.3654
11389W        W27198  14.885   4.611   4.214 -0.2432  0.2451 -0.1642
11390W        W27199  17.690   7.290   5.072 -0.1756  0.0820 -0.1249
11391W        W27200   0.594   6.705  15.376 -0.0583 -0.4846  0.0371
11392W        W27201   9.964   3.438   3.518  0.1082 -0.2011 -0.1435
11393W        W27202   9.304   2.618   5.145  0.0077  0.0891  0.1754
11394W        W27203  14.580   5.041   5.454 -0.2525  0.1554  0.3026
11395W        W27204  15.146  15.731  11.551 -0.1239  0.0935 -0.0471
11396W        W27205  15.334  17.445  11.798  0.1369 -0.0420 -0.0897
11397W        W27206  17.550   7.109   9.994  0.0374  0.0245  0.2197
11398W        W27207   2.967  17.048  12.675  0.2200  0.1701  0.0853
11399W        W27208   3.958  11.034  11.480  0.1924  0.1427  0.1968
11400W        W27209   9.176  14.559  15.509 -0.0594 -0.0149 -0.5020
11401W        W27210  12.289   1.601  13.011 -0.3057 -0.0684  0.0184
11402W        W27211  16.214  11.229  12.845 -0.0260 -0.1492  0.1285
11403W        W27212  11.492  12.771   4.724  0.0294 -0.3822  0.1711
11404W        W27213  14.889   5.453   0.551 -0.0607 -0.0905 -0.2847
11405W        W27214   4.165   2.834   1.539  0.0124  0.1481 -0.2714
11406W        W27215   4.807   1.076   9.988 -0.1284  0.0090 -0.2616
11407W        W27216   8.110   7.179  13.826 -0.4001 -0.1760  0.2091
11408W        W27217  11.919  10.878   2.163 -0.1929  0.0263 -0.3598
11409W        W27218  11.709   3.286   1.735 -0.0700  0.1238 -0.1854
11410W        W27219   4.563   0.371  12.204  0.0559  0.0467 -0.1217
11411W        W27220  11.975  13.072   5.588  0.0329 -0.1838  0.0321
11412W        W27221  16.049   4.691  13.534  0.3056 -0.0304 -0.0303
11413W        W27222   2.423   2.874  11.313 -0.1486  0.1832 -0.2439
11414W        W27223  13.069   4.457   0.543  0.0830 -0.0009  0.1048
11415W        W27224   8.779  10.964   5.031 -0.0855 -0.3369  0.5356
11416W        W27225   1.370  17.260  13.397 -0.1121 -0.0066 -0.3049
11417W        W27226   5.653   6.547   5.243  0.1783 -0.0586  0.1437
11418W        W27227  18.355  13.675  12.233  0.0105 -0.1759  0.1687
11419W        W27228   4.277  12.263  11.816 -0.0614  0.0817 -0.0662
11420W        W27229  10.051  18.189  14.212  0.0260 -0.0582 -0.3298
11421W        W27230  12.652   9.193   4.131  0.3508  0.1186 -0.1962
11422W        W27231  18.088   7.980   3.966  0.2809  0.1700  0.1207
11423W        W27232   4.287   9.145  11.888  0.1153 -0.0260  0.1452
11424W        W27233  16.080  12.307   5.434  0.3520 -0.1831 -0.0697
11425W        W27234  16.894  15.538   4.546  0.0775 -0.3081 -0.2188
11426W        W27235   4.752   5.900   0.123 -0.2193 -0.1764  0.0573
11427W        W27236   2.478  18.073  11.698  0.4628  0.0603  0.2213
11428W        W27237   6.290  14.163  10.387 -0.2154 -0.1327  0.0272
11429W        W27238   0.204   4.280  11.136  0.1337  0.1199 -0.2272
11430W        W27239   8.285  10.136  11.181 -0.0284 -0.1280  0.1586
11431W        W27240  11.395   3.990  12.559  0.0051 -0.0869  0.3529
11432W        W27241   2.753   0.726  12.145 -0.1577 -0.1181 -0.1169
11433W        W27242  15.291   7.954  15.151 -0.2183  0.1038 -0.0704
11434W        W27243   6.399  13.749   0.298  0.1053 -0.0171 -0.2087
11435W        W27244  14.145   6.808   2.456 -0.3805  0.1834 -0.4215
11436W        W27245  18.478   1.207   3.286  0.0368  0.1140  0.1281
11437W        W27246  13.573  16.408   4.296 -0.2120  0.0449 -0.0553
11438W        W27247   0.094   9.403   2.663 -0.1157  0.1025 -0.3147
11439W        W27248   4.038  16.091   4.640 -0.6508  0.2356  0.0834
11440W        W27249   9.685   8.110   3.340  0.0696 -0.2325  0.0301
11441W        W27250  16.581  11.217  10.685  0.0102 -0.2110 -0.0576
11442W        W27251  11.135  12.638  13.556  0.1267  0.1067 -0.1338
11443W        W27252   6.593   8.513  11.231 -0.1535 -0.0978 -0.0859
11444W        W27253   8.248   9.915   1.321 -0.3301 -0.0706  0.1572
11445W        W27254  13.003   6.613  12.984  0.0537  0.1083 -0.0175
11446W        W27255   2.804  14.833  14.287  0.2591  0.1157  0.1582
11447W        W27256   6.831   6.997  14.615 -0.2221  0.0445  0.3399
11448W        W27257   5.900   9.886   2.543 -0.0657  0.0001  0.0127
11449W        W27258  16.291  12.770  11.655 -0.1329  0.1706  0.2701
11450W        W27259  17.728   0.140  10.861  0.0799  0.0352  0.0258
11451W        W27260  10.740  14.470   1.182 -0.0624  0.0968 -0.2340
11452W        W27261   3.943   9.745  12.087  0.1439 -0.1146 -0.0399
11453W        W27262  12.736  14.198   3.469  0.0962  0.2852 -0.0609
11454W        W27263   1.886   7.929  14.456  0.2123 -0.1654  0.1363
11455W        W27264  17.899   2.637  12.624 -0.6258  0.0110  0.0376
11456W        W27265  16.890   1.648   4.068 -0.1143 -0.1026  0.0388
11457W        W27266   7.345   3.519   4.572 -0.1156 -0.0100  0.0599
11458W        W27267   2.401  17.751  11.339  0.0799  0.1109 -0.2229
11459W        W27268   5.618  17.038   0.785 -0.1088 -0.2317  0.2821
11460W        W27269  12.546   8.291  11.625  0.0229  0.3920  0.1571
11461W        W27270  14.306   4.612   5.673 -0.1942 -0.0795  0.0156
11462W        W27271   0.568  12.571  13.169 -0.2286  0.1758 -0.0257
11463W        W27272  17.566   0.356   0.705 -0.1366 -0.0443 -0.0531
11464W        W27273   2.708  16.384  10.600 -0.0257 -0.0369 -0.2765
11465W        W27274   6.693  15.992  12.894  0.1337 -0.1359  0.2942
11466W        W27275   2.086  13.126   0.497  0.0793  0.1374 -0.3566
11467W        W27276  12.206  13.445   5.370  0.1498  0.1467 -0.2278
11468W        W27277   3.803   5.356  10.244 -0.0539  0.2931 -0.2141
11469W        W27278   7.841  15.709  15.577 -0.0698  0.1881  0.1161
11470W        W27279   4.068   5.138   1.256 -0.4519  0.2055 -0.2588
11471W        W27280  13.599   9.976  11.243  0.3909  0.2192 -0.0526
11472W        W27281   8.667  13.195   3.217  0.0058  0.1113  0.2440
11473W        W27282  10.909   5.296  14.756 -0.0628 -0.0597 -0.1681
11474W        W27283   9.975  18.551   3.710 -0.0322  0.2197  0.4354
11475W        W27284  13.770  10.098   9.921 -0.3203  0.1092 -0.0046
11476W        W27285  18.240  15.757   1.657  0.1351  0.0334  0.3180
11477W        W27286   2.183  10.896   3.378 -0.0063  0.2204 -0.2007
11478W        W27287   1.214   8.993   3.669  0.1468 -0.1918  0.0383
11479W        W27288  18.515  17.194   2.354  0.0499 -0.2530 -0.0298
11480W        W27289  11.466   7.382  12.965 -0.1634 -0.0936 -0.1087
11481W        W27290   7.840   8.252   3.093  0.1960 -0.2501 -0.2219
11482W        W27291  10.689  14.351   2.439  0.0142 -0.0034  0.1881
11483W        W27292   0.095  15.285  14.111  0.1968  0.6533  0.3069
11484W        W27293  14.006   4.170  11.582 -0.1014  0.0664 -0.4132
11485W        W27294   1.867   0.157  10.631 -0.0634 -0.0067 -0.2629
11486W        W27295  12.302   7.441   2.611 -0.0035 -0.3668 -0.0325
11487W        W27296  11.546  17.470   1.977 -0.2796  0.2312 -0.1053
11488W        W27297  13.700  17.046   3.699 -0.0836  0.1136  0.0611
11489W        W27298   9.224   2.811   5.613  0.3336 -0.1757 -0.2597
11490W        W27299   1.131   0.102  14.555 -0.1585 -0.2259 -0.1473
11491W        W27300   0.268   2.810  11.180 -0.0306  0.0129 -0.1836
11492W        W27301   9.528  15.158  13.956  0.3001  0.2558 -0.0437
11493W        W27302   7.498  15.155  12.973 -0.1491 -0.0789  0.1310
11494W        W27303   1.899  17.467  13.588  0.1091  0.0575  0.5712
11495W        W27304   1.593   3.192   5.004 -0.0637 -0.4461  0.2725
11496W        W27305   6.266  16.413  11.383  0.0809  0.1157  0.0370
11497W        W27306   2.291   1.846  14.344  0.1304 -0.0341 -0.2067
11498W        W27307   0.535  17.422  11.890 -0.2366 -0.0797 -0.1244
11499W        W27308  11.129   4.563   3.578 -0.0919  0.1954  0.2688
11500W        W27309  18.589   9.663  10.588 -0.2296  0.0118 -0.1471
11501W        W27310  16.739   2.427   2.379  0.5552  0.0703 -0.0698
11502W        W27311   5.512  14.690   3.436  0.0170 -0.0763  0.0215
11503W        W27312  18.476   2.024   1.402 -0.4213  0.0862  0.4041
11504W        W27313  13.848  16.642   3.004  0.0098 -0.1307 -0.0471
11505W        W27314   2.931  15.156  11.375 -0.1156  0.2343 -0.3082
11506W        W27315   4.921   5.125  12.356  0.2913 -0.0698  0.0449
11507W        W27316   4.379  13.279   1.460 -0.1112 -0.1346  0.0498
11508W        W27317   0.076   9.592  11.768  0.2579  0.0152 -0.2200
11509W        W27318   0.007  17.889   0.630 -0.0009 -0.3946  0.0515
11510W        W27319   3.909  13.137  14.743 -0.0489 -0.1019 -0.1216
11511W        W27320   3.330  18.110   0.932  0.3773  0.1022  0.0337
11512W        W27321  11.656  16.365   4.757  0.3686 -0.0739  0.0719
11513W        W27322   6.805  14.454   5.222 -0.1488 -0.2481  0.2257
11514W        W27323  17.377   4.811   2.537  0.0062 -0.0801 -0.1167
11515W        W27324  11.720  18.525   2.549  0.0646  0.0800 -0.1690
11516W        W27325  11.597   5.292   3.772  0.0857  0.0070 -0.0188
11517W        W27326   5.249   0.899  14.284  0.0925 -0.0097 -0.0693
11518W        W27327   2.174  11.748  12.701 -0.1889 -0.1808 -0.0821
11519W        W27328  11.328   5.501   3.402  0.4702  0.0440 -0.0244
11520W        W27329   5.388   8.601   2.610 -0.0421  0.2390 -0.0474
11521W        W27330  17.078  11.544  10.134 -0.1262  0.1842  0.1704
11522W        W27331   0.754   6.933  14.455 -0.1440  0.3842 -0.1124
11523W        W27332   3.577   6.172   5.309 -0.1545 -0.1153 -0.1871
11524W        W27333  13.422  11.593   0.369  0.2396 -0.0907  0.0146
11525W        W27334   8.957  12.156   2.168 -0.0321  0.0946 -0.0969
11526W        W27335   0.110  10.065  14.276  0.2636  0.0358  0.1443
11527W        W27336   8.423   0.254   5.298 -0.1707  0.0293  0.0235
11528W        W27337  10.273  16.340   6.129  0.0288 -0.2194 -0.2627
11529W        W27338   2.095  18.311  14.731  0.0740  0.0661 -0.0597
11530W        W27339   9.874  17.680  15.296  0.0810  0.1151  0.1528
11531W        W27340  14.631  11.101   1.777 -0.0319 -0.0012 -0.0968
11532W        W27341   9.236   0.506  12.153 -0.4625  0.2780 -0.2100
11533W        W27342   4.693  18.195  10.963 -0.0376 -0.1540 -0.1813
11534W        W27343   5.479   2.029   0.833 -0.3093  0.0598 -0.1238
11535W        W27344  12.977  14.033  11.754 -0.3742  0.1250 -0.0956
11536W        W27345  15.553  12.305  14.735  0.1435  0.0031  0.1666
11537W        W27346  10.418  15.978   5.268 -0.3066  0.1847  0.0838
11538W        W27347  17.239  18.621   0.383  0.1121 -0.0126 -0.0278
11539W        W27348  13.555   5.940   2.829  0.2927  0.0293 -0.0653
11540W        W27349  14.512   0.270  10.961 -0.1701  0.1067  0.1658
11541W        W27350  10.211   4.451   0.574 -0.1825  0.0956  0.1292
11542W        W27351   8.048   5.234   4.238  0.1010  0.1884 -0.0466
11543W        W27352   8.890   8.853  10.914 -0.1055 -0.0445 -0.0099
11544W        W27353   8.675  11.903   1.789 -0.4288  0.0007  0.0983
11545W        W27354   2.993   3.550  12.019  0.2890  0.1926 -0.0154
11546W        W27355  17.265   6.174   1.238  0.0794 -0.2673  0.2284
11547W        W27356   8.657  16.998  13.970  0.0258  0.0250 -0.1246
11548W        W27357  15.602   5.118  11.143  0.2183  0.1945  0.0491
11549W        W27358   3.849   5.005  13.628 -0.2192  0.1125  0.0024
11550W        W27359  12.100   9.164  11.338  0.2619  0.0135  0.4259
11551W        W27360  10.188   6.252   0.804 -0.1767  0.1555 -0.1921
11552W        W27361  10.640   6.335   4.804  0.0526 -0.1820  0.0203
11553W        W27362   9.509  13.582  14.640 -0.3811 -0.2695  0.0961
11554W        W27363  16.885   2.969  11.744  0.0642  0.1783  0.0352
11555W        W27364   7.196   6.169   1.382  0.0773 -0.1644 -0.1701
11556W        W27365   7.592   4.442  15.623  0.2599  0.1019  0.1591
11557W        W27366   0.398   1.075   2.570  0.1232 -0.2010 -0.0427
11558W        W27367   6.758   9.821  14.207  0.4028  0.0930 -0.1176
11559W        W27368   6.958  15.617   3.708 -0.1703 -0.1068  0.1281
11560W        W27369   6.184   4.348  14.246  0.2214 -0.1355  0.3125
11561W        W27370   7.419  15.530   0.126  0.0023  0.1243  0.2002
11562W        W27371   0.404  16.792   4.260 -0.0462 -0.0318  0.0385
11563W        W27372  12.702  13.039   1.752 -0.1048  0.1092 -0.2408
11564W        W27373   3.893  10.092  12.418 -0.4624 -0.0911 -0.1112
11565W        W27374   7.631  18.415   3.547 -0.1092 -0.0340  0.3221
11566W        W27375   6.372   5.585  11.518 -0.2403 -0.2789  0.0620
11567W        W27376   6.701  12.333  14.095 -0.0455  0.0838 -0.0940
11568W        W27377   3.391  11.004   4.434  0.3217 -0.0515  0.0881
11569W        W27378  18.336  13.416   4.476 -0.0189  0.1620 -0.0566
11570W        W27379  15.335   6.947  13.107  0.2613  0.0606  0.2599
11571W        W27380   1.100   6.982   4.094 -0.3493  0.0888  0.4092
11572W        W27381  10.719   0.869   1.642  0.2068  0.0920  0.0550
11573W        W27382  12.162   4.450   4.534  0.0283  0.0482  0.3249
11574W        W27383   4.188  12.644   2.583 -0.2825  0.0607  0.1874
11575W        W27384   8.806  16.585  15.020 -0.2086 -0.0429 -0.0546
11576W        W27385   1.572   6.673   4.628  0.0597  0.1420 -0.1666
11577W        W27386  17.246   5.526   0.509 -0.1074  0.1856 -0.1079
11578W        W27387  11.498   7.329   1.645  0.0601 -0.0815 -0.2272
11579W        W27388   3.386  17.511   1.000  0.2367 -0.1581 -0.1785
11580W        W27389  17.913   0.145  11.756  0.0604 -0.0723 -0.3732
11581W        W27390   6.419  17.366   2.658 -0.1994  0.0266 -0.0394
11582W        W27391  12.837  18.524  15.334 -0.2729  0.0225 -0.1792
11583W        W27392  18.022  16.094  12.853  0.1121  0.0801 -0.1665
11584W        W27393   8.808   0.687  11.978  0.2077 -0.0844 -0.0486
11585W        W27394   9.890  10.579   4.132  0.0881 -0.1743  0.0298
11586W        W27395   2.650  14.418   0.942  0.3373 -0.2220  0.1724
11587W        W27396   9.826   1.527  13.851 -0.3095  0.2558 -0.1239
11588W        W27397   0.907   8.645  10.466 -0.2522 -0.0750  0.0103
11589W        W27398   6.538  13.310  11.591  0.0471  0.2414 -0.0929
11590W        W27399  13.046   0.491   0.915 -0.0637 -0.2465 -0.0470
11591W        W27400  16.701   3.150  10.480  0.0494  0.1132 -0.1362
11592W        W27401   2.575  10.630  12.005 -0.2612  0.0342  0.1457
11593W        W27402  17.596  14.458   1.629 -0.0385  0.2684 -0.0196
11594W        W27403   0.997  11.712   0.912  0.3238  0.2572 -0.1643
11595W        W27404  14.083  11.017   2.936 -0.1502 -0.1482  0.0130
11596W        W27405  13.089  10.853   2.076 -0.1323  0.1679 -0.0190
11597W        W27406   2.867   5.343  13.754  0.3550  0.1164 -0.0540
11598W        W27407   9.361  12.621   2.122  0.2939 -0.1023 -0.0488
11599W        W27408  11.801   3.695  13.182  0.0548  0.0543  0.2116
11600W        W27409  14.431  17.195  10.933  0.3137  0.0298 -0.2539
11601W        W27410  16.719   6.921   3.096 -0.0400 -0.0330 -0.2140
11602W        W27411   2.021   5.951  10.139  0.0362 -0.1419 -0.0864
11603W        W27412   9.741  11.743   3.945  0.2108  0.2367  0.3273
11604W        W27413  15.909  17.730  14.434 -0.0598 -0.0645  0.2979
11605W        W27414   6.874  17.457   4.131 -0.0841  0.0135 -0.2270
11606W        W27415  11.384  13.154  13.625 -0.0527  0.1276 -0.2362
11607W        W27416   1.380   1.003  12.185 -0.3991  0.2249 -0.2587
11608W        W27417  18.156   8.735  14.229  0.1509 -0.3106 -0.1703
11609W        W27418  16.689   4.316  15.351  0.3815  0.0828 -0.1506
11610W        W27419   6.304   9.938   2.854 -0.4205 -0.1699  0.0826
11611W        W27420  17.501   6.463  15.358 -0.1361  0.2205  0.2187
11612W        W27421  15.581  15.490  13.545  0.0761  0.0860  0.4530
11613W        W27422  11.494   4.300  15.422  0.0424 -0.1279  0.1209
11614W        W27423   1.153  18.593   1.243 -0.2363 -0.1835 -0.4146
11615W        W27424   8.987   0.110  13.425 -0.1725 -0.0116 -0.2934
11616W        W27425  12.319   7.096   4.848  0.2740 -0.0886 -0.0606
11617W        W27426   5.938   9.544   4.688  0.2572  0.0262  0.2140
11618W        W27427  10.531  17.119   3.708 -0.2327  0.1258 -0.0979
11619W        W27428   8.145   0.825  12.481 -0.1665 -0.0086  0.2248
11620W        W27429   5.880   6.321  12.131 -0.0972 -0.1452 -0.1571
11621W        W27430   2.077   7.921   1.360  0.1195  0.1686 -0.2180
11622W        W27431  13.652  10.339   0.021  0.0915 -0.1088 -0.0228
11623W        W27432   0.118   9.565  14.363 -0.2292 -0.0994  0.0489
11624W        W27433   2.726   0.578  15.288 -0.1959  0.0881 -0.0276
11625W        W27434  13.032  11.407   3.267 -0.0502  0.1548 -0.0651
11626W        W27435  17.198  16.854  10.833  0.1246 -0.1996  0.1175
11627W        W27436   1.496  13.003   2.949  0.1887  0.1166 -0.0334
11628W        W27437   2.925   4.446   4.249  0.2128  0.0914 -0.2906
11629W        W27438  11.417  13.810   5.340 -0.0248  0.1143 -0.0891
11630W        W27439  15.903   6.597   2.096 -0.0987 -0.2963  0.1321
11631W        W27440   1.699   1.195   0.602  0.3289  0.2077 -0.0237
11632W        W27441   7.207  16.022  13.192  0.4593  0.0777  0.2056
11633W        W27442   2.408   0.893  10.835  0.1802  0.1693 -0.0153
11634W        W27443   7.531   3.156   5.876  0.0282 -0.1204  0.1065
11635W        W27444  10.511   1.448  15.468  0.0205  0.1237 -0.0594
11636W        W27445   2.013   0.881   0.904  0.0887  0.0754 -0.0124
11637W        W27446  18.471   9.084  14.124  0.1591  0.1177 -0.1629
11638W        W27447  15.277   9.432   6.013 -0.0769 -0.0041  0.0628
11639W        W27448  16.487   1.693   2.073 -0.1302 -0.0106  0.1897
11640W        W27449   1.556  13.901   2.403  0.0000  0.0047 -0.2579
11641W        W27450  18.165   2.271   4.975  0.0548 -0.2014 -0.0071
11642W        W27451   2.190   3.969  14.719  0.0137 -0.1742 -0.1901
11643W        W27452  14.355  10.266  12.606 -0.1603  0.1380  0.1160
11644W        W27453   5.588  12.646   2.025 -0.0560 -0.0827  0.1524
11645W        W27454  18.386   3.899   1.220 -0.0704 -0.2456  0.0189
11646W        W27455   7.579  12.780  13.174  0.0526 -0.2619 -0.5234
11647W        W27456   8.703   4.605   0.703 -0.0639 -0.1491 -0.2844
11648W        W27457  11.390  14.311  10.107  0.1586 -0.0159 -0.1023
11649W        W27458   6.443  11.878  14.167  0.0037 -0.1929 -0.0571
11650W        W27459   1.440  12.649   3.854 -0.2676 -0.1766  0.2389
11651W        W27460  18.546  16.426  12.143 -0.4414  0.0651  0.0596
11652W        W27461  13.187   4.726  14.423 -0.1614  0.2005  0.0423
11653W        W27462  10.123  17.772   3.372  0.0793 -0.2753  0.0410
11654W        W27463  11.193  12.038  11.821  0.0352 -0.1553  0.1469
11655W        W27464  15.959   8.656  10.494 -0.1177 -0.2310  0.2301
11656W        W27465  12.613  17.566  15.332 -0.1839 -0.2274  0.1471
11657W        W27466   9.867   6.574  15.614 -0.2071  0.0080  0.1559
11658W        W27467  14.830   9.350   4.926 -0.1863 -0.1435  0.0136
11659W        W27468  14.015   4.261   3.909  0.5171 -0.1237  0.0266
11660W        W27469   7.735  13.816   1.565  0.2244  0.0334 -0.0370
11661W        W27470   3.305   5.850   4.425  0.0931 -0.1035  0.2491
11662W        W27471  12.056   7.866   0.601 -0.2912  0.0349  0.0688
11663W        W27472   8.189   5.737  15.268 -0.2971  0.4940 -0.0381
11664W        W27473  17.098  10.014   1.555  0.0090 -0.0875 -0.1887
11665W        W27474   5.530  12.164  12.060 -0.2987 -0.3026 -0.1262
11666W        W27475   4.565  17.892  15.264 -0.3130 -0.0474 -0.4964
11667W        W27476   3.097  13.991   0.983 -0.1852 -0.2424 -0.0600
11668W        W27477   6.501   3.649   0.271  0.1071  0.4413  0.0196
11669W        W27478  10.356  11.196   2.553  0.1564 -0.1711 -0.0909
11670W        W27479   1.851  18.318  13.810 -0.0427 -0.0593  0.0250
11671W        W27480  15.433   2.652  15.028  0.1473  0.1592 -0.0049
11672W        W27481   2.962   4.072  13.586 -0.1316  0.0486 -0.0059
11673W        W27482  12.436   4.098  11.027 -0.2054  0.1069 -0.0750
11674W        W27483  10.677   7.219   3.687 -0.0699  0.1550  0.2654
11675W        W27484  12.692  17.572   0.268  0.1525  0.2010  0.0269
11676W        W27485  15.785   0.525  10.698  0.0625  0.1107 -0.0734
11677W        W27486   7.912   8.155   4.598 -0.1275 -0.0640 -0.0824
11678W        W27487   8.793  13.915   1.425  0.0409  0.1392 -0.1440
11679W        W27488  13.336  11.825   2.226  0.3230 -0.1250  0.0726
11680W        W27489   2.921   5.160  12.754 -0.1275  0.0108 -0.0989
11681W        W27490   6.687   7.518   1.154  0.0427 -0.1592 -0.1966
11682W        W27491  12.600   8.198  12.170  0.1695 -0.1522 -0.0784
11683W        W27492  12.895  13.677  12.821 -0.1065 -0.1267  0.4211
11684W        W27493   6.521   7.395   4.174  0.1469 -0.0632  0.0158
11685W        W27494   9.895   6.440  10.867  0.0914 -0.1848  0.1088
11686W        W27495   1.834  10.999   0.514  0.1441  0.1319  0.1073
11687W        W27496   8.665   2.002   5.475 -0.0719 -0.2140 -0.3198
11688W        W27497  11.123   4.651   1.256  0.0419 -0.2115 -0.1173
11689W        W27498  11.315  12.110   0.914  0.0497  0.2181 -0.0842
11690W        W27499   6.734   8.268   3.364  0.0579 -0.0651  0.1537
11691W        W27500   3.066   3.911   5.601  0.1286  0.2514  0.1204
11692W        W27501   0.508  14.483   5.346 -0.0392  0.0689  0.0612
11693W        W27502  11.410  16.063   5.137  0.0358 -0.2440 -0.0144
11694W        W27503  15.536   3.249  15.604  0.1236  0.0407  0.1507
11695W        W27504  15.930   8.464   3.833 -0.0996 -0.0220  0.1613
11696W        W27505   8.348  17.967   1.859 -0.0784  0.3117  0.1480
11697W        W27506   0.572   9.399   2.801  0.1949 -0.0596  0.1377
11698W        W27507  16.771   7.858  10.712 -0.1633 -0.0755  0.0405
11699W        W27508  11.692  12.855  13.319 -0.0578  0.1209  0.0191
11700W        W27509   3.684  15.673   1.281  0.0371  0.0234 -0.2872
11701W        W27510  16.866   6.795  11.738  0.2618 -0.0073 -0.1890
11702W        W27511  13.963   2.570  14.958 -0.2823 -0.1208 -0.1621
11703W        W27512  13.915  18.330   2.863  0.0105  0.0400 -0.1350
11704W        W27513  16.357  16.071  14.430  0.1141  0.1663 -0.2882
11705W        W27514   3.035  16.333   3.714 -0.0526 -0.0047  0.1502
11706W        W27515   3.312   5.044   4.623  0.0764 -0.0504 -0.3671
11707W        W27516   9.486  17.739   2.789  0.2134  0.1202 -0.0461
11708W        W27517   2.897  15.165  14.687  0.0021 -0.0701 -0.1690
11709W        W27518   4.620  16.493  13.469  0.0531 -0.0041 -0.2253
11710W        W27519   2.570  14.221   3.381 -0.2556  0.0490 -0.0647
11711W        W27520  14.718  12.934   0.122 -0.1937  0.0758  0.0267
11712W        W27521   0.569  11.027  11.822  0.0295  0.3520  0.0694
11713W        W27522  13.328  12.821   0.695 -0.1379 -0.1929 -0.0230
11714W        W27523   1.502   1.873   1.524  0.0952  0.1656 -0.4761
11715W        W27524   4.054   8.732   3.445 -0.1513 -0.4373 -0.0884
11716W        W27525  13.545  12.784   2.665 -0.0222 -0.0462 -0.2408
11717W        W27526  13.209   8.024   0.131 -0.1673 -0.0987 -0.0281
11718W        W27527  15.704  11.816  12.022  0.0495 -0.2194  0.0408
11719W        W27528   8.722  11.631   5.045  0.1106  0.2601  0.0010
11720W        W27529   7.983   7.272  11.353  0.0715 -0.0293 -0.1995
11721W        W27530   5.095   5.428   1.833  0.0532  0.1766  0.0439
11722W        W27531   7.892  12.331  10.916 -0.0590 -0.1811  0.2004
11723W        W27532  17.583  18.603   2.697 -0.0273  0.1527  0.0278
11724W        W27533   5.273  14.229  13.994  0.1987 -0.2521  0.4181
11725W        W27534  11.294  17.595  14.589  0.0550  0.1194  0.2930
11726W        W27535   2.867  16.141  11.607  0.0198  0.3067  0.0088
11727W        W27536   7.006   4.347   1.061 -0.3090 -0.1280  0.1018
11728W        W27537   9.682  17.583  11.900  0.2141  0.2942  0.1138
11729W        W27538   3.634  16.738   3.228 -0.2694  0.0187 -0.0156
11730W        W27539  11.362  14.078   1.744 -0.2229 -0.1575 -0.1207
11731W        W27540  13.555   0.442   1.727 -0.3416  0.0750  0.0640
11732W        W27541  11.127   1.008  13.658 -0.2628 -0.0440 -0.3858
11733W        W27542   3.325   6.115  14.825  0.0460 -0.1567 -0.0468
11734W        W27543   0.800   7.026   1.669 -0.1505 -0.2191  0.0646
11735W        W27544  14.295  17.226   3.129  0.1808 -0.0253  0.2924
11736W        W27545  16.536   0.283   3.400 -0.2350  0.3968 -0.1172
11737W        W27546   2.206  14.362   2.673 -0.0998  0.2094 -0.1431
11738W        W27547  18.543  11.260   0.356 -0.1065 -0.1198 -0.0053
11739W        W27548   1.845  15.001   4.288  0.4664 -0.1740 -0.1026
11740W        W27549  10.122   2.694   3.915 -0.2842  0.1562 -0.1960
11741W        W27550  13.269   7.203  12.141  0.0528 -0.1752 -0.1027
11742W        W27551   6.139   1.858   2.653  0.0864  0.1462 -0.0710
11743W        W27552  16.840   5.706  13.680 -0.3320 -0.2087 -0.0605
11744W        W27553  10.313   5.948   0.316 -0.0812  0.0566  0.0847
11745W        W27554   9.931  13.508   3.631  0.0358  0.3624 -0.1299
11746W        W27555   1.673   7.874  12.054  0.0086 -0.2025  0.0514
11747W        W27556   4.351   5.374  10.704 -0.1402  0.1999  0.0835
11748W        W27557   5.764   8.846  13.593  0.0522  0.2079  0.0784
11749W        W27558   6.655   0.336   4.395  0.4286  0.0078 -0.0085
11750W        W27559   5.468   9.561  14.747 -0.1381  0.1327 -0.0050
11751W        W27560   3.807  15.732  12.077 -0.0308  0.0658  0.2665
11752W        W27561   9.634   2.981  12.933 -0.2368 -0.0448  0.0418
11753W        W27562   4.530  17.743  13.264 -0.0064 -0.1846 -0.1074
11754W        W27563   8.576  17.996   0.536 -0.0130  0.1442  0.3975
11755W        W27564   2.306   1.659   5.024  0.0064 -0.0886 -0.1193
11756W        W27565  18.643  13.266  11.546  0.1603  0.2031 -0.0666
11757W        W27566   5.489   5.487   4.379  0.3424 -0.3994 -0.1449
11758W        W27567   3.604  12.713   4.665  0.0397  0.1369 -0.0955
11759W        W27568   8.364  17.722   3.877  0.0877 -0.0692  0.3674
11760W        W27569   2.974  10.704   1.041  0.0246  0.2089  0.0744
11761W        W27570   5.414   4.739   2.050 -0.0955 -0.2091 -0.1617
11762W        W27571   9.610  11.395  15.501  0.0511 -0.1293  0.0853
11763W        W27572   8.123   5.773   3.183  0.1317 -0.0701  0.1270
11764W        W27573   9.830   1.669  14.378  0.0042  0.0110  0.1026
11765W        W27574   9.636   6.672   3.935  0.0889  0.1306 -0.1019
11766W        W27575  13.018  17.394  12.908 -0.3552  0.1570 -0.1451
11767W        W27576   5.457  10.485  14.705  0.1834 -0.0206 -0.0955
11768W        W27577   8.254  16.263   2.172 -0.0120 -0.1697  0.1733
11769W        W27578   6.332   6.246   4.467  0.2828  0.1968 -0.2029
11770W        W27579   6.110   4.935  14.413 -0.3927 -0.2608  0.2701
11771W        W27580   9.831   4.147   0.918  0.1503  0.0757 -0.0411
11772W        W27581  14.294   8.941  14.525 -0.1441  0.2939 -0.0527
11773W        W27582  10.913   9.155  11.953 -0.1744 -0.2157  0.2075
11774W        W27583   1.176  14.511  13.301  0.2460 -0.0128  0.2961
11775W        W27584  11.544  16.954   6.429 -0.1537  0.0690  0.0574
11776W        W27585   9.295  16.330   0.979  0.1630  0.0660 -0.1000
11777W        W27586   2.681  11.395  14.163  0.1293 -0.2568  0.2059
11778W        W27587   1.099  12.616  13.353 -0.1830 -0.1245  0.2389
11779W        W27588  18.552   2.464  11.469  0.1742 -0.5875  0.1020
11780W        W27589  14.806   9.373  12.424  0.2802 -0.1884  0.1542
11781W        W27590   6.677  17.454   0.275  0.0885 -0.1469  0.0897
11782W        W27591  13.201  14.980   5.767  0.1040 -0.3014 -0.2464
11783W        W27592   0.377  10.797  10.986  0.1907 -0.1114 -0.2102
11784W        W27593  14.768   0.135  12.874  0.0685  0.4015  0.0014
11785W        W27594  15.305  13.497  13.627  0.0176  0.0138  0.0235
11786W        W27595   3.480   9.014   1.102 -0.2998 -0.3932  0.1930
11787W        W27596   1.223  11.880  12.086  0.0297  0.1042  0.1601
11788W        W27597   6.690  17.295  14.783 -0.0694 -0.0379 -0.0848
11789W        W27598   0.771   8.598  12.144  0.0732 -0.0597 -0.1391
11790W        W27599  15.663   4.043   3.583  0.3769  0.1132 -0.0820
11791W        W27600   5.953   6.071  14.467  0.0615  0.4182 -0.0450
11792W        W27601   1.890  16.899   3.836  0.1210  0.0311 -0.1857
11793W        W27602  16.345   9.829  12.695  0.0634 -0.0287  0.0006
11794W        W27603  17.998   0.183   4.246 -0.0572  0.2359 -0.3759
11795W        W27604   2.128   0.341   0.905 -0.4944 -0.2055  0.2291
11796W        W27605   8.536  17.671  15.466 -0.2526  0.1068  0.0797
11797W        W27606   0.276   2.557   2.240  0.4191 -0.0540 -0.1734
11798W        W27607  17.586   0.491   1.255 -0.4369  0.1973 -0.5475
11799W        W27608  18.347  18.523  14.010  0.0655  0.1446  0.1588
11800W        W27609  14.472   7.268  15.264 -0.0429  0.0427 -0.0969
11801W        W27610   9.587   8.573   2.199 -0.1670  0.0674 -0.2538
11802W        W27611  16.256   5.925   4.415 -0.0322  0.1114 -0.1008
11803W        W27612   3.984   5.797  12.500  0.0867  0.3739 -0.0064
11804W        W27613   2.854  17.728   1.975 -0.0295 -0.0398  0.2312
11805W        W27614   2.401   0.926  12.746  0.1923 -0.3685  0.1821
11806W        W27615  17.094   3.953   1.071  0.2871  0.1231 -0.0347
11807W        W27616  13.945  10.403   5.248  0.2209  0.0414 -0.1081
11808W        W27617  16.618   9.087   2.762  0.1314  0.1157  0.4124
11809W        W27618   9.256   4.200   4.372  0.1749  0.0282  0.0227
11810W        W27619   7.728   6.196   1.346 -0.1009 -0.0662  0.0542
11811W        W27620  11.857  11.817  13.026  0.2145  0.2827 -0.0519
11812W        W27621  15.438   5.979   5.100  0.1306  0.2064  0.1515
11813W        W27622  15.029  16.129   4.333  0.1634  0.1346  0.2224
11814W        W27623  18.039   2.297   2.177  0.0823  0.2748 -0.0315
11815W        W27624  10.420  17.089   2.842 -0.1304  0.0303 -0.0825
11816W        W27625   4.321   5.595  11.591 -0.2236 -0.1456  0.0361
11817W        W27626  18.248   3.472   2.798  0.1925  0.0920 -0.6487
11818W        W27627   8.634  15.282   3.760 -0.2289  0.0395  0.1173
11819W        W27628  13.903  18.004  15.259  0.0188 -0.0751  0.1618
11820W        W27629   3.985  17.875  13.341 -0.0297 -0.2126  0.0937
11821W        W27630  12.604   5.228   1.885  0.0128 -0.1907  0.0850
11822W        W27631   6.763  12.025  15.331 -0.0578 -0.0083 -0.1474
11823W        W27632  11.819   6.237  11.520  0.0686  0.0158  0.1047
11824W        W27633   5.629   4.384   2.350 -0.0852  0.0965  0.1409
11825W        W27634  16.330  15.927  12.010  0.1640  0.2794 -0.1377
11826W        W27635  17.619  14.370   4.088  0.1385  0.0244 -0.1782
11827W        W27636   6.661  15.972   2.282  0.0254  0.1352  0.2349
11828W        W27637  11.783  11.552  13.866  0.0027  0.1104  0.0421
11829W        W27638  11.245  14.822  10.961  0.2607 -0.2668  0.2549
11830W        W27639  14.994  10.710   4.025 -0.3774  0.0521  0.0985
11831W        W27640   7.423   3.144  12.098  0.1231  0.1291 -0.2226
11832W        W27641   4.530   0.267   4.491  0.2239  0.0953 -0.1258
11833W        W27642   0.215  13.355   2.697  0.2617 -0.3267  0.1147
11834W        W27643   7.312   6.573   1.025 -0.0031 -0.1270  0.1790
11835W        W27644  13.981   8.463  11.734 -0.1454  0.2152 -0.0783
11836W        W27645   7.769   0.847   3.919  0.1297  0.2689  0.0374
11837W        W27646  17.369  10.102  10.340  0.3215  0.1306  0.0764
11838W        W27647   2.620   2.486   0.076  0.1077 -0.1043 -0.0954
11839W        W27648  11.113  11.360  12.034 -0.0079  0.0689  0.5124
11840W        W27649   6.006   9.341   2.553 -0.2299  0.2985  0.0404
11841W        W27650   2.949   6.673  13.188  0.0183 -0.0562  0.2065
11842W        W27651  13.819   6.048  14.428 -0.2575  0.2081 -0.2121
11843W        W27652  14.796   7.851   2.238 -0.0309  0.0483  0.0167
11844W        W27653   8.084  10.255   0.678 -0.1008  0.1592  0.1838
11845W        W27654  12.054  11.431  14.368 -0.3270 -0.2489  0.3436
11846W        W27655  10.326  14.307   6.136 -0.1676  0.1669 -0.1466
11847W        W27656   2.778  10.370  13.259 -0.1818 -0.3826  0.0685
11848W        W27657  15.351  12.155  13.848  0.1933 -0.1205 -0.0236
11849W        W27658  17.304   5.592  14.348  0.1592  0.1751  0.0793
11850W        W27659   3.136  10.502   3.421 -0.0216 -0.2339 -0.3203
11851W        W27660  15.104  14.143   2.236 -0.1077  0.0783  0.1347
11852W        W27661  10.950   8.064   3.142 -0.1834  0.2184  0.0734
11853W        W27662   0.481  15.574   5.444  0.4353 -0.2104  0.1794
11854W        W27663  12.729  16.163   0.676 -0.1509  0.1549 -0.0397
11855W        W27664  17.130   4.202  11.379 -0.2578  0.1773  0.3053
11856W        W27665  18.224  14.515  13.260 -0.0397  0.2292  0.0273
11857W        W27666   6.941   1.251   4.711 -0.2662 -0.1173  0.2970
11858W        W27667   6.140  11.427   4.264 -0.0755  0.2070 -0.0100
11859W        W27668   2.762  13.758   0.699  0.0439 -0.2278  0.0064
11860W        W27669   6.802  14.823   1.868 -0.0271 -0.3124 -0.0368
11861W        W27670  10.067   7.571  15.200  0.1606 -0.4272 -0.1220
11862W        W27671   6.848  10.553   4.885  0.0434 -0.0732 -0.3738
11863W        W27672  15.898  16.145   5.172  0.0075  0.1526 -0.5394
11864W        W27673  15.509  11.515   9.430  0.0260 -0.1868  0.4246
11865W        W27674  13.561   0.872  11.162 -0.0041  0.0589 -0.0028
11866W        W27675   8.439   9.603  11.622  0.1144 -0.3220 -0.1265
11867W        W27676  17.946   1.656  14.161  0.2063  0.2570  0.0331
11868W        W27677   1.878  17.680   2.239 -0.2500  0.1021 -0.0729
11869W        W27678   2.608   3.409  14.271  0.0816  0.0270  0.1319
11870W        W27679   4.781  12.427  10.609  0.1963  0.0364 -0.0221
11871W        W27680  13.257  11.515  13.037 -0.3824  0.0714  0.0365
11872W        W27681  10.852   1.427   4.880 -0.4110 -0.3980  0.0794
11873W        W27682   1.027  13.928   3.796 -0.2501  0.1230 -0.1450
11874W        W27683   0.281   9.858   0.662 -0.1571 -0.1403  0.0779
11875W        W27684  14.272  14.661  13.007  0.1916  0.0198  0.2545
11876W        W27685   4.086   9.804   4.383 -0.0383 -0.1132 -0.2489
11877W        W27686  16.496   2.087   5.888 -0.1520 -0.2091 -0.1436
11878W        W27687  12.282   0.466  13.728 -0.0594 -0.2262 -0.1627
11879W        W27688   0.843  10.324  11.302 -0.1217 -0.0754  0.1128
11880W        W27689  10.049   2.739   1.067 -0.2066  0.0391  0.0849
11881W        W27690   3.235   7.584   0.672 -0.0156 -0.3353  0.0682
11882W        W27691   0.040   7.787   0.933 -0.0835  0.3882  0.1705
11883W        W27692   2.191   7.167  12.337 -0.1544 -0.1001 -0.0551
11884W        W27693  15.196   8.767   3.177 -0.3119  0.0956  0.2968
11885W        W27694  13.532   0.524  10.815  0.0330 -0.1081 -0.1098
11886W        W27695  16.720  14.393  14.673  0.0676  0.0880  0.0116
11887W        W27696  14.066   3.520  11.844 -0.1874  0.0400 -0.0108
11888W        W27697   8.213  10.935   1.599  0.0395  0.3484  0.2159
11889W        W27698   1.719  13.724   4.977 -0.1414 -0.2463 -0.0423
11890W        W27699   7.000   2.837  14.744  0.2036  0.5028 -0.0863
11891W        W27700  14.080  14.499   2.366 -0.2736 -0.3080  0.0358
11892W        W27701  14.451   0.227   1.222  0.4802  0.2709 -0.0373
11893W        W27702   5.288   4.877   0.526  0.1629  0.0018 -0.1771
11894W        W27703   1.000  15.076   1.565  0.1464  0.0606 -0.0767
11895W        W27704  17.156  14.828   0.695  0.3274 -0.0548  0.0183
11896W        W27705  16.414   0.407   0.722  0.0124 -0.2264  0.0010
11897W        W27706   1.254  16.236  13.340 -0.1748  0.1851 -0.0436
11898W        W27707   3.567   5.697  12.116  0.1309 -0.0086  0.1645
11899W        W27708  12.431  11.158   3.962  0.0433 -0.1845 -0.1899
11900W        W27709  17.717   3.875   2.958  0.2703  0.0123 -0.0630
11901W        W27710  12.812   4.772   2.087 -0.1514 -0.2763  0.1922
11902W        W27711   3.439   2.353  12.702 -0.2257 -0.0095  0.1105
11903W        W27712  18.558   9.157  13.647 -0.2815  0.0273  0.1818
11904W        W27713   8.512   2.662   0.577  0.0348 -0.0588  0.2008
11905W        W27714   3.213  15.236   5.131  0.1474 -0.0555  0.1482
11906W        W27715   3.256   4.666  11.225 -0.1268  0.1508  0.0868
11907W        W27716  16.049  12.761   5.051 -0.0997  0.2492  0.0069
11908W        W27717   8.562  14.497   1.754 -0.1822  0.1069 -0.0013
11909W        W27718   2.525   0.550   3.150  0.0094 -0.0966  0.2050
11910W        W27719   3.782   1.620   5.078 -0.4887  0.0215 -0.0161
11911W        W27720   3.807   0.855   3.024 -0.1055 -0.0797 -0.0221
11912W        W27721  16.999   9.456   3.629 -0.4147 -0.2445  0.0682
11913W        W27722   4.096   6.840   0.002 -0.0692 -0.0949  0.1086
11914W        W27723   2.283  16.786   5.866  0.2170 -0.0494  0.0895
11915W        W27724   8.253  17.741   0.227 -0.0201  0.2494  0.2341
11916W        W27725   3.200   6.014   1.537 -0.1502 -0.0622  0.1722
11917W        W27726  15.616  13.092  13.940 -0.0064 -0.0447  0.1667
11918W        W27727  12.385   2.438  13.187  0.1258 -0.2225 -0.0381
11919W        W27728  12.285   1.309  11.345 -0.1871  0.4266 -0.2420
11920W        W27729  15.424  16.446  13.329 -0.0548  0.3939  0.0433
11921W        W27730  17.248   1.328  11.298 -0.5369  0.0734  0.0858
11922W        W27731   6.102   8.751   0.978 -0.0876  0.0370 -0.0301
11923W        W27732  17.892   5.869   4.180 -0.0074  0.0266  0.5731
11924W        W27733  15.596  18.475  11.342  0.1276 -0.0027  0.0032
11925W        W27734  14.534   8.116   1.852  0.0781  0.2106 -0.0853
11926W        W27735   2.935   9.292   2.872  0.1564 -0.0234  0.1398
11927W        W27736   9.633  11.930   4.381  0.1667  0.2911  0.0357
11928W        W27737  15.304  11.036   3.858 -0.0668  0.0786 -0.1755
11929W        W27738   5.973  13.248   2.699 -0.1888  0.2882  0.1659
11930W        W27739   1.038   6.404   1.029 -0.0688 -0.1103  0.0695
11931W        W27740  16.410   4.712  13.850  0.0435 -0.0600 -0.2387
11932W        W27741   0.330   8.310  14.514  0.2214 -0.1058  0.0749
11933W        W27742  15.611   1.707  15.073  0.0136  0.0750  0.3501
11934W        W27743   2.903  16.056   5.450  0.0650 -0.0752 -0.1218
11935W        W27744  10.107   7.926   3.668 -0.2565 -0.1044 -0.0224
11936W        W27745  13.709   5.212   5.263  0.0423  0.1369  0.0889
11937W        W27746   0.713   8.912  13.956 -0.1135  0.1508 -0.0547
11938W        W27747  11.013  15.267   0.507 -0.0227 -0.0039  0.0071
11939W        W27748  15.088  12.229   4.594  0.0381 -0.4899 -0.0130
11940W        W27749   4.874  10.153  12.875  0.3243 -0.0480  0.3653
11941W        W27750   7.079  12.294   0.282  0.1935  0.0007 -0.2733
11942W        W27751  14.649   7.844   0.177 -0.0410 -0.2680  0.0887
11943W        W27752   7.038  14.361   0.341 -0.2002  0.0198  0.3641
11944W        W27753   3.926   3.124   9.806  0.2511 -0.0487  0.0230
11945W        W27754   2.188  17.285   3.376  0.0316  0.2073  0.2004
11946W        W27755   5.565  16.380  10.217  0.3031  0.1912  0.0994
11947W        W27756  13.816   7.539   3.976  0.0315  0.1469 -0.1029
11948W        W27757   9.396   2.751   0.242  0.1509 -0.4167  0.0828
11949W        W27758   0.522  13.084   3.486 -0.0645 -0.0664 -0.1812
11950W        W27759   8.285  17.930  14.707  0.2984 -0.2720 -0.1911
11951W        W27760  12.350   1.091  15.518 -0.1308  0.1284  0.1468
11952W        W27761   9.540  14.964  14.379  0.0940 -0.2177  0.2487
11953W        W27762   7.872   0.124   0.952 -0.1774 -0.1683  0.4344
11954W        W27763   1.266  15.359  14.802 -0.1537 -0.0682 -0.1817
11955W        W27764  12.963  12.467   4.139  0.1713  0.1028  0.2000
11956W        W27765   9.296  10.739  14.014 -0.1060 -0.1813 -0.1234
11957W        W27766   2.257  13.336  10.745  0.0092  0.0586 -0.0458
11958W        W27767   7.374  17.862   0.034  0.0570  0.2557  0.6195
11959W        W27768   5.427  16.407   9.765  0.0152 -0.1757  0.3098
11960W        W27769  12.694   3.407   5.439 -0.1147 -0.0275 -0.0653
11961W        W27770  18.496  10.682   2.844  0.0994 -0.0741  0.0111
11962W        W27771   5.217   6.765   1.042  0.1032  0.1509 -0.1261
11963W        W27772  18.054   6.169  13.433  0.5011  0.1471 -0.1560
11964W        W27773   0.051  18.354  10.921 -0.1466  0.0148 -0.0232
11965W        W27774  18.453   0.089   3.088 -0.3988  0.2569 -0.2173
11966W        W27775   6.988   8.136   5.412  0.1245 -0.0603  0.1948
11967W        W27776  11.455   3.326   3.351  0.2635 -0.0763  0.4778
11968W        W27777   5.729  10.150  12.546 -0.1641  0.4288  0.0360
11969W        W27778   6.854   7.393   3.215  0.0051  0.2948 -0.1168
11970W        W27779   1.166  12.240  14.909  0.2103 -0.3180 -0.2434
11971W        W27780   7.572   8.884  13.411 -0.0312  0.0754 -0.2924
11972W        W27781  16.358  17.084  15.236  0.2016 -0.0212  0.2228
11973W        W27782   2.288  18.353  11.297  0.2565 -0.0785 -0.0472
11974W        W27783  17.246   3.750  11.748 -0.0253 -0.0310  0.5097
11975W        W27784  17.752   9.057   0.334  0.1706  0.0373  0.2836
11976W        W27785  16.939   5.560   3.832 -0.1594 -0.0815  0.2633
11977W        W27786  11.151  14.401   0.792 -0.0198  0.0495  0.0149
11978W        W27787   3.145   5.544   3.052  0.3207 -0.0466  0.2085
11979W        W27788  11.587   5.574  11.040  0.0880  0.0342 -0.0727
11980W        W27789  14.742  10.905   5.844  0.0129 -0.0119  0.0223
11981W        W27790  16.676   6.241   2.409  0.1943 -0.2746  0.2025
11982W        W27791  10.501  12.191   1.622 -0.0137  0.3749 -0.0902
11983W        W27792  18.674   8.308   2.226  0.1835  0.3564  0.0362
11984W        W27793  11.387   4.134  12.011 -0.2753 -0.0242  0.2188
11985W        W27794  13.546   2.752   4.890 -0.0674  0.2011  0.4917
11986W        W27795   9.239   7.961   5.721 -0.1959 -0.1581  0.1911
11987W        W27796   0.461   6.948  10.899 -0.1558 -0.1532 -0.3045
11988W        W27797   8.034  16.601   5.494  0.2809 -0.1208  0.1910
11989W        W27798  14.392   9.700  15.274 -0.2356  0.2799 -0.1730
11990W        W27799   3.331  12.624  12.903 -0.0707  0.0408 -0.0432
11991W        W27800  17.225   8.189  11.461 -0.1284 -0.1065 -0.1278
11992W        W27801  11.351  12.594   0.811  0.1489  0.1444 -0.1625
11993W        W27802  10.305  12.536   3.954  0.0834 -0.1369  0.0937
11994W        W27803   8.617  10.212  15.260 -0.1972 -0.0548 -0.1783
11995W        W27804  14.126  11.002  10.904 -0.0192 -0.0618  0.0720
11996W        W27805  14.532  16.838  14.836 -0.0200 -0.0364  0.2060
11997W        W27806   3.230  12.353   3.350 -0.2455 -0.0280  0.3519
11998W        W27807   6.982   4.739  12.473  0.0609  0.0370  0.1893
11999W        W27808  10.331  17.544   2.546 -0.0440  0.0970  0.0404
12000W        W27809  17.381   4.382  14.850  0.1572  0.0514 -0.0238
12001W        W27810  14.332  18.190   2.008  0.0581 -0.1046  0.1090
12002W        W27811   9.427  16.333  11.516 -0.0452  0.0546  0.0177
12003W        W27812   1.892   2.049   0.132 -0.2842  0.0018  0.1783
12004W        W27813  13.659   7.376  11.872  0.1517  0.0018  0.2042
12005W        W27814   4.034  15.941  12.904 -0.1424 -0.0222 -0.2461
12006W        W27815   9.883   7.097   5.291  0.0566  0.1871  0.1071
12007W        W27816  18.306   3.300  11.849  0.0092 -0.1390  0.0552
12008W        W27817   5.404  15.098   1.886  0.1891 -0.0407 -0.3363
12009W        W27818  18.159  18.378  15.025 -0.2902  0.1729  0.0460
12010W        W27819  11.443   9.247   2.893  0.1646 -0.0248  0.1121
12011W        W27820  17.775  14.961   4.639  0.3734  0.1629  0.1992
12012W        W27821  12.609  10.599  15.399  0.0820  0.0793  0.1349
12013W        W27822  17.728   3.050   0.345 -0.1557  0.2559 -0.0232
12014W        W27823  16.284   8.905   0.894  0.2002  0.1207 -0.1840
12015W        W27824   5.788   9.509  12.108 -0.1241  0.2732  0.2073
12016W        W27825   3.591  16.478  11.174  0.2869  0.0650  0.2842
12017W        W27826   3.546  17.451  12.602  0.1318 -0.2067  0.1732
12018W        W27827   0.634  11.191   0.107 -0.2079  0.0221 -0.0920
12019W        W27828  11.145   7.066   1.353 -0.1739  0.1900 -0.0735
12020W        W27829   3.098  10.196  12.778 -0.1307  0.2413 -0.2031
12021W        W27830   4.568   9.869  14.513 -0.0147 -0.0340  0.0755
12022W        W27831  12.510  16.728  14.107 -0.3253 -0.2079 -0.0015
12023W        W27832  16.954   6.706  13.868  0.1555 -0.0944 -0.1237
12024W        W27833  12.825  11.196  14.534  0.1382  0.1597 -0.1500
12025W        W27834  16.211   3.903   1.560 -0.1246  0.0064  0.0555
12026W        W27835   2.776  15.346  15.181 -0.2352 -0.0744  0.0211
12027W        W27836   1.336   7.507  12.680  0.0120  0.2759  0.1847
12028W        W27837  15.232   7.540   1.061  0.2154  0.0010 -0.3131
12029W        W27838   3.788   7.425  13.366  0.0386 -0.1766  0.1105
12030W        W27839   4.683   9.437   0.656 -0.1257  0.1332  0.1010
12031W        W27840   9.231   5.953   5.247 -0.0242  0.0995 -0.0350
12032W        W27841  16.478   9.587   1.121 -0.2644  0.0558 -0.2576
12033W        W27842   1.628  16.764   4.289  0.1208  0.2309 -0.1063
12034W        W27843   2.230  15.371   2.740  0.2469  0.0387 -0.3000
12035W        W27844  15.446   9.136  12.062  0.0165  0.4419 -0.1854
12036W        W27845   1.773  15.553  15.145 -0.0949 -0.2207  0.2330
12037W        W27846   1.786   0.030   3.198  0.0506  0.2082  0.0201
12038W        W27847  18.136   2.720   2.556  0.2205 -0.2838  0.5173
12039W        W27848  17.023  17.450   2.670  0.1439  0.1785  0.1112
12040W        W27849   5.622   2.992  12.028  0.0326 -0.2514 -0.2509
12041W        W27850   7.700   0.761  15.394 -0.0274  0.0106 -0.3133
12042W        W27851   3.838   0.508   1.713  0.1341 -0.2094  0.0206
12043W        W27852   6.932   9.183   0.928 -0.0254 -0.1964 -0.0602
12044W        W27853   8.332   8.576   1.673 -0.0321  0.1030 -0.0042
12045W        W27854   6.254   5.613   5.287 -0.1874  0.1411  0.0783
12046W        W27855  18.285   7.808  14.129  0.0700 -0.3530  0.1523
12047W        W27856   2.117  17.801  10.483  0.1183  0.1191  0.1507
12048W        W27857  12.127  12.795   1.825  0.1227 -0.0201 -0.3091
12049W        W27858  10.009  12.064   1.290 -0.0798 -0.1123 -0.1493
12050W        W27859  13.885  17.965   4.803 -0.1461  0.3711 -0.0408
12051W        W27860   8.783   8.850   1.879 -0.0902  0.1882 -0.1232
12052W        W27861   2.029  15.984   3.545 -0.0554 -0.1229  0.0756
12053W        W27862   9.998  13.290   2.686 -0.4957 -0.0382 -0.2807
12054W        W27863  10.840   5.669  11.050  0.1753 -0.0195  0.0462
12055W        W27864   5.540  10.605  13.951 -0.0831 -0.0048  0.1978
12056W        W27865   4.321   2.736   4.583 -0.0828  0.0196  0.0201
12057W        W27866   8.801  16.598  14.468 -0.0509 -0.1812 -0.1411
12058W        W27867   0.390   9.435   4.054  0.0015 -0.0022  0.1251
12059W        W27868   4.225   4.696   1.508 -0.1703 -0.2937  0.0021
12060W        W27869   3.619   6.278   4.005  0.3703  0.0547 -0.0383
12061W        W27870   4.027   2.814  11.065 -0.0650  0.3201  0.0968
12062W        W27871  11.759  10.698  11.495  0.2992  0.0811 -0.2249
12063W        W27872   3.818  14.712   0.941 -0.0788  0.0702 -0.1673
12064W        W27873   4.486  15.016   5.925  0.0041  0.0492  0.3885
12065W        W27874   5.121   0.138   3.738 -0.1750 -0.1305  0.1857
12066W        W27875  17.375   3.076   1.166  0.0846  0.0801  0.2317
12067W        W27876   0.747  17.467  14.998 -0.3525 -0.1251  0.1124
12068W        W27877   0.895   8.534   1.917  0.1054 -0.0478 -0.2089
12069W        W27878   5.406  12.261   3.884 -0.2151  0.2789  0.2165
12070W        W27879   3.390   2.208  10.768  0.0805  0.0986  0.4124
12071W        W27880   0.797   4.364   3.219  0.2343 -0.3187 -0.0578
12072W        W27881  17.673  18.292  10.797 -0.1782 -0.0215 -0.1774
12073W        W27882   4.380   8.731  13.537  0.1931  0.0387 -0.0522
12074W        W27883   0.113   7.891   0.347 -0.1693  0.0546 -0.0622
12075W        W27884   6.812   2.759   0.545 -0.0651 -0.1340 -0.1377
12076W        W27885  18.335   1.414  13.208  0.0985 -0.0971 -0.1331
12077W        W27886  16.896  11.464   4.521 -0.0916  0.0389 -0.2823
12078W        W27887  17.023  17.502  13.706 -0.0675 -0.2499  0.1854
12079W        W27888  18.177  13.044  13.845  0.0945 -0.0094  0.1300
12080W        W27889  18.517  13.642   2.354 -0.1609  0.2072 -0.0263
12081W        W27890  12.107   0.780  13.398  0.1384 -0.2912 -0.1367
12082W        W27891  16.282   0.107  10.612  0.2629 -0.2076 -0.2369
12083W        W27892   5.195  18.127   0.222  0.0905  0.0965 -0.2244
12084W        W27893  10.545  16.378   1.579  0.3359 -0.1503 -0.0562
12085W        W27894   1.685   3.747   1.525  0.0412 -0.0019 -0.0432
12086W        W27895   4.842   4.701   1.325 -0.0143  0.0964 -0.1315
12087W        W27896   4.927   5.490   1.317 -0.3905 -0.1014 -0.0782
12088W        W27897  16.521   5.440  12.294  0.0233 -0.1655 -0.3057
12089W        W27898  16.313  16.122   2.556 -0.2340 -0.1822 -0.0739
12090W        W27899   4.217   7.960  11.340  0.2771  0.0507  0.0846
12091W        W27900  10.656   9.947   2.697 -0.1483  0.2250 -0.2074
12092W        W27901  13.521   3.224   5.730 -0.0077 -0.1580  0.0072
12093W        W27902  12.138  11.888  11.295 -0.3239 -0.3095  0.1020
12094W        W27903  15.822   1.372  14.744  0.0040  0.1668  0.4359
12095W        W27904   7.533   3.114   2.651  0.1665 -0.1923 -0.2045
12096W        W27905  16.815   8.294  14.989 -0.3306  0.0067  0.3163
12097W        W27906  10.865  11.852   2.470  0.0682  0.2067  0.0621
12098W        W27907  11.965   7.870   2.729 -0.0299  0.4238 -0.0219
12099W        W27908   4.277   3.380  11.936 -0.2774  0.0124 -0.0706
12100W        W27909   5.410   7.644   1.464 -0.1228 -0.1263  0.1786
12101W        W27910  11.083   7.909   5.178 -0.0160  0.1565  0.0405
12102W        W27911   1.635   7.866   2.667  0.0077  0.0009  0.1206
12103W        W27912   8.345  15.199   5.491 -0.0665 -0.0697  0.3029
12104W        W27913  18.326  10.276  12.013 -0.0408  0.2344  0.1179
12105W        W27914   9.336   9.515   1.647  0.1322 -0.1714 -0.0767
12106W        W27915  15.071  16.752  14.851  0.0555  0.1851  0.1114
12107W        W27916   8.413   0.001  10.503  0.2671  0.0506 -0.0939
12108W        W27917   3.340   0.903   3.728  0.1496 -0.1980  0.1430
12109W        W27918  18.628   8.364  10.545  0.0015 -0.0062 -0.1192
12110W        W27919   4.983  13.614  14.257 -0.0683  0.0262  0.0351
12111W        W27920  13.708  11.949   0.682 -0.0595  0.1349  0.3652
12112W        W27921  12.835   8.208   4.594  0.1045  0.3656  0.0295
12113W        W27922   7.811  13.032   0.843 -0.0915 -0.1480  0.1319
12114W        W27923   0.455  13.393  13.497 -0.1081 -0.1591  0.0459
12115W        W27924  15.626  12.529   5.250 -0.1714  0.1483 -0.0259
12116W        W27925   4.281   6.091  14.655 -0.1076  0.0564  0.1895
12117W        W27926   3.812  15.616   9.862 -0.2866 -0.3088 -0.3025
12118W        W27927   6.243   7.782  13.295  0.3303  0.1218  0.0686
12119W        W27928  18.599   7.728  12.416 -0.0730 -0.0221 -0.1824
12120W        W27929  15.962  13.225  10.156 -0.2327 -0.0684 -0.0259
12121W        W27930   4.870   6.667  12.209  0.1381 -0.1835  0.4346
12122W        W27931   2.078  18.110   4.373  0.1382  0.0300 -0.2183
12123W        W27932  16.401  16.963   4.012  0.0429  0.0374 -0.3286
12124W        W27933  11.719   1.620  15.247 -0.2056  0.1378  0.0870
12125W        W27934   7.415   0.677   3.221  0.0447 -0.1991  0.1875
12126W        W27935  10.094   3.089  11.376 -0.1890  0.0568 -0.0316
12127W        W27936   2.511  10.203  15.478  0.3131  0.1895 -0.0694
12128W        W27937   7.304   7.110  14.800  0.3288 -0.1030 -0.1367
12129W        W27938  14.481   4.508   4.799 -0.2217  0.2871  0.1529
12130W        W27939   6.083  10.226   5.733  0.2109 -0.3315 -0.0840
12131W        W27940   4.054  15.515   4.735  0.0455 -0.1018 -0.0243
12132W        W27941  18.400  14.319   1.998  0.1815 -0.1282  0.1417
12133W        W27942   7.922   9.445  12.061  0.4153 -0.1097  0.0573
12134W        W27943  11.344   0.078   0.183 -0.1492 -0.0523  0.0011
12135W        W27944   8.897   8.332  11.970  0.2043  0.0345  0.2166
12136W        W27945   1.934   0.538   1.542 -0.0099  0.1024 -0.1584
12137W        W27946   0.981   2.278  14.104  0.1106 -0.1630 -0.0471
12138W        W27947  16.582   5.327  12.978  0.0616  0.3315  0.4143
12139W        W27948  14.840  16.858  13.567  0.1719  0.2106  0.0913
12140W        W27949  10.382   7.854  11.226  0.1037 -0.0021 -0.1016
12141W        W27950  15.930   0.969  13.534 -0.1504  0.1503 -0.0885
12142W        W27951   9.690   8.512  14.916  0.1805 -0.1621  0.0051
12143W        W27952   4.154  12.495   2.074 -0.0577 -0.2728  0.2891
12144W        W27953   0.815  18.535  15.417  0.0520  0.0088 -0.1416
12145W        W27954  13.060  14.394   5.867 -0.0977 -0.0385 -0.0073
12146W        W27955   2.383  10.927  13.312 -0.3600 -0.1877  0.0475
12147W        W27956  14.945   3.359  14.195  0.1614 -0.1635 -0.1816
12148W        W27957   5.561  17.163   2.454 -0.0376 -0.1862  0.0749
12149W        W27958   4.732   7.853  15.332  0.0170  0.2317  0.3091
12150W        W27959  17.935  14.436   4.549  0.2723  0.5579 -0.4342
12151W        W27960   2.096   9.578  13.352  0.0728 -0.0802  0.1129
12152W        W27961   6.489   5.407   2.720  0.0693 -0.2330 -0.0625
12153W        W27962   5.313  13.983   5.313 -0.0376 -0.1130  0.0923
12154W        W27963  11.007   1.839   5.192 -0.0857  0.2680  0.1886
12155W        W27964   2.794  10.202   3.912 -0.0616 -0.0258 -0.1541
12156W        W27965  16.881  12.164  14.967  0.0181  0.1464 -0.4215
12157W        W27966  16.135  11.583  13.689  0.1588 -0.1634 -0.2052
12158W        W27967  16.298   1.815  12.762 -0.2282  0.1014 -0.2320
12159W        W27968   2.248   3.935   5.073  0.0468  0.1620  0.0768
12160W        W27969   6.364   1.270   0.149  0.0548 -0.1375  0.1078
12161W        W27970   9.504   4.303  13.865  0.1943  0.3486  0.0761
12162W        W27971   4.508   4.368   3.850  0.3195 -0.0884  0.1279
12163W        W27972   9.313   4.898  10.948 -0.0618 -0.1671  0.0328
12164W        W27973   6.013  11.659  15.522  0.1449  0.2729  0.5924
12165W        W27974  14.453  14.759   2.085  0.1237 -0.2314 -0.0885
12166W        W27975  17.229  12.865  11.767  0.2868 -0.1857 -0.0953
12167W        W27976   3.829  14.871   3.613 -0.0862  0.2516 -0.1688
12168W        W27977   4.004  10.481  15.280 -0.3512  0.0892  0.0322
12169W        W27978  18.076   4.913  11.601 -0.1137 -0.1145  0.1903
12170W        W27979  13.053  15.123  13.164 -0.0464  0.0448  0.1670
12171W        W27980   4.811  16.156  15.234  0.0457  0.1795  0.0976
12172W        W27981  16.842  11.187  12.079  0.1705 -0.0738 -0.0056
12173W        W27982  12.012   4.111   3.304 -0.1843  0.1478 -0.1831
12174W        W27983  18.161  13.502   1.181 -0.0856 -0.0286 -0.2632
12175W        W27984   2.521  14.879  13.126 -0.2803 -0.1197  0.0491
12176W        W27985   8.472   3.040   2.315 -0.0914  0.1015  0.1257
12177W        W27986   8.945  15.898   2.953  0.0686 -0.2620 -0.0670
12178W        W27987   1.819   7.210   0.301  0.2488  0.0578  0.0050
12179W        W27988   8.577  14.183  11.889  0.2210 -0.1261 -0.0486
12180W        W27989  14.614   5.434   1.000 -0.1207  0.0787 -0.0271
12181W        W27990   3.114   0.041   5.258 -0.1232 -0.0334  0.4446
12182W        W27991  15.981   7.648  10.660 -0.1487  0.1865  0.0386
12183W        W27992  16.735   1.935   2.462  0.3458 -0.0105 -0.1908
12184W        W27993   0.139  16.793  12.447  0.0832  0.1026  0.0303
12185W        W27994   0.580   7.762  13.234  0.3698 -0.4570 -0.0215
12186W        W27995  17.385   4.941  13.736  0.1598  0.1398  0.3710
12187W        W27996  11.451   2.346   2.822  0.0224 -0.0055 -0.1481
12188W        W27997   4.966   1.918   3.935  0.2612 -0.0835  0.0538
12189W        W27998  14.687   8.929   4.418 -0.2113  0.4239 -0.1971
12190W        W27999   8.591   6.501   4.982  0.1303  0.1216 -0.1089
12191W        W28000  16.152   2.483   3.329  0.2102  0.0211  0.0258
12192W        W28001   9.710   8.953   1.804  0.0267 -0.1705  0.1749
12193W        W28002   5.510   2.603  13.108  0.0465 -0.4248 -0.1799
12194W        W28003   6.432   0.547  11.109 -0.0291  0.1439  0.0029
12195W        W28004   6.643   9.636  13.641  0.3011  0.3856  0.1454
12196W        W28005  12.376  13.182   2.052  0.2884 -0.2922  0.2484
12197W        W28006   8.391   6.173  10.636 -0.1064 -0.3364  0.3272
12198W        W28007   2.060   3.251  11.288 -0.1163 -0.1501 -0.1192
12199W        W28008   8.342   9.602  14.069 -0.1451  0.0133 -0.1392
12200W        W28009  16.661  18.421  10.594  0.1369 -0.4593 -0.1714
12201W        W28010  18.578   7.221   4.022 -0.1290  0.1024  0.0771
12202W        W28011  18.386   5.692  15.183 -0.0895 -0.2131 -0.1130
12203W        W28012  10.299  14.530   4.476 -0.0579 -0.1381  0.1661
12204W        W28013  10.442   5.450   5.784  0.2130  0.2782 -0.1656
12205W        W28014   7.399   4.910  13.190 -0.0318  0.1714 -0.2012
12206W        W28015   5.004   1.602  15.107 -0.1034 -0.0754 -0.0813
12207W        W28016   7.733  11.813  14.502 -0.0022  0.1743 -0.2673
12208W        W28017   2.236  12.612   3.445  0.2553 -0.1998 -0.3510
12209W        W28018   3.211  15.448  13.506 -0.0991  0.0978  0.1379
12210W        W28019   0.375  12.654   0.800  0.3546  0.0288 -0.1641
12211W        W28020   3.076   3.439  14.538  0.0118  0.0906 -0.2142
12212W        W28021  13.430  10.812  13.073 -0.3672 -0.0157 -0.0084
12213W        W28022   7.117  16.659   4.100  0.1854  0.0990  0.1428
12214W        W28023  18.144   4.504   5.354  0.0394  0.0880  0.0412
12215W        W28024   8.591   2.734  14.216  0.1903 -0.1166  0.1307
12216W        W28025  11.805   7.166  13.785 -0.4296 -0.2246  0.2954
12217W        W28026   1.916   2.322  12.647 -0.1407  0.2526 -0.0725
12218W        W28027  13.814   6.577   2.100 -0.2441  0.0019 -0.3932
12219W        W28028   7.348   5.502   0.710 -0.2548 -0.0915  0.0919
12220W        W28029  12.310   6.806  14.998 -0.1336 -0.0437  0.3660
12221W        W28030  15.812   7.117   3.011 -0.0036  0.0182  0.0127
12222W        W28031  11.485   9.548  10.779 -0.0674 -0.0071 -0.0472
12223W        W28032   3.638  13.439  11.593  0.2637 -0.3945 -0.0690
12224W        W28033  18.221   9.243   1.305  0.2177 -0.0968 -0.1986
12225W        W28034  15.983   1.073  12.071  0.2144 -0.3482  0.4494
12226W        W28035   5.748   6.824  13.207  0.0713 -0.1445 -0.0277
12227W        W28036  16.720  10.310   2.897  0.1672 -0.0413  0.4242
12228W        W28037   8.453  11.381  13.596 -0.1761 -0.2861  0.2437
12229W        W28038   0.787  13.005  13.413  0.1696 -0.3031 -0.0653
12230W        W28039  12.064   8.290  11.915  0.0958  0.0316 -0.1078
12231W        W28040   8.688   4.084  11.550  0.1693 -0.3016  0.0610
12232W        W28041   0.875  17.484  12.236  0.0320  0.1867  0.2395
12233W        W28042   0.549  10.301  11.864 -0.0569  0.1215  0.2557
12234W        W28043   3.441   0.991  10.908 -0.2696 -0.0813 -0.3811
12235W        W28044   1.706   0.224  13.424 -0.0229 -0.3722 -0.3260
12236W        W28045  17.053   1.243   4.424 -0.1387 -0.1664 -0.0626
12237W        W28046  17.084  13.563   3.776  0.0542 -0.0415  0.3069
12238W        W28047  17.791  10.976  10.328  0.3733 -0.2794  0.0324
12239W        W28048  16.190   5.077   1.944  0.1508  0.2632 -0.1428
12240W        W28049   0.446   8.119  10.049  0.1446 -0.0626 -0.2916
12241W        W28050   8.924  12.562  12.858  0.0659 -0.2245  0.1485
12242W        W28051   6.432   0.510   1.708  0.0987 -0.2500 -0.1174
12243W        W28052  11.313   9.101   9.924 -0.1974  0.7094  0.0382
12244W        W28053   8.571  11.804  10.906  0.1480 -0.0679 -0.1010
12245W        W28054   6.992  15.952   2.895  0.3317  0.1061  0.0779
12246W        W28055   7.330   6.487  11.517  0.3513  0.1522 -0.4722
12247W        W28056  13.320   2.739   0.711 -0.0397 -0.2166 -0.2410
12248W        W28057  11.479   6.146  11.895  0.1578 -0.2499  0.1391
12249W        W28058  15.996  11.558   1.123  0.1254 -0.1114  0.1080
12250W        W28059   5.382  18.037   4.713  0.0110  0.1126 -0.0370
12251W        W28060  15.619  11.292   4.828 -0.0399 -0.4274 -0.3620
12252W        W28061  10.634   7.219   4.994  0.1956 -0.3169  0.0769
12253W        W28062  15.167  14.454  11.193 -0.3131  0.0976 -0.2021
12254W        W28063  17.659  14.370  13.357 -0.0001 -0.0431  0.0453
12255W        W28064  10.649   5.332   2.297  0.1286 -0.0174 -0.1551
12256W        W28065   1.220   0.276  11.416  0.0249  0.0101  0.2015
12257W        W28066   7.192   7.200   5.083  0.1294  0.1559 -0.1098
12258W        W28067  15.934  11.121   1.629  0.0655 -0.0676 -0.3730
12259W        W28068   1.680   0.051  10.206  0.0002  0.0674  0.1068
12260W        W28069  10.209   1.200  12.271  0.1693 -0.1474  0.3422
12261W        W28070   9.157  17.098   5.159 -0.3229 -0.0111 -0.0422
12262W        W28071   1.091   1.879  12.293  0.2177 -0.3893  0.1150
12263W        W28072   2.183  10.445   2.536 -0.0122  0.0626 -0.0445
12264W        W28073   1.437   1.966  15.233 -0.0016 -0.1006 -0.1961
12265W        W28074   6.379  15.687  12.543 -0.1929 -0.2206  0.3200
12266W        W28075   4.411  14.010  12.039  0.0400  0.1976 -0.0484
12267W        W28076   0.198   2.706  12.881  0.0877  0.1248 -0.0008
12268W        W28077  11.448  12.994   3.169  0.3439 -0.3039 -0.2628
12269W        W28078   1.144  12.030  11.175  0.0910 -0.3518 -0.2492
12270W        W28079   1.727   0.717   3.509 -0.1163  0.3024  0.4218
12271W        W28080  12.369   4.028  13.038  0.3055  0.0063  0.1019
12272W        W28081   9.140  14.175   5.598  0.0265 -0.1459  0.0455
12273W        W28082   1.975  15.606   3.261  0.4976 -0.2954 -0.2367
12274W        W28083   1.459  13.780   4.557 -0.1353  0.2417  0.1753
12275W        W28084   3.081  15.834   2.500 -0.0719  0.1438  0.2711
12276W        W28085   7.994  15.806  14.006  0.2199 -0.2114  0.1201
12277W        W28086   8.829   4.311   4.556 -0.1275  0.2213 -0.0166
12278W        W28087   9.533  13.707  11.777 -0.2675 -0.0051  0.1057
12279W        W28088  16.035  17.200   3.399  0.1700  0.0105  0.3626
12280W        W28089  16.227   4.697  14.381  0.1496  0.0475  0.3167
12281W        W28090   5.809   5.354   4.737 -0.2235 -0.2918 -0.0859
12282W        W28091   2.145   8.458   1.583  0.0568  0.1501  0.0276
12283W        W28092   9.607  17.220   5.473  0.2629 -0.0869  0.0037
12284W        W28093  14.631  12.314   4.300 -0.3649  0.0404  0.0924
12285W        W28094  12.436  13.839   3.152  0.2463  0.1975 -0.2233
12286W        W28095  14.140  13.583   4.407 -0.1157  0.3018 -0.0902
12287W        W28096  13.425  17.546   1.992 -0.3162 -0.0033 -0.1795
12288W        W28097   5.385   0.380  12.606  0.1296  0.0385 -0.0436
12289W        W28098   6.808  15.003   0.843  0.0020  0.0023 -0.0776
12290W        W28099   3.528  10.072   1.939 -0.1053  0.3088 -0.0759
12291W        W28100  14.092   3.150   1.839  0.3670 -0.0847  0.1128
12292W        W28101  14.005  16.381  15.281  0.2022 -0.0431  0.0114
12293W        W28102   1.140   2.997   4.958 -0.1468 -0.0072  0.2169
12294W        W28103  10.866   5.150  11.087 -0.1482 -0.2733  0.0637
12295W        W28104   1.986  12.046  10.873  0.0205 -0.1310  0.0241
12296W        W28105  13.244   6.973  11.080 -0.0385  0.2508 -0.0510
12297W        W28106   2.150  10.180  12.774  0.0036 -0.3058  0.2981
12298W        W28107  10.306   3.632   5.526  0.1261 -0.2491 -0.0140
12299W        W28108  16.874   4.842   2.447  0.1428  0.1213 -0.1703
12300W        W28109  11.318   7.082  14.926  0.3366  0.1960  0.0300
12301W        W28110  15.892   6.849   1.205  0.0443 -0.4485 -0.1684
12302W        W28111   5.593   5.853  14.212 -0.0277 -0.1365 -0.0607
12303W        W28112   0.570  18.136   4.084 -0.3714  0.0779 -0.0300
12304W        W28113   5.720   1.345   5.600  0.0693 -0.2610 -0.3482
12305W        W28114  10.148   3.515  12.266 -0.2405 -0.0918 -0.1843
12306W        W28115   6.612   1.375   0.587  0.1690 -0.0543 -0.1938
12307W        W28116  11.544   1.956   1.204  0.1708  0.0785 -0.0389
12308W        W28117  14.548   0.860   5.704 -0.0389  0.3385 -0.1147
12309W        W28118  13.343   0.480   6.305  0.4623  0.2899 -0.1846
12310W        W28119   7.011  11.807   0.258 -0.0201 -0.1449 -0.2547
12311W        W28120   1.455  13.035  11.658 -0.0189  0.1165 -0.3098
12312W        W28121   5.646  12.758  12.086 -0.0442  0.0721 -0.1915
12313W        W28122   8.609   5.733   1.269 -0.0900  0.0748  0.0148
12314W        W28123   6.787   7.213  12.269  0.1034  0.1621  0.2253
12315W        W28124   1.392  17.271   0.757 -0.1430  0.2929  0.2161
12316W        W28125   4.673  18.564   2.216  0.2605  0.1727  0.1542
12317W        W28126   7.171   2.253  11.949  0.3596  0.2546 -0.0597
12318W        W28127  16.665   5.074  12.579 -0.0178  0.0530  0.0866
12319W        W28128  12.318  11.165   5.490  0.2918  0.0594 -0.0824
12320W        W28129  16.476  11.192   3.623 -0.1581 -0.0193 -0.0081
12321W        W28130   2.248   5.022   4.700 -0.3910 -0.1703 -0.2545
12322W        W28131   1.342  16.495   1.943  0.3858 -0.0358 -0.1571
12323W        W28132  10.648  15.833   2.174 -0.0264  0.0446 -0.0200
12324W        W28133   9.632  17.499  12.405  0.0995  0.0584 -0.1198
12325W        W28134  10.701  18.371  13.576  0.0040  0.1201  0.0710
12326W        W28135  16.195  15.462  10.520 -0.1897 -0.0301 -0.0301
12327W        W28136  17.588   8.919   0.753 -0.2659  0.2380 -0.3642
12328W        W28137  18.197   6.529   1.871  0.3004  0.3647  0.0687
12329W        W28138  10.609  14.853   0.679 -0.1946  0.2034 -0.0818
12330W        W28139  18.538   3.015  13.469  0.0292  0.0664 -0.0181
12331W        W28140  12.307  16.664  12.030 -0.0229 -0.0686  0.0927
12332W        W28141   7.735  17.468   2.369 -0.2677  0.3453 -0.1795
12333W        W28142   2.773  18.181  11.144 -0.2516  0.3189  0.5405
12334W        W28143   2.647   6.254  12.271  0.2182  0.0616 -0.2770
12335W        W28144  16.352  16.703  10.107  0.4115 -0.2451  0.0550
12336W        W28145  17.314   1.009  11.795 -0.2359 -0.0679 -0.0180
12337W        W28146   3.308  16.910  10.839 -0.0643  0.0526 -0.1167
12338W        W28147   0.046  17.433  10.547 -0.0313 -0.2803  0.1441
12339W        W28148  16.381  15.172  14.208  0.1134 -0.0597 -0.2232
12340W        W28149   1.894  15.054   0.504 -0.1028  0.2565 -0.2148
12341W        W28150  18.566   3.086   2.491  0.0602 -0.1863  0.3115
12342W        W28151  11.876  13.022  14.575  0.1257  0.0226  0.0290
12343W        W28152   5.601  15.167   2.362  0.0333  0.4805  0.0308
12344W        W28153   5.555   2.969   3.413 -0.0771  0.2214  0.1847
12345W        W28154   8.920  14.998   4.456 -0.0972 -0.3321 -0.0621
12346W        W28155   9.147  11.715   4.103 -0.1537  0.2119 -0.2118
12347W        W28156  10.321   2.477  14.410 -0.1547  0.0275 -0.2600
12348W        W28157  10.994   5.840  11.507 -0.1824 -0.3688 -0.0018
12349W        W28158   5.688   4.827   1.337 -0.1297 -0.1197 -0.0576
12350W        W28159  11.840   4.075   4.789 -0.0670 -0.6535  0.0922
12351W        W28160  17.151   7.964   2.064  0.0085  0.1360  0.2484
12352W        W28161  16.349  18.328   2.636  0.1170  0.1996  0.5271
12353W        W28162   4.797  10.209   1.237 -0.0258 -0.0025  0.1522
12354W        W28163  18.529  16.617   2.078 -0.2789 -0.0778  0.0091
12355W        W28164  17.757  10.087  14.295  0.2859 -0.2952 -0.2086
12356W        W28165   7.211   5.527   4.978  0.1956 -0.1218  0.2512
12357W        W28166   7.803   8.462  15.283 -0.2058  0.0678  0.2197
12358W        W28167   6.791  18.047   3.370 -0.0560 -0.0615 -0.1357
12359W        W28168   6.591   3.701  11.488 -0.0689  0.2767  0.1993
12360W        W28169   4.565  12.786   1.274 -0.1327  0.1365  0.5273
12361W        W28170   3.605  12.250   0.098 -0.2453  0.2899 -0.1646
12362W        W28171   5.938  16.311   0.361 -0.1690 -0.0430 -0.0490
12363W        W28172  16.295   1.526  11.833  0.0396 -0.0242 -0.1018
12364W        W28173   5.357  18.033   0.695  0.0215 -0.0599  0.0363
12365W        W28174   5.127   8.454   1.739  0.1236  0.1864 -0.1678
12366W        W28175   6.686   2.608   5.044 -0.0052  0.0209 -0.0290
12367W        W28176  10.322  12.713  14.960  0.0403  0.0597 -0.1955
12368W        W28177  14.884   4.475  11.025  0.0433 -0.3116  0.3196
12369W        W28178  15.971   5.194   1.006 -0.0313  0.0668  0.2243
12370W        W28179  17.775   3.410  12.118  0.4490 -0.1718 -0.0713
12371W        W28180  10.224   5.447   3.353  0.1499 -0.0473  0.0813
12372W        W28181   0.732  15.435  11.626  0.0319 -0.0120 -0.1109
12373W        W28182   7.743  15.356  11.875  0.0577 -0.0159  0.1255
12374W        W28183  14.620   4.585   3.786 -0.2038  0.2936  0.0381
12375W        W28184  11.317  16.990   3.042 -0.1115  0.1898  0.0513
12376W        W28185  10.456  11.438   3.618  0.0167  0.1936  0.0483
12377W        W28186  12.462   6.263   5.035 -0.0833  0.4094 -0.1472
12378W        W28187  17.674   0.573  15.068  0.0361  0.0803  0.0472
12379W        W28188   8.351   6.612  12.478  0.4153  0.0508 -0.2823
12380W        W28189  11.743  14.976   5.044 -0.0392 -0.0749 -0.1351
12381W        W28190  15.179  14.515  12.936  0.1989  0.2386  0.2861
12382W        W28191  15.552   7.176   0.383 -0.3533  0.1868 -0.2454
12383W        W28192  10.404  15.279  12.364  0.2815  0.4519  0.2041
12384W        W28193   7.768   5.357  14.778 -0.1064  0.1169 -0.1556
12385W        W28194  13.293   4.918   2.150  0.0017 -0.2358 -0.2527
12386W        W28195  14.531   0.469  14.577  0.2656  0.1418 -0.1443
12387W        W28196  11.260   1.257   3.541 -0.0648  0.3011 -0.0542
12388W        W28197  15.096   0.346   2.360  0.2334  0.0780  0.0601
12389W        W28198   4.761  14.641   0.188  0.1168  0.1268  0.0084
12390W        W28199  12.680  13.672   5.475 -0.1579  0.0483 -0.1986
12391W        W28200   7.571   7.993  13.900  0.0781  0.1355 -0.1028
12392W        W28201  17.462  11.118   3.161 -0.0019 -0.3746  0.1459
12393W        W28202   9.372   4.104  15.255  0.1341  0.2839 -0.1440
12394W        W28203  16.453  12.111   1.634  0.1847  0.3284 -0.1487
12395W        W28204  14.761  13.440  14.978 -0.0345  0.2607 -0.4662
12396W        W28205  14.935  12.974  14.402  0.0685  0.0023  0.0549
12397W        W28206   0.255  11.937  11.811 -0.0183  0.0675  0.1513
12398W        W28207  11.914   3.885  14.838 -0.1203 -0.2538 -0.1755
12399W        W28208   5.027   5.510   9.884  0.1559 -0.0785  0.1455
12400W        W28209  17.176   2.344   0.573  0.1328  0.0783 -0.0816
12401W        W28210   5.121   9.347   2.718 -0.2505 -0.0559  0.0371
12402W        W28211   6.439  12.835   4.623  0.2802 -0.3058 -0.1152
12403W        W28212   7.718  17.880   0.810  0.0936 -0.3045 -0.0494
12404W        W28213  11.399  10.960  12.800  0.3957  0.0657 -0.0342
12405W        W28214  12.823  15.625   2.997 -0.3456 -0.1483 -0.3270
12406W        W28215   0.086   1.201  11.028  0.2106  0.1049  0.2730
12407W        W28216  11.280  14.299   4.005  0.2008 -0.4145 -0.1683
12408W        W28217  15.134   0.705  14.023  0.1593 -0.1267  0.2108
12409W        W28218   4.393  13.345   3.910 -0.0205 -0.0794 -0.2154
12410W        W28219   9.928  13.635  14.887 -0.2641  0.2433 -0.0151
12411W        W28220   2.842   7.144   4.481 -0.0908 -0.1754  0.1632
12412W        W28221  11.710   5.155   1.012 -0.0026 -0.0446 -0.2276
12413W        W28222  15.880   8.073  11.003  0.5013  0.1620 -0.0548
12414W        W28223   7.141   6.220   3.933 -0.0818 -0.0503  0.1349
12415W        W28224   9.248   3.220   1.285 -0.0375  0.0256 -0.0107
12416W        W28225  16.241   4.142  15.443 -0.0325 -0.0152 -0.0656
12417W        W28226   7.881   5.632   0.101 -0.5562  0.2699  0.1454
12418W        W28227   0.698  12.157   3.549 -0.1901  0.0148 -0.1319
12419W        W28228  12.539   5.692  13.530 -0.0133  0.3298 -0.0980
12420W        W28229  12.179   5.984   0.474  0.0797  0.0886 -0.0428
12421W        W28230   6.098   1.253  12.127 -0.0578 -0.0861 -0.0621
12422W        W28231  12.093   3.767   1.000  0.3330 -0.1653 -0.1600
12423W        W28232   4.742   1.923   0.240 -0.1637 -0.1009 -0.2446
12424W        W28233  14.505   3.851   5.221  0.0346  0.1612 -0.2241
12425W        W28234   5.351  18.636  11.836  0.0854 -0.0036  0.2419
12426W        W28235  17.977  15.301   3.097 -0.1274 -0.0082 -0.1191
12427W        W28236  17.311   6.378  14.051 -0.1791  0.1849 -0.1065
12428W        W28237   8.750  17.865   2.109  0.1890  0.1141  0.2553
12429W        W28238   3.907   0.387   4.990  0.2245  0.3394 -0.1798
12430W        W28239  12.709  10.233   4.478 -0.2722  0.0257 -0.2074
12431W        W28240  12.341  18.120   5.208 -0.6476  0.3266  0.0978
12432W        W28241  12.652   7.889  13.418  0.0364 -0.0502 -0.0089
12433W        W28242   4.894  13.929  15.216  0.2329  0.0033 -0.0566
12434W        W28243  16.017   5.184  13.580  0.3736  0.1592  0.2569
12435W        W28244  17.810  13.583  10.238 -0.0297 -0.3466 -0.2806
12436W        W28245   1.367   5.442  13.558 -0.0793  0.2408  0.3081
12437W        W28246   3.014   0.058  11.010  0.0691 -0.1241  0.0314
12438W        W28247  12.366   2.164   5.668 -0.0238 -0.1639  0.3536
12439W        W28248  17.254   3.583  14.134 -0.0823  0.1464  0.2240
12440W        W28249  10.650   1.294   5.797  0.3249  0.1280  0.0813
12441W        W28250  15.218  14.257  14.967  0.1336 -0.0320  0.1601
12442W        W28251   1.716   6.334   2.369 -0.2899 -0.2286 -0.0913
12443W        W28252   1.298   0.083  11.872  0.0761  0.1587  0.1624
12444W        W28253   8.420  16.519  10.786  0.0487  0.2902  0.0864
12445W        W28254  10.097  11.852  14.955  0.0402  0.0817  0.2146
12446W        W28255   8.348  14.233  12.799  0.0761  0.1320 -0.1891
12447W        W28256   0.470   4.476   4.061 -0.0917 -0.0611 -0.0869
12448W        W28257  11.885   0.309   4.972 -0.0694  0.0870  0.1048
12449W        W28258   8.088  10.813  12.516 -0.7241 -0.0650  0.1672
12450W        W28259  11.401   4.894   0.654  0.2318 -0.1706 -0.2384
12451W        W28260   9.082  14.823  12.359  0.1425  0.0468  0.0840
12452W        W28261   8.301   6.226  12.101  0.0074  0.0975  0.0483
12453W        W28262  16.928  17.146  15.429 -0.3521 -0.1399 -0.1875
12454W        W28263  11.925  13.913   4.025 -0.6266  0.3395  0.2063
12455W        W28264   8.384   4.794   1.088 -0.1678 -0.2156 -0.0373
12456W        W28265   7.143  14.276   0.922 -0.1755 -0.1624  0.1158
12457W        W28266   0.318  14.518   2.400 -0.1033  0.0066 -0.0133
12458W        W28267  16.458   8.657   3.511  0.1826  0.0088  0.1490
12459W        W28268  14.530   9.820  14.001 -0.0396 -0.0988  0.0622
12460W        W28269   4.833  15.841   2.698  0.1524  0.1727 -0.0370
12461W        W28270  17.028   1.380   0.530  0.1013  0.3124  0.2759
12462W        W28271  10.414  16.941  11.815 -0.1091  0.0630 -0.2372
12463W        W28272   4.780   6.625   4.068  0.0942  0.0720  0.0172
12464W        W28273   9.082  14.481  13.205 -0.1231 -0.2112 -0.0802
12465W        W28274  17.939   7.503   2.443 -0.1409  0.0413  0.1042
12466W        W28275   9.457   2.198   1.841 -0.3776  0.0561  0.0581
12467W        W28276   7.048  11.541   4.997  0.5773  0.2198 -0.1255
12468W        W28277  10.515   8.434   1.844  0.2443  0.0200  0.2125
12469W        W28278  17.233   4.225  11.894  0.2882  0.1865 -0.0916
12470W        W28279   3.095   0.812   2.206 -0.1254 -0.2665 -0.2249
12471W        W28280   5.662  16.530   5.054 -0.0238 -0.1599 -0.1846
12472W        W28281  11.115  14.878   1.384  0.0968 -0.1843 -0.0882
12473W        W28282   4.656   6.473  10.011 -0.0667  0.1707 -0.3172
12474W        W28283  16.806   7.222   4.854  0.0168 -0.3459  0.1179
12475W        W28284   0.946  10.677   2.105 -0.3958 -0.2765  0.4407
12476W        W28285  13.954  14.976  15.400  0.0258 -0.0254  0.2171
12477W        W28286  18.027   0.366   0.983 -0.1752 -0.0999  0.0122
12478W        W28287   6.755   4.315  10.695  0.1357 -0.2407  0.0201
12479W        W28288  10.038  13.644   4.849 -0.0955  0.3482  0.3146
12480W        W28289  18.367   0.837   4.687  0.5326  0.2836 -0.2746
12481W        W28290   7.546   8.401  13.349  0.3897 -0.1471  0.2310
12482W        W28291   4.112  12.994   4.093  0.2219 -0.0470 -0.2151
12483W        W28292  14.477  11.975  14.188 -0.3089 -0.0116 -0.1139
12484W        W28293   1.118  12.103  14.434 -0.0306 -0.3281 -0.0107
12485W        W28294  10.456   8.671  11.450  0.0566  0.0984  0.0966
12486W        W28295  15.336  14.652   4.558 -0.1600  0.0729  0.1172
12487W        W28296  14.241  12.387  11.076  0.0090 -0.1679 -0.1111
12488W        W28297   2.872  11.436  14.844 -0.0332 -0.0115 -0.0204
12489W        W28298   8.048  15.027   2.276 -0.0148  0.1132  0.3866
12490W        W28299   8.762  11.725  15.087 -0.2691 -0.4473 -0.0089
12491W        W28300  14.263   2.906  14.670  0.1261  0.0983  0.0382
12492W        W28301   2.684  12.222   0.616  0.3482 -0.0224  0.1485
12493W        W28302  18.556  13.245   3.548  0.0444  0.3752 -0.0145
12494W        W28303   0.236  13.446   1.432  0.0824 -0.4080 -0.0090
12495W        W28304  16.190   7.454  11.969  0.1310  0.2893 -0.1831
12496W        W28305   2.091   7.178  11.369  0.1502 -0.3908 -0.0710
12497W        W28306  18.033  15.827   1.206  0.2319  0.2094  0.0761
12498W        W28307   3.240   4.065  11.153  0.2327 -0.2188  0.2522
12499W        W28308   7.989   3.056   2.436  0.1723 -0.2806  0.0769
12500W        W28309   0.951  14.959  13.186  0.1113 -0.1159 -0.1225
12501W        W28310   0.316   0.766   3.494 -0.2001  0.1585 -0.0252
12502W        W28311   4.451  13.538  11.807 -0.1264 -0.1478  0.3414
12503W        W28312  17.281   7.335   3.221 -0.0583  0.1478  0.2305
12504W        W28313   3.999  15.895  11.647 -0.2156 -0.0383  0.0247
12505W        W28314  15.176  12.853   0.940 -0.3237 -0.0172 -0.1499
12506W        W28315   2.147   1.139   0.036 -0.0594 -0.0364  0.1692
12507W        W28316  13.111   5.684  10.052  0.0917  0.0463  0.1141
12508W        W28317   0.797  12.985   1.480 -0.1732 -0.1606  0.0106
12509W        W28318  11.643   1.366   2.023  0.1458 -0.0913 -0.3310
12510W        W28319   9.412  10.587   4.759 -0.2006 -0.3609  0.3914
12511W        W28320  14.630   9.220  11.913  0.1320 -0.0667  0.0449
12512W        W28321  13.477   6.492   3.074 -0.1165  0.0146  0.0001
12513W        W28322  15.818   3.554   3.475  0.1928  0.1196  0.1384
12514W        W28323  11.802   9.625   5.765  0.0769 -0.2377  0.2056
12515W        W28324  16.888  14.124   4.161  0.0075 -0.3075  0.1172
12516W        W28325   4.441  16.177   3.453 -0.2763 -0.1758 -0.2383
12517W        W28326  14.429  10.490   0.191 -0.1511  0.2809  0.1793
12518W        W28327   2.823   9.987  15.105 -0.1372  0.0696  0.0627
12519W        W28328   1.886  12.534   2.268 -0.2333  0.0198  0.1001
12520W        W28329   0.891  10.693  11.705 -0.1125 -0.3413 -0.0644
12521W        W28330   6.409   5.428  13.378 -0.1061  0.0693 -0.0177
12522W        W28331  11.115   3.766   3.890  0.0716  0.2519  0.1396
12523W        W28332   6.707   6.469   3.758  0.0633  0.0653  0.2184
12524W        W28333   2.089   2.110  13.927  0.1228 -0.1459  0.2566
12525W        W28334  16.515  13.821   0.607 -0.1992  0.1273  0.1069
12526W        W28335   7.240  13.232   3.203 -0.1274 -0.1677  0.0580
12527W        W28336   3.968  17.307   5.523 -0.0478 -0.2352  0.0448
12528W        W28337  13.494   1.212   3.763 -0.0070 -0.3257  0.2140
12529W        W28338  12.733  18.079   2.417  0.0681  0.1013 -0.0608
12530W        W28339  16.222   1.348  12.637  0.3900 -0.0085 -0.0299
12531W        W28340   3.536   2.765   1.659 -0.4579 -0.2411 -0.0885
12532W        W28341   0.542  12.045   4.755  0.0271 -0.3282  0.0067
12533W        W28342  11.272   6.627  15.204 -0.3886  0.2091 -0.0024
12534W        W28343  15.539   4.974  13.657  0.0888 -0.0305  0.0500
12535W        W28344  17.591  11.406  14.875 -0.0041  0.2122  0.0772
12536W        W28345   7.242  16.281  11.506 -0.0584  0.1473 -0.1239
12537W        W28346  17.848   2.117   3.971 -0.1729 -0.1582  0.1764
12538W        W28347  15.839  12.443   2.371  0.0618 -0.1562  0.2825
12539W        W28348   1.543   3.365  10.689 -0.3569  0.0296 -0.0726
12540W        W28349  16.616   7.958  11.372 -0.0517 -0.0622  0.2880
12541W        W28350  14.912   5.729  10.792  0.0165  0.1705 -0.2087
12542W        W28351   8.834  18.437   0.660  0.1680  0.0239  0.2885
12543W        W28352  14.592   0.988  11.088  0.2993  0.0346 -0.0911
12544W        W28353   6.284   0.233  13.114  0.0225 -0.1320  0.0269
12545W        W28354  12.871   7.322  14.270  0.1033 -0.1540 -0.0030
12546W        W28355   0.399  12.952  12.840 -0.2984  0.2301  0.3381
12547W        W28356   0.367   6.423  11.996  0.0910  0.1447  0.0102
12548W        W28357  10.654  13.643   1.261  0.1414  0.1325  0.0323
12549W        W28358   1.581  15.744  12.922 -0.2358 -0.1687  0.2888
12550W        W28359   1.293  14.100   0.471 -0.1464 -0.1854  0.2657
12551W        W28360  12.436   0.981  13.837  0.2639 -0.0716  0.1877
12552W        W28361   1.001  13.217   2.033 -0.0918  0.1555 -0.3796
12553W        W28362  14.731   4.888  12.453 -0.0473  0.0979  0.2613
12554W        W28363  13.826  10.510  15.176 -0.1193 -0.4403  0.0146
12555W        W28364  14.097  12.160  15.398 -0.1083  0.1765 -0.0224
12556W        W28365  11.521  10.734  13.755  0.2785 -0.0018  0.0202
12557W        W28366   1.626   7.849  13.277  0.0872 -0.3184  0.0553
12558W        W28367   5.131   6.865  14.641  0.3625  0.0522 -0.0676
12559W        W28368   2.230  17.365   2.536  0.3241  0.2107 -0.3007
12560W        W28369  13.354  11.972  11.069  0.1111  0.2718  0.2478
12561W        W28370   2.688   1.810   3.797 -0.2068 -0.2603 -0.1371
12562W        W28371  10.139   6.380  14.297 -0.3746 -0.0158  0.0508
12563W        W28372  14.040   7.285   0.533 -0.2034  0.1811  0.2199
12564W        W28373   7.068   1.140  10.619  0.1650 -0.1544 -0.1948
12565W        W28374   6.068   9.701   1.461 -0.0024 -0.1259  0.0402
12566W        W28375   5.387   8.218  11.850  0.1139 -0.3859 -0.2633
12567W        W28376   1.986   1.920   1.624 -0.2175 -0.0326 -0.0187
12568W        W28377  14.387   8.774  11.671  0.0790 -0.0409 -0.1106
12569W        W28378   0.353   2.231  11.896 -0.0468  0.0415  0.2095
12570W        W28379  11.131  13.340  14.881  0.1732 -0.3177 -0.0042
12571W        W28380   0.549   4.354  15.552  0.3990 -0.0815  0.4011
12572W        W28381   3.129   3.545  13.704  0.0716  0.1350 -0.0173
12573W        W28382   4.182  12.160   4.546  0.1095 -0.0633  0.3650
12574W        W28383  14.316   9.507  12.309 -0.2816  0.2134 -0.4822
12575W        W28384   7.379  10.318  13.508  0.3945 -0.0931 -0.2377
12576W        W28385  11.624   3.409  11.837  0.0417  0.0897  0.2095
12577W        W28386   7.139   0.950   5.918 -0.0383 -0.0152 -0.1572
12578W        W28387  13.800   1.706  14.951  0.2212 -0.0779 -0.1549
12579W        W28388   3.681   5.847   2.220 -0.0843 -0.1551 -0.1342
12580W        W28389  14.470   8.466  15.130 -0.0716 -0.2553 -0.1555
12581W        W28390  11.693  10.347   0.467 -0.4269  0.0834  0.2254
12582W        W28391  15.007  12.452   0.740 -0.1020  0.0680  0.2252
12583W        W28392  16.672  12.577   9.491  0.0794 -0.0122 -0.3002
12584W        W28393  16.250   5.026   0.556 -0.0730 -0.1042  0.2222
12585W        W28394   7.109   1.771   6.282 -0.2021 -0.0508 -0.1885
12586W        W28395  10.527   0.288   1.023 -0.0150 -0.2700  0.1487
12587W        W28396  12.410   5.201  13.893 -0.2361 -0.2742  0.2119
12588W        W28397   0.558   0.546   1.539 -0.0452  0.2211  0.0496
12589W        W28398  17.373   9.142  12.211  0.0663  0.0837 -0.2831
12590W        W28399   8.472  17.016   4.889 -0.1318 -0.1465  0.4138
12591W        W28400  11.296  15.173  13.593 -0.0379  0.2258 -0.1279
12592W        W28401   9.650  13.744   1.166  0.1683 -0.2487  0.0349
12593W        W28402   7.176  17.708  13.433  0.0626  0.0022  0.0556
12594W        W28403   2.882  18.657   5.754 -0.1407 -0.2802  0.3693
12595W        W28404   2.319  15.616   1.309 -0.1770 -0.1803 -0.0998
12596W        W28405   3.508   1.752  12.205 -0.3035 -0.0025 -0.0948
12597W        W28406  15.697   8.663  14.538  0.0739 -0.1261 -0.0624
12598W        W28407   3.136  13.033  14.230  0.0657 -0.2709  0.1662
12599W        W28408  17.681  10.394  11.141 -0.2263  0.3944  0.1144
12600W        W28409  12.198  11.485  15.444  0.0327  0.1056 -0.0143
12601W        W28410  14.445   3.428  11.131  0.2931  0.0981  0.0666
12602W        W28411  10.635   5.798   3.263  0.2659  0.3102 -0.0286
12603W        W28412  11.378   9.946  12.390  0.2132  0.0680  0.0445
12604W        W28413  14.680   5.641   4.994  0.0363 -0.2798  0.0880
12605W        W28414  14.310   6.458   0.877 -0.0930  0.0793  0.0433
12606W        W28415   9.861  18.509   3.026  0.1781  0.0289  0.0160
12607W        W28416  13.320   6.438   3.568  0.3021 -0.0235 -0.0338
12608W        W28417  10.395  13.983   3.123 -0.1586 -0.1877 -0.0930
12609W        W28418  16.904  18.553  13.854  0.2207 -0.0034 -0.2371
12610W        W28419   1.821  11.317  12.576  0.0316  0.3600  0.0154
12611W        W28420  10.282  15.264  12.853 -0.2674  0.2487  0.0674
12612W        W28421  12.172   0.568   1.918 -0.0607  0.0858 -0.1054
12613W        W28422   2.202   7.316   0.649  0.1304  0.1352 -0.0178
12614W        W28423  11.167  15.362   1.626 -0.0549 -0.0263  0.0981
12615W        W28424   0.428  14.111  12.127  0.1820  0.0348  0.1132
12616W        W28425  18.347   9.486  10.956 -0.1609  0.0297 -0.3393
12617W        W28426  17.543   2.990  13.617  0.0680 -0.1608  0.2397
12618W        W28427  16.065  12.975  12.391 -0.0398 -0.2015 -0.1062
12619W        W28428   2.923   4.756  11.547  0.1494  0.1978  0.0301
12620W        W28429   4.422  15.144  13.506  0.1303  0.2353 -0.0971
12621W        W28430   5.714  12.169  10.797 -0.1505 -0.1267 -0.2083
12622W        W28431   2.354   2.372   3.228  0.3158 -0.1484 -0.1790
12623W        W28432   4.730  18.372  15.443  0.0684 -0.0196 -0.0027
12624W        W28433   3.140  14.010   1.881  0.1034  0.3181 -0.1117
12625W        W28434  18.248  17.191   3.400 -0.1758 -0.2173  0.1454
12626W        W28435  15.500   3.896   1.151 -0.1858  0.0525 -0.0940
12627W        W28436  13.719  12.202  13.184  0.2341  0.0259  0.1593
12628W        W28437   0.820  10.186  13.256 -0.1365 -0.1963 -0.0464
12629W        W28438   3.118   5.487   0.469  0.0058  0.2073 -0.0393
12630W        W28439   8.763   3.361  13.334 -0.1177 -0.0901  0.2798
12631W        W28440   2.736   3.573   0.158 -0.2881 -0.0312 -0.1173
12632W        W28441  11.604   9.862  11.500 -0.2772  0.0120  0.2315
12633W        W28442   6.288  11.831  13.575 -0.0909  0.2988 -0.2602
12634W        W28443  10.253   4.855  11.753 -0.0571 -0.3376  0.4103
12635W        W28444  17.182  17.462  15.040 -0.0871  0.1206 -0.0146
12636W        W28445  10.799  10.249  13.420 -0.0283  0.1267 -0.1850
12637W        W28446   6.303  11.850   3.607  0.1370 -0.0742  0.1344
12638W        W28447   0.707   0.383  15.363 -0.0213  0.0617  0.1339
12639W        W28448   6.914   5.403   1.931 -0.1841 -0.2811 -0.1038
12640W        W28449   2.014   4.943  15.043 -0.0121 -0.2328  0.0725
12641W        W28450   7.841  10.386  12.697  0.1138 -0.0323  0.3150
12642W        W28451  18.519  18.671  10.304 -0.3016 -0.0006 -0.0681
12643W        W28452  16.569  14.875   4.781 -0.0701  0.0282  0.0296
12644W        W28453  15.422  14.955   1.709 -0.1088 -0.0227 -0.1110
12645W        W28454   6.296   5.917   1.531  0.1497 -0.3502 -0.1224
12646W        W28455  13.193   4.994  11.810 -0.0105  0.0858 -0.0064
12647W        W28456   3.480  12.010   5.108  0.1514 -0.0379 -0.2560
12648W        W28457   8.148   5.279   4.705  0.1435  0.0172 -0.3264
12649W        W28458  10.919  16.363   2.564  0.0526  0.0096 -0.0853
12650W        W28459   4.482   6.201   4.047  0.1376  0.1703 -0.1515
12651W        W28460  10.105  17.125   5.592 -0.0387  0.1508 -0.0889
12652W        W28461   5.490  11.905   4.814  0.1115 -0.1720  0.1138
12653W        W28462   3.331   3.188   3.615 -0.2960  0.1864  0.3324
12654W        W28463  14.370   7.802   4.016  0.2733  0.2231 -0.0533
12655W        W28464   1.697  14.161  12.906  0.0875 -0.1218 -0.2175
12656W        W28465  13.722   8.123   5.178  0.2011  0.1090  0.0755
12657W        W28466   4.966  16.917   1.439  0.0673 -0.0012  0.0115
12658W        W28467  18.497  15.774   2.129 -0.1449 -0.2246 -0.2314
12659W        W28468   0.081  10.310  13.363  0.1418 -0.0694  0.0670
12660W        W28469  18.609  18.114  13.768 -0.1000 -0.2444  0.0577
12661W        W28470   9.806   4.612  10.652 -0.0681 -0.0906 -0.0475
12662W        W28471   3.142   6.191  10.802 -0.0570 -0.0127 -0.3313
12663W        W28472   7.567   2.128   1.415  0.1146 -0.1547  0.2988
12664W        W28473  16.265   8.398   1.916  0.0573  0.0396 -0.0672
12665W        W28474  15.425   5.629   3.385 -0.0302 -0.0547 -0.2327
12666W        W28475  12.736  11.638   5.960  0.0780  0.1572  0.0671
12667W        W28476  11.053  12.101   4.689 -0.1853  0.0286  0.1140
12668W        W28477  18.426  10.454   5.118 -0.1538 -0.3760 -0.0057
12669W        W28478  11.478  16.470  13.147 -0.3101  0.0758  0.2319
12670W        W28479   3.639   5.676  11.116  0.1125 -0.1775  0.1823
12671W        W28480  17.976  16.289   0.442  0.2069 -0.0818 -0.1623
12672W        W28481   3.798   3.498  11.702  0.1454  0.1902  0.0403
12673W        W28482  10.414  10.374   2.852 -0.1346  0.0753  0.0129
12674W        W28483  14.496   1.965   4.486  0.2224 -0.0353 -0.0110
12675W        W28484   3.955  17.804  11.225 -0.2414 -0.0312  0.0760
12676W        W28485  15.007   8.564  15.059 -0.1046  0.0339 -0.1412
12677W        W28486  16.765   8.611   9.804 -0.0616  0.2478  0.0461
12678W        W28487   9.054  12.981  13.224 -0.0331 -0.3836 -0.2284
12679W        W28488   8.949   1.063  13.494  0.0413  0.0979  0.1932
12680W        W28489  16.900  17.327   1.524  0.4064 -0.1455 -0.0945
12681W        W28490   2.657  10.468   2.234 -0.0632  0.1326  0.0656
12682W        W28491   8.590  11.567   2.823 -0.0924 -0.0586 -0.1452
12683W        W28492  11.945   6.953   3.473 -0.3226  0.0546  0.2355
12684W        W28493  10.037  17.128   2.545  0.1084  0.0759  0.0389
12685W        W28494  12.731  18.637   1.697 -0.3236  0.2576 -0.1174
12686W        W28495   3.531   5.971  14.305 -0.3464 -0.0365 -0.0142
12687W        W28496  15.178  15.022   4.971 -0.1527  0.0870  0.0030
12688W        W28497   7.595   6.999   5.051  0.0033  0.0165 -0.2859
12689W        W28498   3.926  11.505   0.875 -0.0566  0.0012 -0.1452
12690W        W28499  17.566  14.155   3.415 -0.2220 -0.0649  0.0137
12691W        W28500   2.103  16.854  14.753  0.1415 -0.0672  0.2069
12692W        W28501   5.144   7.363  11.908  0.1849 -0.1594 -0.1780
12693W        W28502  16.926  17.972  13.653  0.3030 -0.1698 -0.0980
12694W        W28503   2.182  11.302  12.947 -0.2671  0.0597 -0.0839
12695W        W28504   3.651   4.712  12.282  0.0670 -0.2485 -0.1877
12696W        W28505  18.454  17.634  13.669  0.0851 -0.0116 -0.2216
12697W        W28506  16.507   1.719  10.832  0.0886 -0.0748 -0.1987
12698W        W28507  17.471   1.280   0.786 -0.1646  0.0073  0.1297
12699W        W28508  12.813  15.772   5.389  0.0721  0.5067 -0.0201
12700W        W28509   5.139   8.422  14.197  0.2591  0.2340  0.2448
12701W        W28510   6.223   1.369   4.117  0.2562  0.1647 -0.2827
12702W        W28511  13.999   3.866   5.186 -0.3078 -0.0996 -0.0037
12703W        W28512  18.184  12.864   3.686  0.2696 -0.0127  0.1241
12704W        W28513   6.340  14.842   0.870 -0.1024  0.0560  0.1387
12705W        W28514  16.111   4.012   3.339  0.0736  0.0423  0.0268
12706W        W28515   4.408   2.829  11.753  0.0085  0.4962  0.0758
12707W        W28516  17.098   1.208  14.347 -0.0509 -0.0193  0.2554
12708W        W28517  15.161  15.426   1.827 -0.0962 -0.2194 -0.2124
12709W        W28518   9.425   9.207   5.045 -0.2245  0.1021  0.1636
12710W        W28519   8.614  12.386  13.805  0.1157  0.1879 -0.1178
12711W        W28520   4.168  18.349  12.799 -0.1506  0.1660 -0.4915
12712W        W28521  11.904   2.460   4.351  0.1134 -0.1626 -0.1380
12713W        W28522   4.163   1.291   1.916 -0.1282  0.1144  0.2863
12714W        W28523   7.061   9.427  14.345  0.1413 -0.3108  0.2607
12715W        W28524  15.548   0.536   2.068  0.0578 -0.0241  0.1221
12716W        W28525  17.981  15.492  13.644  0.0776 -0.0881  0.3129
12717W        W28526   9.383  12.373  13.857  0.3389  0.2274  0.1406
12718W        W28527  17.653   9.415   3.653 -0.0751  0.0439  0.1713
12719W        W28528  13.309  14.688  10.103 -0.1427 -0.0132  0.0052
12720W        W28529  10.083   0.111  11.355 -0.1758  0.0944 -0.3421
12721W        W28530   0.967  13.088   3.196  0.2799  0.2005  0.2192
12722W        W28531   6.501  12.277  12.020 -0.2137 -0.0930  0.2000
12723W        W28532  15.948  15.206   9.528  0.2238  0.0643  0.0932
12724W        W28533   0.626   5.514   9.917 -0.1620 -0.1586 -0.2157
12725W        W28534   3.613  14.362   2.762 -0.1914  0.0644  0.0768
12726W        W28535   5.805  16.761  13.556  0.2033  0.0258  0.4854
12727W        W28536  17.893   9.549  12.953 -0.0032  0.0357  0.1388
12728W        W28537   3.669   7.073  15.564  0.0396  0.1368  0.1773
12729W        W28538  11.806  17.016   2.207 -0.1211  0.1407  0.0732
12730W        W28539   5.444  13.929   1.340  0.2754 -0.1895  0.1479
12731W        W28540  16.280   9.229   4.109  0.2698  0.2375 -0.2308
12732W        W28541   5.246   5.091  12.836  0.0565  0.1715  0.0766
12733W        W28542   9.241  15.291   5.058  0.1796 -0.0327 -0.1539
12734W        W28543   6.834   6.985   2.755  0.2634 -0.0942  0.1931
12735W        W28544   1.867  15.782  15.606  0.1971 -0.0563 -0.0097
12736W        W28545   0.544   4.856  12.657  0.0116 -0.0932 -0.0672
12737W        W28546   1.228   5.904  12.189 -0.0519  0.1261 -0.0366
12738W        W28547   4.665   7.309  11.733  0.1256  0.1202  0.0184
12739W        W28548   0.703   9.528   0.807  0.1464  0.0026 -0.2355
12740W        W28549   8.884   1.460  12.230  0.3459 -0.0492  0.0136
12741W        W28550   6.846  16.938   0.221 -0.2378  0.0952  0.0328
12742W        W28551   9.496   0.450  13.246  0.2602 -0.0406 -0.0390
12743W        W28552   1.394  17.531   4.410  0.0436 -0.1265 -0.0930
12744W        W28553  14.643   5.151   3.565  0.3176 -0.0055 -0.1069
12745W        W28554   2.508  12.401   0.051  0.0899  0.1979  0.2003
12746W        W28555   8.633   7.038   4.982  0.2478 -0.1658 -0.1061
12747W        W28556   9.944  15.683   2.689 -0.5792 -0.0306  0.0402
12748W        W28557   9.567   4.377  11.832  0.1758 -0.2592 -0.0150
12749W        W28558   4.150  11.319  14.757 -0.0043  0.0593  0.3832
12750W        W28559   6.989  14.034  12.023  0.0823  0.3647  0.0733
12751W        W28560   3.033   3.975  10.624 -0.2172  0.1840 -0.0261
12752W        W28561   5.699  17.338  10.983  0.0782  0.1596  0.2217
12753W        W28562   3.056  14.094  13.759 -0.0792 -0.0216  0.1138
12754W        W28563   8.726  18.169   1.610  0.2965  0.0445  0.0802
12755W        W28564  17.946  16.121   5.463 -0.1504 -0.1562  0.2067
12756W        W28565  18.285  15.488   0.907  0.2964 -0.1041  0.0627
12757W        W28566  12.833   9.194  15.516  0.1475 -0.1693  0.2625
12758W        W28567   5.826   3.886  10.958 -0.1742 -0.0462  0.0887
12759W        W28568   8.932  11.613  11.225  0.1705 -0.0030 -0.2360
12760W        W28569   7.956  12.673   9.728  0.0089  0.0563  0.0735
12761W        W28570   7.756  18.244  13.871 -0.2261 -0.0714 -0.0531
12762W        W28571  14.302   7.444  12.215 -0.3344  0.0634 -0.1099
12763W        W28572  15.600   4.461   2.205 -0.0862  0.1228  0.0745
12764W        W28573   0.866  17.237   5.166 -0.0259  0.2164  0.2131
12765W        W28574   4.387   8.537  14.982 -0.1059  0.0777  0.0042
12766W        W28575  10.999   1.025   0.974 -0.0138  0.1225  0.0207
12767W        W28576   8.686  10.349   4.009 -0.1792 -0.0752 -0.2598
12768W        W28577   2.768  12.508   3.298  0.0891 -0.1247 -0.2081
12769W        W28578   5.466  18.599  14.120 -0.1459  0.1621  0.3153
12770W        W28579   5.726  10.688   2.301 -0.0128  0.1479 -0.0676
12771W        W28580  13.809   2.744  14.480  0.0395  0.1091 -0.2504
12772W        W28581   3.961   8.994  13.814  0.1103  0.4406  0.1749
12773W        W28582   2.448  15.560  12.235 -0.1328  0.1009  0.0869
12774W        W28583  10.418   9.778  13.095 -0.1770  0.1926  0.0362
12775W        W28584   1.835   4.813  12.980 -0.0329 -0.0751 -0.1684
12776W        W28585   0.413   1.904  13.622  0.2780 -0.4632  0.0922
12777W        W28586   1.376   9.897   0.150 -0.0707 -0.1445  0.1446
12778W        W28587   4.870   4.848  14.930 -0.0728  0.1882 -0.1306
12779W        W28588  13.402   1.399   2.862  0.2668 -0.0291  0.0205
12780W        W28589  16.264  15.085  12.152  0.1480  0.2511 -0.2157
12781W        W28590  17.200   2.286  13.280  0.2863  0.0229 -0.0203
12782W        W28591  18.172  12.876   0.110  0.2385 -0.1565 -0.1041
12783W        W28592   6.204  12.674  10.967 -0.3768  0.1377 -0.1572
12784W        W28593  10.180  16.769   4.829  0.1073  0.0162  0.0604
12785W        W28594   6.277   4.407   4.145 -0.0327 -0.2241  0.0234
12786W        W28595   6.257   4.496   2.518 -0.3570 -0.0435  0.0556
12787W        W28596   6.895  10.659   5.994  0.2962  0.2324 -0.2068
12788W        W28597   4.267  12.038   5.488  0.2090  0.0289 -0.1791
12789W        W28598   7.358  18.359  14.480 -0.0305 -0.0487 -0.1704
12790W        W28599  11.374  14.778   5.399 -0.1167  0.1034  0.0128
12791W        W28600  12.186   4.861  14.316 -0.3173  0.1636 -0.0678
12792W        W28601   1.810  11.089   4.662  0.2435  0.2068 -0.2152
12793W        W28602   1.317   8.469   1.078 -0.0918 -0.0761  0.0844
12794W        W28603  15.834   6.244   2.488  0.1682  0.0084 -0.1216
12795W        W28604  16.447  17.578   0.669  0.0076  0.2557 -0.0280
12796W        W28605  11.479   2.198  11.149 -0.2690  0.0420  0.0445
12797W        W28606   3.441  10.957   0.232  0.1065  0.1343  0.1120
12798W        W28607  10.733   9.092   4.463 -0.1556 -0.2316  0.0452
12799W        W28608   8.805   0.161  15.382  0.0874  0.2400  0.0849
12800W        W28609   0.195   1.752   1.024 -0.0221  0.1700 -0.0610
12801W        W28610   9.114  14.744  14.533 -0.0360 -0.1101  0.0716
12802W        W28611   8.359  13.980  11.194 -0.1360 -0.2090 -0.1716
12803W        W28612  10.492   6.839  14.330  0.4378  0.1040  0.0198
12804W        W28613   4.042  13.358   1.964 -0.0745  0.2525  0.0763
12805W        W28614   3.968  17.521  10.514  0.0110  0.1645  0.1217
12806W        W28615   5.392   8.118   3.450 -0.0509 -0.0165  0.2790
12807W        W28616   8.123   1.261   3.899 -0.0923  0.0040 -0.0115
12808W        W28617   2.762  11.796   4.618  0.0516  0.0213  0.2214
12809W        W28618   5.670   4.318   2.822  0.1490  0.0811 -0.2251
12810W        W28619   4.725  11.851  12.286  0.0335  0.3054  0.0626
12811W        W28620   8.858  14.038   3.617 -0.1454  0.0206 -0.1623
12812W        W28621   3.102  18.573   2.191 -0.1168 -0.2608  0.1048
12813W        W28622   0.117  17.368   0.719  0.0822 -0.2473  0.0328
12814W        W28623  17.229  16.117  14.677 -0.0809 -0.3173  0.2233
12815W        W28624  15.092   3.624   1.218 -0.4726  0.2287  0.2222
12816W        W28625   1.615   3.584  14.828  0.0632  0.3025 -0.1837
12817W        W28626   9.824   2.246  12.371  0.0469 -0.1757  0.1431
12818W        W28627   1.141   5.195   1.463  0.1254 -0.1597  0.0991
12819W        W28628  11.756   7.092   4.463  0.1567 -0.0166  0.0801
12820W        W28629   5.544   6.221   3.353  0.0399 -0.1481 -0.0386
12821W        W28630   9.205   4.144  11.296  0.0739  0.5847 -0.2260
12822W        W28631  12.669  15.946  11.603 -0.3313  0.1790  0.0358
12823W        W28632  11.576   1.049  12.187  0.1893 -0.1536  0.3497
12824W        W28633   0.815  13.016  11.219  0.2628  0.2342  0.2663
12825W        W28634  16.557  17.836   5.122  0.0799 -0.3570  0.3059
12826W        W28635  11.080   2.258   1.195  0.0496  0.0530  0.1573
12827W        W28636  17.869  11.335  10.964 -0.1435 -0.1111  0.4278
12828W        W28637   5.740  10.912  14.925  0.1356  0.1909  0.0345
12829W        W28638   8.463   9.614   1.700 -0.0916  0.0406 -0.0269
12830W        W28639  12.366   4.160  13.616 -0.2633 -0.3083 -0.1436
12831W        W28640  17.407  12.559  11.029  0.1790 -0.1766 -0.1478
12832W        W28641  18.116  16.635   1.771 -0.0471 -0.1207 -0.0746
12833W        W28642  15.475   0.390   1.597 -0.1123  0.1630  0.1817
12834W        W28643   7.774   1.059  14.160  0.1872 -0.0244 -0.1733
12835W        W28644   0.787  18.457  14.808 -0.0964 -0.1801  0.0714
12836W        W28645   5.216  14.838   4.201 -0.0563 -0.2309  0.0689
12837W        W28646  14.329   6.079  14.463  0.0899  0.1365 -0.0859
12838W        W28647   8.211  15.189  15.465 -0.4241 -0.2864  0.1697
12839W        W28648  15.429  16.978   4.497 -0.0351 -0.1617 -0.1748
12840W        W28649  17.671  13.041  12.049  0.0696 -0.0229  0.1889
12841W        W28650   3.014  14.205   5.528  0.2427  0.0423 -0.0409
12842W        W28651  14.673   9.444   2.454  0.0537 -0.1259  0.3274
12843W        W28652   4.334  13.115  11.794  0.1765 -0.0912 -0.1970
12844W        W28653  14.751  12.586   1.786 -0.2342 -0.3598 -0.1204
12845W        W28654   1.085   4.067  12.050 -0.0264  0.0258 -0.0355
12846W        W28655   9.330   0.735  11.244 -0.1102 -0.0479 -0.2641
12847W        W28656  11.594  16.199   0.135 -0.2046 -0.1775  0.0947
12848W        W28657   7.862   4.470   1.202  0.0197 -0.0004  0.2927
12849W        W28658   2.260  18.132   2.218  0.3493  0.4022 -0.0880
12850W        W28659  17.681   1.549  12.148 -0.2799 -0.0131  0.0911
12851W        W28660   4.738   6.609   2.226  0.1652  0.2687 -0.1801
12852W        W28661   1.076   5.662   4.277  0.1419 -0.2291 -0.0041
12853W        W28662   3.921   9.062   1.962  0.0466 -0.2078  0.0516
12854W        W28663  16.474  11.701  10.910 -0.3143  0.2470  0.1350
12855W        W28664   3.991  12.919  12.312  0.1588  0.0283 -0.1333
12856W        W28665  15.662  15.289   0.820 -0.1948 -0.0724 -0.1610
12857W        W28666   6.910   6.625   0.654 -0.1069 -0.0886  0.1324
12858W        W28667   5.182   3.889   0.446 -0.0352  0.0905  0.0485
12859W        W28668   4.667   9.301  12.245  0.1573 -0.1688 -0.2715
12860W        W28669  17.251   7.789   3.482  0.3083 -0.4464 -0.1771
12861W        W28670  14.940  14.816  15.057  0.0858 -0.1543  0.1235
12862W        W28671   3.388   3.050  13.640  0.1549 -0.2165  0.2622
12863W        W28672  15.952  10.655  13.426 -0.2038 -0.0036 -0.0508
12864W        W28673  17.293  15.034  12.339 -0.1938  0.1193  0.1683
12865W        W28674  13.266   5.575   1.447 -0.1738  0.0205 -0.1335
12866W        W28675  12.362   8.924  13.504 -0.1546  0.0444  0.0361
12867W        W28676   9.759   2.693  11.979 -0.2109 -0.2627 -0.0174
12868W        W28677   5.991   5.086  10.771  0.1399 -0.1447 -0.1674
12869W        W28678   1.854  12.446  13.260 -0.0188 -0.2540 -0.0773
12870W        W28679  11.058   8.155  13.393 -0.0284  0.2877 -0.1823
12871W        W28680  12.155   7.184  15.330  0.1134 -0.0528 -0.0765
12872W        W28681   9.313  15.729  10.235  0.2177  0.0964 -0.0045
12873W        W28682  18.030  14.162   5.233 -0.0638  0.0330 -0.1871
12874W        W28683   0.690   9.281  14.300 -0.2347 -0.4809  0.0361
12875W        W28684  14.665   7.979  12.908  0.2603 -0.1917  0.3211
12876W        W28685   7.029   1.113   0.667 -0.2454  0.1842  0.0536
12877W        W28686  16.606   0.843   4.517  0.0385 -0.0962 -0.2068
12878W        W28687  11.545  17.958  14.936 -0.0308 -0.0820 -0.2773
12879W        W28688  12.676   3.949   0.326  0.1215 -0.0847 -0.2685
12880W        W28689   8.404  17.483   5.129  0.3287  0.1885 -0.0853
12881W        W28690   2.442  17.708  15.348  0.3534 -0.2893  0.1324
12882W        W28691   8.298   1.930   4.763 -0.1788 -0.0089 -0.1063
12883W        W28692   2.205  11.481   3.846  0.0663  0.3893  0.1539
12884W        W28693  15.097  13.495   2.811 -0.0464 -0.0671 -0.0408
12885W        W28694  17.646   7.390  13.598 -0.0538  0.0979  0.0735
12886W        W28695  17.248   6.652   0.919  0.2237 -0.1740 -0.1835
12887W        W28696   1.966   8.786  15.354  0.1150  0.0518  0.0656
12888W        W28697   2.888  15.809  15.287 -0.2908  0.0081  0.3247
12889W        W28698   2.651  17.930   3.420  0.0138  0.2069 -0.2009
12890W        W28699  17.260  17.692  11.178 -0.2269  0.0523  0.2568
12891W        W28700   5.099  17.962  11.279  0.1017 -0.0107 -0.2010
12892W        W28701  13.260   8.792  10.218 -0.0655 -0.1114 -0.0488
12893W        W28702   9.922   6.017   0.025  0.2724  0.4676 -0.0986
12894W        W28703   7.173  13.766   1.218  0.1971 -0.0745 -0.1549
12895W        W28704   5.849  13.763   9.851 -0.0650  0.0423 -0.2312
12896W        W28705   2.807  16.659  11.713  0.0585 -0.0463 -0.2743
12897W        W28706   7.471   5.412  13.446 -0.2057  0.1693 -0.2649
12898W        W28707  16.492  17.999  10.911 -0.1246 -0.3236  0.1125
12899W        W28708   6.209  12.396  14.155 -0.2688  0.1703 -0.0826
12900W        W28709  15.367   5.722   0.938 -0.1667  0.2385 -0.0985
12901W        W28710  11.530   1.338  14.081  0.0545  0.1080 -0.2059
12902W        W28711  18.044   5.192  14.526  0.0851 -0.2858 -0.1588
12903W        W28712  15.323  14.691  13.398 -0.1110 -0.1803 -0.4519
12904W        W28713   2.737   9.462   3.364 -0.1058 -0.1797  0.2904
12905W        W28714   5.511  13.296   1.972  0.1882  0.1230 -0.3479
12906W        W28715   2.133   3.416  14.009  0.3191  0.1619 -0.2079
12907W        W28716   0.999   0.650  12.401  0.0304 -0.0480 -0.1907
12908W        W28717   8.767  13.244   4.143 -0.1663 -0.3626  0.0396
12909W        W28718   3.507  15.909  10.666  0.0317  0.1257  0.1429
12910W        W28719  16.877   7.511   2.872 -0.0709 -0.1667  0.1702
12911W        W28720   3.431  15.674   5.150  0.0191 -0.1064 -0.0167
12912W        W28721   1.625   4.510   0.320 -0.1401 -0.0901 -0.2870
12913W        W28722  10.162   3.331  14.651  0.1148 -0.0251  0.1444
12914W        W28723  15.767  11.923  13.681 -0.1060 -0.0178 -0.3127
12915W        W28724   1.149  10.302   1.154  0.1917 -0.0150 -0.0338
12916W        W28725   2.925   4.329  12.499  0.1297  0.2854 -0.0797
12917W        W28726   8.275  15.409   5.911 -0.2288 -0.0540  0.3346
12918W        W28727   2.689   1.624  10.587  0.0820  0.0122 -0.2262
12919W        W28728  13.718  10.151   2.278  0.2215 -0.1186  0.1448
12920W        W28729  13.208  14.984   5.268 -0.0020  0.2227  0.1457
12921W        W28730  17.197  18.352   2.288 -0.3200 -0.1260  0.3026
12922W        W28731   5.679   8.048   1.875 -0.1601  0.2296 -0.0357
12923W        W28732   9.732  13.324  13.432 -0.1925 -0.1133 -0.0863
12924W        W28733  17.232   8.085   1.553  0.2554 -0.0484 -0.1254
12925W        W28734  11.768  18.068   1.189 -0.0736 -0.1215  0.0788
12926W        W28735  10.628  16.108  11.115 -0.2932  0.2692 -0.1033
12927W        W28736   3.380   3.576  11.094  0.2636 -0.0845 -0.3017
12928W        W28737   1.013  12.748   3.625  0.2945 -0.2866 -0.0638
12929W        W28738  13.552  12.344   4.604  0.3418  0.0792 -0.0300
12930W        W28739   5.962   5.517   4.320  0.0493 -0.1205 -0.2370
12931W        W28740  17.076   5.918  12.239  0.1749 -0.1159  0.2374
12932W        W28741  15.517   5.925  12.489  0.0650  0.3242  0.1286
12933W        W28742  17.649   1.664   3.840  0.1193 -0.1270 -0.0189
12934W        W28743   0.803   0.603  11.376 -0.2293 -0.2964  0.0897
12935W        W28744  11.897   7.316   2.050  0.1245 -0.0153  0.0448
12936W        W28745   3.956  17.951  14.570 -0.3329 -0.1404 -0.3138
12937W        W28746  14.204  14.680   0.176  0.3384 -0.0334  0.1029
12938W        W28747   8.235  11.241   0.077 -0.0633 -0.1145  0.2051
12939W        W28748  13.611  17.355  11.461  0.2152  0.3272 -0.1552
12940W        W28749  12.877   6.758  11.539  0.2745 -0.0110  0.0289
12941W        W28750  16.759   3.502  13.197  0.0227  0.1686 -0.2845
12942W        W28751  14.337  12.864  10.547 -0.1162 -0.0552  0.1238
12943W        W28752   4.337   3.937  13.957  0.2422  0.2143 -0.6730
12944W        W28753   9.904   0.413   3.003  0.0480  0.0490 -0.2235
12945W        W28754  15.056  13.751   0.174 -0.0810 -0.2810 -0.2830
12946W        W28755   6.463  11.099  11.603  0.0721  0.1816 -0.0860
12947W        W28756  10.828   7.678  14.565  0.2859  0.0355  0.3471
12948W        W28757   5.856   3.919  15.314 -0.0562 -0.0113  0.0915
12949W        W28758   9.953   8.115   2.912  0.0751 -0.1818 -0.1957
12950W        W28759   4.730  11.650  13.353  0.0791  0.0349 -0.0276
12951W        W28760  18.235  14.856   1.314  0.3311  0.3470 -0.2233
12952W        W28761   4.722   1.082   4.931 -0.0691  0.1561  0.2883
12953W        W28762  18.657  11.392  10.459 -0.0412 -0.0093  0.0243
12954W        W28763   9.458   3.011   3.938 -0.0644  0.0924 -0.1045
12955W        W28764   1.203  12.024   0.603 -0.0815 -0.1276  0.2353
12956W        W28765   8.493  15.299   1.288 -0.0145  0.0271  0.0581
12957W        W28766   3.812   5.963   2.957 -0.1259  0.4201 -0.1512
12958W        W28767   2.898  11.898  14.413 -0.0366 -0.0716  0.1150
12959W        W28768   6.359  15.058  10.490 -0.1549  0.0675 -0.0976
12960W        W28769   9.938   5.565  11.073  0.2316  0.2495  0.1042
12961W        W28770   3.930   4.242  10.976 -0.4574  0.1444 -0.0382
12962W        W28771  11.383  14.552   4.707 -0.2764  0.1024  0.0249
12963W        W28772   4.893   1.947  13.434 -0.0060 -0.2503 -0.0369
12964W        W28773   5.149   3.217   3.485  0.0451 -0.0620 -0.2354
12965W        W28774   1.892   9.619  12.427  0.1264 -0.1253 -0.2776
12966W        W28775   2.640   8.261  12.024 -0.0462 -0.0397  0.1199
12967W        W28776  12.582   7.970   0.359  0.0001 -0.2336 -0.0413
12968W        W28777   5.921  15.876  14.000 -0.0871 -0.4935  0.2042
12969W        W28778   0.207  10.311  11.166 -0.0113  0.0102 -0.0641
12970W        W28779  10.289  18.066   2.885  0.2910  0.1405 -0.3120
12971W        W28780   8.152  16.013   3.203 -0.1808  0.1925 -0.3183
12972W        W28781   9.395   0.119   5.378  0.0300 -0.1338  0.5200
12973W        W28782   2.164  10.196  11.066  0.0382 -0.3356  0.0221
12974W        W28783  17.186   4.068   2.706  0.0307  0.0979  0.1175
12975W        W28784   9.938  12.124  12.179 -0.2546  0.2803  0.1661
12976W        W28785   4.877   2.688  11.643  0.1947 -0.1476 -0.0766
12977W        W28786   3.839   9.050   3.767  0.2666  0.0473 -0.5204
12978W        W28787  16.024  12.094   1.801  0.0249 -0.0351  0.2551
12979W        W28788   3.432  14.081  10.787 -0.1092  0.1136 -0.0658
12980W        W28789   8.165   2.256  13.552  0.0006 -0.1059  0.1443
12981W        W28790   6.799  11.856   4.581 -0.1129  0.0875 -0.1163
12982W        W28791   8.961  12.993  15.593 -0.2682  0.4496  0.1206
12983W        W28792   7.346   4.777   2.119  0.2354 -0.2155 -0.1190
12984W        W28793   9.298   3.398   0.765  0.0275  0.1260  0.1452
12985W        W28794   5.217   9.843  12.728 -0.1695  0.0990 -0.1017
12986W        W28795  16.957  13.541  13.547  0.0586 -0.1298 -0.1594
12987W        W28796  12.219  17.681  15.109  0.2502  0.0304 -0.1278
12988W        W28797  16.582   5.814   4.117 -0.2586  0.1475  0.1728
12989W        W28798  11.339  16.519   2.811 -0.0495 -0.1529 -0.0486
12990W        W28799  13.822  10.482  11.279 -0.1542  0.4080  0.0166
12991W        W28800   9.131   2.672  14.996 -0.2297 -0.3174 -0.0457
12992W        W28801   2.507  11.097  11.399  0.1391 -0.0994  0.1613
12993W        W28802   6.840  11.086   4.754  0.3726  0.1372 -0.0587
12994W        W28803  17.020  15.809  15.205  0.2284 -0.1393  0.0395
12995W        W28804  13.515   6.803   0.631  0.0891  0.1354  0.2175
12996W        W28805  14.466   2.422   1.285 -0.1215 -0.5841  0.2628
12997W        W28806  15.995  16.220  11.763  0.1380  0.0060  0.1123
12998W        W28807  12.254  12.301   0.430  0.0378  0.1533 -0.0728
12999W        W28808  15.233   5.173  13.257 -0.0698  0.0618 -0.1679
13000W        W28809   9.657  12.678  11.525  0.1403  0.0979 -0.1745
13001W        W28810  17.072   9.860  10.977 -0.0940 -0.2464  0.1827
13002W        W28811  14.893   8.383   2.036  0.1084 -0.0990  0.3401
13003W        W28812  17.394   7.788  11.072  0.0274 -0.0696  0.0029
13004W        W28813   7.768   5.024   5.701 -0.0588 -0.0668 -0.1526
13005W        W28814   8.882  16.504   3.496 -0.0789 -0.0310 -0.1248
13006W        W28815  14.621  16.347   4.561 -0.2559  0.4223  0.0596
13007W        W28816  15.001   2.402  14.793  0.0403  0.0581  0.1939
13008W        W28817  11.715   1.618  12.111 -0.0081  0.1769 -0.0889
13009W        W28818  13.876   4.835  13.216 -0.1896  0.0729 -0.1791
13010W        W28819  13.031  11.171  13.487 -0.0514 -0.1711  0.1773
13011W        W28820   4.095   1.549  11.206  0.0162 -0.1279 -0.2431
13012W        W28821   0.640  17.205   1.432  0.2468 -0.2228 -0.1292
13013W        W28822   9.775  14.648  13.763  0.1018  0.1057  0.0609
13014W        W28823   7.776   9.822  12.774 -0.1951  0.0704 -0.0253
13015W        W28824   7.889  13.113  12.148 -0.1273 -0.3564  0.2077
13016W        W28825  14.580  15.955  14.335 -0.2798  0.2447 -0.1490
13017W        W28826   5.851  12.288   4.159  0.0736 -0.0263  0.1705
13018W        W28827   6.011   5.206   3.642  0.0959 -0.3706 -0.0848
13019W        W28828  15.115   2.746  13.705  0.1396  0.1677  0.3098
13020W        W28829   4.389   6.782  14.462  0.0351  0.0029 -0.2108
13021W        W28830  10.406  12.087   2.575 -0.0442 -0.0414 -0.2102
13022W        W28831   4.734   5.252  14.542 -0.1817 -0.0638 -0.2135
13023W        W28832   7.787   0.738   1.959  0.1690  0.0606 -0.0740
13024W        W28833   5.340  17.354  13.329 -0.0119  0.3756 -0.1997
13025W        W28834   0.482   5.355  13.014 -0.1348 -0.2149  0.1736
13026W        W28835  16.560   3.982  10.631 -0.0126  0.2690  0.0803
13027W        W28836   0.208  10.939  13.504  0.1086  0.0231  0.3915
13028W        W28837   7.390   4.839  14.239  0.1230  0.0225 -0.0613
13029W        W28838   5.614  11.418   3.035  0.0951  0.0099 -0.2629
13030W        W28839   0.618   5.700   2.783 -0.1536 -0.1015 -0.2078
13031W        W28840  16.710   2.699  10.088  0.0557 -0.2780  0.2466
13032W        W28841   3.657   1.645  15.249 -0.1938  0.1846  0.0291
13033W        W28842  13.499  13.567  14.568  0.0556 -0.1778 -0.1108
13034W        W28843   8.560   3.299   5.971 -0.2512 -0.0417 -0.1595
13035W        W28844  17.620   9.306  13.488  0.4900 -0.1591  0.0711
13036W        W28845   2.184   1.256   2.937 -0.1830  0.1876  0.0174
13037W        W28846   6.535   0.968   4.347  0.2817  0.0145 -0.0123
13038W        W28847  13.866   8.613   3.748 -0.0466 -0.3460 -0.2217
13039W        W28848  17.495  13.821   0.798  0.0998 -0.2932  0.0164
13040W        W28849  17.417  14.049  11.130  0.0395 -0.2633  0.1988
13041W        W28850  13.811   7.633   4.936 -0.0837 -0.0607  0.3420
13042W        W28851  14.775  10.459   2.724 -0.1556 -0.3057  0.0998
13043W        W28852   9.861  15.898   1.376  0.1726  0.1026 -0.1877
13044W        W28853   7.010  13.231   4.125  0.0398 -0.3388 -0.3245
13045W        W28854  15.875  12.251  10.073 -0.3699 -0.3927  0.0693
13046W        W28855  11.605  11.433  13.172  0.3540  0.1597 -0.1398
13047W        W28856  12.003   3.005   2.801 -0.2295  0.4395 -0.2978
13048W        W28857  16.272   3.454   4.295  0.1368 -0.2348  0.4527
13049W        W28858   9.380   5.859  13.912  0.0883 -0.1721 -0.2142
13050W        W28859  10.902   2.256   3.456  0.2690  0.0073  0.4510
13051W        W28860  13.456   5.388  13.968 -0.1761 -0.0170  0.1816
13052W        W28861   7.177   2.852  10.611 -0.3266 -0.3913 -0.1492
13053W        W28862   5.161  13.743  15.609 -0.2072  0.0285  0.1591
13054W        W28863  10.778  16.035  12.963  0.0391 -0.0141 -0.2058
13055W        W28864   5.890   9.884   0.078 -0.0615 -0.2255  0.0582
13056W        W28865   7.595  11.390  10.739  0.0049  0.2868  0.0882
13057W        W28866  16.169  14.447  12.988 -0.4487  0.0358  0.0188
13058W        W28867  11.279  15.067   4.916  0.0222 -0.0479  0.2915
13059W        W28868  14.597   5.886   4.558 -0.0967  0.0733 -0.0526
13060W        W28869   5.338   6.646  14.226  0.5987  0.2078 -0.0853
13061W        W28870  17.754   2.156  14.060 -0.4324  0.1132 -0.0164
13062W        W28871   7.928   8.578  13.703  0.2101  0.2374 -0.0897
13063W        W28872  16.377   8.201   3.158  0.0124  0.2082  0.2299
13064W        W28873   6.109   2.720   3.816 -0.4340 -0.0437  0.1064
13065W        W28874   7.251   9.978   1.791 -0.0059 -0.2382 -0.1578
13066W        W28875  10.072  13.257   0.103  0.2161 -0.1192 -0.1249
13067W        W28876   6.652   6.982  11.797  0.5391  0.0700  0.1327
13068W        W28877  12.200  16.841  12.514 -0.2916 -0.0028 -0.2828
13069W        W28878  16.992   5.035  14.948 -0.2917  0.2464  0.0330
13070W        W28879   8.245   8.097   2.852 -0.0823 -0.1221  0.0676
13071W        W28880   9.511   0.442  15.537  0.3348  0.2383 -0.1119
13072W        W28881   3.771   6.301  11.609  0.2541  0.0202  0.0201
13073W        W28882   3.797   6.312   0.878 -0.3495 -0.1231  0.1069
13074W        W28883  12.703  14.174   1.192 -0.0701  0.3820  0.0313
13075W        W28884   5.968  12.591   0.358 -0.1561 -0.0110  0.0838
13076W        W28885  13.352   9.247  12.508 -0.3036  0.0774 -0.3096
13077W        W28886   8.435  16.989   1.744  0.1354  0.1589  0.1654
13078W        W28887  16.811   6.257   1.906  0.0537  0.1637  0.1467
13079W        W28888  10.022   8.832   0.943 -0.2426  0.1042  0.0584
13080W        W28889  15.008   9.343  14.152 -0.1327  0.2358  0.0274
13081W        W28890  10.772  10.700   0.727 -0.1865  0.1901 -0.2612
13082W        W28891   8.272  16.568   2.870  0.0619 -0.0386  0.1034
13083W        W28892  10.968   6.384   4.380 -0.0032  0.2101 -0.1563
13084W        W28893   9.262   9.985   0.937  0.0881  0.2694  0.1721
13085W        W28894  12.587  18.271   2.827 -0.1598 -0.0260  0.0763
13086W        W28895   0.361   0.539   2.419  0.2583  0.0341 -0.1935
13087W        W28896  18.015  17.443  13.487  0.0477  0.0216  0.1695
13088W        W28897   0.164   6.508  11.198 -0.2216 -0.0178  0.0694
13089W        W28898   3.453   2.259  12.175  0.1028 -0.0302 -0.1951
13090W        W28899   1.640   0.155   0.875  0.0476  0.0599 -0.0628
13091W        W28900   4.597  12.065  13.724  0.1868 -0.1472  0.2294
13092W        W28901  11.796   6.710   0.525 -0.0672 -0.1142  0.0581
13093W        W28902  12.664   0.441   5.652  0.0401 -0.0506  0.0615
13094W        W28903   3.368  15.996  12.227  0.1292  0.0107  0.2095
13095W        W28904   9.174   9.814   2.983 -0.0977 -0.2374  0.3809
13096W        W28905  13.576  15.022  14.454  0.0700  0.0486  0.3604
13097W        W28906  18.511   2.788   0.431  0.0644 -0.0292  0.0093
13098W        W28907  15.543   2.896   0.327  0.2624  0.0635 -0.0988
13099W        W28908   6.291  18.045  15.114 -0.0447  0.1694 -0.0346
13100W        W28909  12.241  12.471  15.545  0.0186 -0.1127  0.0690
13101W        W28910  18.606   1.426   1.329 -0.1312  0.1293  0.0689
13102W        W28911   2.852   0.324   2.328  0.2129 -0.0015 -0.0971
13103W        W28912  12.477  14.594   2.990 -0.1830  0.1798  0.6091
13104W        W28913   8.555  15.086   2.732 -0.0744  0.0375 -0.0463
13105W        W28914   7.594   1.235  11.337 -0.2529 -0.3694 -0.0541
13106W        W28915   2.375  13.382  13.172 -0.1243  0.3088  0.1654
13107W        W28916  14.502  17.865   2.312 -0.0712  0.3399  0.1107
13108W        W28917   6.609  18.344  14.028  0.1359  0.0511 -0.1664
13109W        W28918  10.815  11.724  12.055  0.2446 -0.5614 -0.1918
13110W        W28919  17.504   0.153   1.587  0.1227 -0.1469 -0.0270
13111W        W28920   7.972  13.192  14.590  0.0220  0.1945  0.1102
13112W        W28921   2.102  13.046   5.398 -0.1282  0.0441  0.0486
13113W        W28922   3.398   7.928   0.285 -0.0975  0.2256  0.0887
13114W        W28923  14.372   6.876  11.911 -0.0227  0.0281 -0.0309
13115W        W28924   2.721   9.683  14.281  0.0469 -0.1171  0.1725
13116W        W28925  11.164   6.328  15.571  0.0146  0.1802 -0.2732
13117W        W28926   0.106   2.528  12.355 -0.0128 -0.3010 -0.1700
13118W        W28927   3.427   0.777  14.666 -0.2883  0.4159 -0.1783
13119W        W28928  12.658   5.884  11.874  0.3513 -0.1668  0.2489
13120W        W28929   9.748   4.355  15.409 -0.1012  0.1856  0.1244
13121W        W28930   6.062  17.067  10.697 -0.0980  0.0224  0.1275
13122W        W28931   2.201   9.137   4.337 -0.0290  0.0440  0.2293
13123W        W28932  15.006  12.936  14.943 -0.3814 -0.1329 -0.1843
13124W        W28933   5.284  16.185   4.947  0.0426  0.0126  0.3194
13125W        W28934   7.058   8.329   2.109 -0.0390 -0.1206  0.0533
13126W        W28935   0.021   0.649   3.880  0.1263  0.0251 -0.2056
13127W        W28936  16.020  11.739  10.776  0.0262  0.2805 -0.0279
13128W        W28937   2.448  15.487   3.166 -0.1259  0.2087  0.1103
13129W        W28938   5.008  17.310   3.485 -0.0002  0.1085 -0.2501
13130W        W28939   1.049   4.967   3.167 -0.1152 -0.0724  0.1124
13131W        W28940  11.348   0.673  15.255 -0.1427  0.1608  0.0250
13132W        W28941   7.628  17.862   4.967 -0.0500  0.2147  0.0801
13133W        W28942   8.835   4.035  14.048  0.0738  0.2202 -0.1979
13134W        W28943   9.038   9.544   0.929  0.3710 -0.0980  0.1781
13135W        W28944   0.279  15.043  11.608 -0.0376 -0.0536 -0.0458
13136W        W28945  10.835  10.832  14.699  0.2253 -0.1853 -0.0129
13137W        W28946  14.056   9.306   4.968 -0.0171  0.1068  0.1212
13138W        W28947   2.477   6.616  15.412  0.2215  0.0416 -0.0925
13139W        W28948  16.962  12.043   1.674 -0.0595 -0.2811  0.3793
13140W        W28949  17.611   2.457  12.970 -0.3550 -0.2942  0.1910
13141W        W28950   0.967   7.728   3.538 -0.0011  0.0011  0.1501
13142W        W28951  16.910   7.591   5.187  0.4851 -0.1070  0.0374
13143W        W28952  14.477   5.102  12.096 -0.1110  0.1993 -0.1279
13144W        W28953  10.395  10.050  14.729 -0.0566  0.1313  0.0109
13145W        W28954  17.996  12.577   3.249 -0.1052 -0.2434  0.1862
13146W        W28955  14.029   1.195   3.598  0.1824  0.2341  0.0885
13147W        W28956  18.061   3.065  13.723 -0.1562  0.0049 -0.1606
13148W        W28957   6.889   0.521   0.772 -0.2239 -0.1450  0.0443
13149W        W28958  17.695   8.998  11.808 -0.1184 -0.1804 -0.3140
13150W        W28959   5.860  10.674  13.544 -0.4062  0.1809 -0.1799
13151W        W28960   1.219  15.947   2.072  0.2471  0.0605 -0.0086
13152W        W28961   1.821  14.325   1.667  0.0905  0.0840  0.0068
13153W        W28962   7.499  10.485   1.333 -0.1601  0.0565  0.1990
13154W        W28963   3.678  10.535  12.292  0.0828  0.0904  0.0453
13155W        W28964  17.603   4.045   1.293  0.2527  0.0648 -0.0347
13156W        W28965   0.896   5.596   2.306 -0.2116 -0.1622 -0.1240
13157W        W28966  14.737   8.725   2.394 -0.1126  0.1490 -0.1394
13158W        W28967   4.396   6.683  10.336  0.1607  0.3088 -0.2450
13159W        W28968   2.494   9.648   0.939 -0.3492 -0.2464 -0.0624
13160W        W28969   3.277  12.847   3.039 -0.2390 -0.2317 -0.1786
13161W        W28970  11.074   3.238   3.747  0.1304  0.0203  0.1356
13162W        W28971   6.288   9.268   3.832 -0.0456 -0.0710  0.1397
13163W        W28972   4.965   7.136  12.748 -0.0568  0.0114 -0.1953
13164W        W28973   9.985  16.957   1.555  0.2416  0.2351 -0.1811
13165W        W28974  11.300  13.430   3.967 -0.0732  0.0518  0.1988
13166W        W28975  13.461   4.600   1.665  0.2035 -0.0751 -0.4212
13167W        W28976   2.553   5.184   9.613  0.1135  0.2076  0.0588
13168W        W28977   8.254  17.372  14.719  0.2188 -0.2105  0.1315
13169W        W28978   9.835  14.628   1.835  0.1538 -0.0006 -0.0035
13170W        W28979   4.967   1.397   2.526 -0.1175 -0.3897  0.3566
13171W        W28980  17.436  12.918   2.467 -0.0420 -0.1943 -0.2471
13172W        W28981   1.336  18.193   2.609  0.2432  0.1102 -0.0191
13173W        W28982   6.645  16.232   4.491  0.0198  0.2619  0.4466
13174W        W28983   8.087  17.039  10.218 -0.1971 -0.1306 -0.1434
13175W        W28984   8.622   0.176  12.507 -0.2068  0.0622 -0.0259
13176W        W28985   7.908  12.498  12.298 -0.0945  0.1732  0.1374
13177W        W28986  11.471  16.910   3.562  0.2927 -0.3316 -0.1095
13178W        W28987   2.310  14.227  12.996  0.0911  0.0684 -0.0576
13179W        W28988  10.201   7.043  11.863 -0.2005 -0.4656  0.0341
13180W        W28989  11.999  16.317   5.671  0.2026  0.1304  0.1888
13181W        W28990   6.754   3.496  12.334  0.2235  0.2785  0.1019
13182W        W28991   7.113  17.289   1.455 -0.0268  0.3588 -0.1288
13183W        W28992   0.994  15.654   1.286 -0.0864  0.3710  0.0797
13184W        W28993  17.202   3.322   2.519  0.0923 -0.5388 -0.2449
13185W        W28994   8.522  17.570   0.875  0.1087 -0.1410 -0.5316
13186W        W28995   7.617  12.299   9.863  0.2337  0.2098  0.2632
13187W        W28996  17.894  14.413  12.069 -0.0040  0.1038 -0.1592
13188W        W28997   3.535  17.376   5.886 -0.0845  0.0222  0.3020
13189W        W28998   0.422  14.475   1.016 -0.0678  0.0684  0.0132
13190W        W28999   0.257   9.740   2.206  0.1855 -0.2289 -0.1688
13191W        W29000  12.284   0.162  14.312  0.2018  0.1495  0.1623
13192W        W29001   0.645   4.910   0.682  0.2448  0.3167  0.1434
13193W        W29002   7.412   8.127  12.922 -0.0228  0.3744  0.1946
13194W        W29003   3.962   3.762   2.591  0.0435  0.0886 -0.0171
13195W        W29004   6.342  18.052  12.251 -0.1155 -0.0636  0.2362
13196W        W29005   1.165   2.191   1.745 -0.0765 -0.1477 -0.0981
13197W        W29006  18.248  14.020  10.262  0.0104  0.3188  0.0522
13198W        W29007   8.031   3.814  13.500 -0.0222 -0.5258  0.1719
13199W        W29008  17.849   0.079  12.242 -0.1333  0.2334  0.2354
13200W        W29009  15.830  18.238   2.113 -0.4337 -0.4169 -0.0658
13201W        W29010  15.068   7.765  13.344  0.2174  0.1716 -0.1286
13202W        W29011   1.242  12.283  12.370  0.0918  0.2786 -0.2249
13203W        W29012   1.447  16.079   5.692 -0.1486  0.0534 -0.0243
13204W        W29013  14.557   1.691   3.641  0.0380  0.3155  0.0029
13205W        W29014  13.407  14.551  10.590  0.1201  0.0784  0.2909
13206W        W29015   3.662   5.936   4.884 -0.1062  0.3317  0.1499
13207W        W29016   2.656   9.998  10.925 -0.1910  0.0742  0.1801
13208W        W29017   8.187   0.499   4.512  0.0576 -0.0829  0.0778
13209W        W29018   1.071  13.243   0.374 -0.0388  0.0548  0.3488
13210W        W29019  14.281   8.552   4.506 -0.2455  0.1044 -0.2412
13211W        W29020   0.464   9.614  14.014  0.3852 -0.2457  0.5699
13212W        W29021   3.513   5.785   0.777 -0.0200 -0.1015  0.1560
13213W        W29022  15.797   8.445  11.888  0.0620  0.1294  0.0805
13214W        W29023   7.921   0.061  10.170 -0.1771 -0.1830 -0.2249
13215W        W29024   0.354  15.714  11.772  0.0397 -0.0032  0.0431
13216W        W29025  10.823  10.665  15.156 -0.0647 -0.0319  0.1119
13217W        W29026   1.987  11.483   0.494  0.2372 -0.0847  0.4084
13218W        W29027  17.683   5.830   1.093 -0.1127 -0.1624  0.4008
13219W        W29028   4.816  13.985   5.297  0.1008 -0.0849  0.1282
13220W        W29029   6.439   8.819  14.318 -0.1252 -0.0489 -0.0408
13221W        W29030   6.586   4.930  12.675  0.1652 -0.2740  0.3555
13222W        W29031   2.822  15.677  14.346  0.0595  0.1351  0.2277
13223W        W29032  13.153   6.225   5.878  0.2624  0.0594  0.0512
13224W        W29033   5.383   9.469   3.629  0.0294  0.0273  0.0853
13225W        W29034   2.703   0.557  12.618 -0.0529  0.0529  0.2113
13226W        W29035   8.329   3.361   3.709  0.0374  0.1191 -0.1653
13227W        W29036  13.733  11.635  13.137  0.2244  0.0871 -0.2104
13228W        W29037  13.239  16.958  15.498 -0.2965 -0.0050 -0.0918
13229W        W29038   9.896   7.385  11.583  0.0159 -0.0059  0.1435
13230W        W29039  14.992   9.289   3.285 -0.1333 -0.0033  0.4480
13231W        W29040   0.812  10.684   2.771  0.1497 -0.0387  0.4755
13232W        W29041  17.946  13.745  15.536  0.3962  0.2985  0.0637
13233W        W29042  14.521  14.310  15.150  0.0182 -0.0754 -0.0156
13234W        W29043   0.933   8.699  12.981 -0.1641 -0.1334 -0.2567
13235W        W29044   8.381   6.901   1.052  0.1796  0.2517 -0.0125
13236W        W29045  11.367  12.927   1.149 -0.1104 -0.0947 -0.2709
13237W        W29046   6.423  13.590   1.153 -0.0663  0.2160  0.4113
13238W        W29047   5.728   1.759  12.965  0.0156 -0.2129  0.0826
13239W        W29048   7.490   2.206  11.390 -0.0344 -0.4269  0.2543
13240W        W29049  13.118   9.324  13.882  0.0760  0.1625  0.1509
13241W        W29050   1.757  18.078  12.415  0.2309  0.1569 -0.2593
13242W        W29051   2.697  13.667  12.385 -0.1769  0.0264  0.2124
13243W        W29052   6.426   9.428  14.978  0.2992 -0.4166 -0.0880
13244W        W29053  11.093  18.159   1.761  0.0483  0.2050 -0.1517
13245W        W29054  17.058  10.461  12.865  0.0103 -0.0067  0.1486
13246W        W29055   2.253   4.960   3.803 -0.2635 -0.1086  0.0344
13247W        W29056  11.848  10.746  10.613  0.0547  0.1098  0.0728
13248W        W29057  15.272  14.112  10.250  0.0524 -0.0316  0.1329
13249W        W29058   6.658  15.458   0.739 -0.2310 -0.2162 -0.1431
13250W        W29059  11.469   1.563  10.304  0.1216  0.1671 -0.2101
13251W        W29060  16.298  18.432   2.012  0.0147 -0.1171 -0.0262
13252W        W29061  13.901  16.132   1.203  0.1633  0.0755 -0.2125
13253W        W29062  15.907  10.907  15.464  0.0618 -0.1784 -0.3149
13254W        W29063   9.407   6.061  11.832  0.1627  0.1678 -0.0052
13255W        W29064  15.247  17.304  12.655 -0.2952 -0.1524 -0.0669
13256W        W29065  13.043   9.600  12.550  0.0727 -0.0916 -0.0044
13257W        W29066   4.937   9.434  11.248  0.0163 -0.1583  0.1555
13258W        W29067   2.508   6.322   2.682  0.0111 -0.1465 -0.0779
13259W        W29068   7.305  11.896   2.506 -0.1641  0.0771 -0.0482
13260W        W29069   0.025  15.751  14.368  0.0176 -0.1179  0.1567
13261W        W29070   0.654  10.351  14.636  0.0859 -0.2427 -0.0050
13262W        W29071   3.355   5.169  15.209 -0.1734  0.1565  0.0774
13263W        W29072  16.503   8.665   3.023  0.0593 -0.0252 -0.1300
13264W        W29073  11.139  15.530   9.957  0.0831  0.2138 -0.3092
13265W        W29074   5.030   6.428   4.721  0.1934 -0.2060  0.3397
13266W        W29075  18.300   9.732   5.493 -0.0591  0.0017  0.0800
13267W        W29076   1.254  13.262  13.499 -0.4649 -0.1834 -0.5477
13268W        W29077  14.449   2.420  12.904  0.1354  0.0763  0.2304
13269W        W29078  17.551   3.000  12.702 -0.1534  0.1611  0.1718
13270W        W29079   0.835  15.900   1.762 -0.0114  0.2444  0.2373
13271W        W29080   7.452   6.776   2.113 -0.2579 -0.1251 -0.0505
13272W        W29081  12.374  16.604   2.320  0.1126 -0.0917 -0.0794
13273W        W29082  14.495   2.384   0.686  0.1832  0.1338 -0.1084
13274W        W29083   1.853   3.008  15.532  0.2235  0.0021  0.0155
13275W        W29084  15.683   2.995   1.790 -0.1957 -0.2158 -0.1653
13276W        W29085   4.678   2.026  15.299 -0.4186 -0.1538  0.1174
13277W        W29086   0.160   0.967  11.478 -0.1708  0.3367 -0.2048
13278W        W29087  16.576  15.676   2.340 -0.1667 -0.0855 -0.4516
13279W        W29088   8.461  12.059  12.845  0.2327  0.0523  0.1162
13280W        W29089   3.318   0.791   5.187  0.2818  0.0509 -0.0816
13281W        W29090  13.302  13.673  13.709  0.2105 -0.0547  0.2006
13282W        W29091   9.981  15.389   1.448  0.1804  0.1765 -0.2188
13283W        W29092  16.851   9.640  12.714 -0.1481 -0.1214  0.0346
13284W        W29093   9.300   7.791   3.473 -0.0081  0.2231  0.1495
13285W        W29094   4.032  16.628  10.911 -0.0617 -0.3032  0.1621
13286W        W29095   7.078   3.261   0.020  0.0543  0.1732  0.0549
13287W        W29096   8.715  15.042  14.690 -0.1617  0.1230 -0.0808
13288W        W29097  10.035   3.650  12.759 -0.3229  0.2279  0.3688
13289W        W29098   8.882  13.206  12.771  0.0311  0.3840 -0.2184
13290W        W29099   8.845   2.311  13.196  0.2546 -0.1007 -0.0992
13291W        W29100  16.296   2.833  14.808 -0.1343 -0.2004  0.0509
13292W        W29101  16.946   9.039   1.702 -0.0399 -0.1025 -0.2175
13293W        W29102  17.016  15.550   1.463 -0.2256 -0.1689 -0.0556
13294W        W29103  11.357   2.658   4.403 -0.0510 -0.1754 -0.0371
13295W        W29104   8.461  13.382   3.800 -0.2592  0.0057  0.2352
13296W        W29105   1.204   8.199  10.386 -0.1474 -0.1514  0.1221
13297W        W29106  13.535   5.557  11.204 -0.2316 -0.5047 -0.2176
13298W        W29107   2.762   5.244  12.225 -0.0260  0.1626 -0.1049
13299W        W29108  13.290  11.954   1.120  0.0703 -0.0632  0.3570
13300W        W29109   8.109  15.735  11.764  0.4103  0.2457 -0.1247
13301W        W29110  17.540   7.322   2.730 -0.2258 -0.3798  0.1476
13302W        W29111   3.265   2.651  13.915 -0.0826 -0.0306  0.0798
13303W        W29112  10.869   9.951  13.897  0.0513  0.2025  0.2069
13304W        W29113   8.599   2.267  11.565 -0.0971  0.3335 -0.1171
13305W        W29114  15.055  15.094  14.552  0.1278 -0.3336 -0.3348
13306W        W29115   7.702  12.306   0.290  0.2632  0.2172 -0.0201
13307W        W29116  11.983   8.042  14.269 -0.1047  0.0944 -0.2981
13308W        W29117   8.348  11.317   5.060  0.2355  0.1491  0.0090
13309W        W29118  11.706   7.610   3.092 -0.1031  0.1683 -0.0184
13310W        W29119   0.722   9.504  12.505 -0.1571  0.0499  0.0194
13311W        W29120  11.421  11.027  12.272  0.0440  0.2279 -0.0009
13312W        W29121  11.285   7.294  13.921 -0.0391 -0.0185 -0.0770
13313W        W29122   8.309   9.056   4.864  0.2597  0.0636 -0.0781
13314W        W29123   7.248  14.361  15.007  0.0823  0.1106  0.1580
13315W        W29124   2.496  12.383   1.314 -0.2581 -0.1269 -0.2918
13316W        W29125   1.050  12.776   1.089 -0.2889 -0.0166 -0.0899
13317W        W29126  11.853   5.611   0.344 -0.0429 -0.2643  0.0404
13318W        W29127  14.160   3.957   1.764 -0.0912 -0.3703  0.1321
13319W        W29128   2.382   1.380   3.650 -0.0275 -0.0100 -0.1300
13320W        W29129  17.937  16.724  11.521  0.3227 -0.0716  0.1358
13321W        W29130  13.272  13.271   0.993 -0.2093 -0.1276 -0.0389
13322W        W29131   5.285  16.302  12.322  0.0401 -0.2303 -0.1595
13323W        W29132   1.515   5.492   4.502 -0.0185  0.0512  0.2353
13324W        W29133   9.373  12.177   3.879 -0.0978  0.0208 -0.1005
13325W        W29134  16.404   4.156  12.284 -0.2154 -0.0117  0.0183
13326W        W29135  17.936   0.816  10.111 -0.2144  0.0935 -0.2310
13327W        W29136  11.724  13.692   3.681  0.0417  0.1881  0.1207
13328W        W29137  14.552   8.971  12.712 -0.3383 -0.2261  0.3398
13329W        W29138   7.957   9.714   2.960  0.1080 -0.2414 -0.1668
13330W        W29139   8.720  16.416  12.361 -0.3063  0.0283 -0.5196
13331W        W29140  10.633   3.510  12.105 -0.1093  0.1665 -0.0741
13332W        W29141   9.511   5.339  11.253 -0.0290  0.0458  0.0774
13333W        W29142  13.190   1.612   0.098 -0.0246 -0.0474 -0.0374
13334W        W29143  13.618   0.635  12.191 -0.0509 -0.2027 -0.2568
13335W        W29144  17.531   6.790   2.555 -0.2399  0.1825  0.0149
13336W        W29145   6.693  15.568  15.094 -0.0275  0.2480  0.0500
13337W        W29146   5.035   7.479  14.440  0.0515  0.1605  0.0300
13338W        W29147   0.469   3.602  12.238 -0.1431  0.2897 -0.0542
13339W        W29148   7.975  13.677   3.085  0.0907  0.2544 -0.0227
13340W        W29149   3.322  15.736  14.401 -0.1672  0.3741  0.0430
13341W        W29150   4.847   7.588  12.586 -0.0927 -0.2479 -0.0884
13342W        W29151  16.099   8.893  11.907 -0.4032  0.0812 -0.1669
13343W        W29152   5.776   9.446  15.484 -0.1470  0.0061  0.1396
13344W        W29153   6.795  16.822  14.956  0.0676  0.3931  0.2574
13345W        W29154  16.720   2.171   0.651 -0.2834  0.2112  0.1594
13346W        W29155   4.640   8.957  13.098 -0.1971 -0.1263  0.1397
13347W        W29156  10.955   3.810  12.288  0.0647 -0.1630 -0.3991
13348W        W29157   6.636  10.992   0.168  0.0509  0.1042 -0.0251
13349W        W29158  12.592  10.195   5.601  0.0535  0.3240 -0.0783
13350W        W29159   3.683   6.414   3.043  0.2788 -0.4481  0.2147
13351W        W29160  16.975   3.215   4.193  0.1189  0.0897  0.1167
13352W        W29161  17.584   5.312   0.974  0.1482  0.0822  0.0964
13353W        W29162  13.389   9.934   3.715 -0.0613 -0.2107  0.0463
13354W        W29163  18.648   3.693  12.139  0.3446  0.0410  0.2078
13355W        W29164   9.522   0.135   1.266 -0.0695  0.1367 -0.0553
13356W        W29165  14.456   9.631  12.776  0.2522 -0.1220 -0.0311
13357W        W29166  12.474   0.871   4.235  0.2834  0.1160 -0.1476
13358W        W29167  11.575   7.713   0.835  0.0375  0.5039 -0.3096
13359W        W29168  16.798   8.517   3.993  0.0780  0.1785  0.2015
13360W        W29169  11.551  16.158  12.751 -0.0120 -0.0314  0.1855
13361W        W29170  12.416   1.361   4.325  0.1543 -0.1508 -0.1299
13362W        W29171  18.192  11.117   4.377  0.3760 -0.0776 -0.1597
13363W        W29172   1.637   1.227  14.811  0.1723  0.1428 -0.4298
13364W        W29173  11.883  12.412   2.717 -0.3112  0.2066  0.2014
13365W        W29174  16.857  18.435   6.066  0.0716 -0.0172  0.0188
13366W        W29175  16.070   7.893  14.639  0.3111 -0.2778  0.2150
13367W        W29176   3.725   7.933  12.249  0.0187  0.0722  0.0628
13368W        W29177   9.207  11.498  15.221 -0.0056  0.1872  0.0839
13369W        W29178  16.764  16.831   4.310  0.0332  0.1759  0.0642
13370W        W29179  13.504  15.117  13.451  0.2275 -0.2722 -0.1554
13371W        W29180   4.727   7.583   3.268  0.1971  0.0192 -0.3705
13372W        W29181  12.741  16.371  11.213  0.2725 -0.1482  0.1851
13373W        W29182  15.583   2.909   0.954 -0.0454 -0.0151  0.1826
13374W        W29183   2.647  16.065   2.345  0.0269  0.0671  0.0166
13375W        W29184   8.443   5.973  11.228  0.3566 -0.1580 -0.0926
13376W        W29185   6.243  15.921  11.270  0.3507  0.0830  0.0260
13377W        W29186  12.589   3.195   0.307 -0.2296 -0.2566  0.3063
13378W        W29187  12.289  11.791  13.939 -0.0125  0.2020  0.0207
13379W        W29188   3.869   6.624  12.619 -0.1585 -0.1704 -0.2330
13380W        W29189  16.683  18.328  13.378 -0.0574 -0.0911 -0.2841
13381W        W29190  10.619  11.539  12.974 -0.0838 -0.0313 -0.0995
13382W        W29191   6.540   9.873   0.106  0.1422 -0.2210  0.0808
13383W        W29192  15.133  17.675  14.892 -0.0775 -0.2130  0.1117
13384W        W29193   1.788   7.056  14.419 -0.0723 -0.0884 -0.0506
13385W        W29194  16.223  11.320  15.348  0.2236 -0.0582 -0.0095
13386W        W29195   0.619   2.994   4.766 -0.2039 -0.1908  0.0182
13387W        W29196   0.720   5.796   1.036  0.2775 -0.3552 -0.2760
13388W        W29197   0.228   5.895   0.719 -0.2397  0.0061 -0.0414
13389W        W29198   0.171   4.338  14.570 -0.1940  0.1183 -0.0932
13390W        W29199  13.599   4.208   0.521 -0.0713 -0.1110  0.2851
13391W        W29200  10.577  15.448   1.503  0.0561  0.4057  0.2973
13392W        W29201   1.260   0.216  10.499  0.2160 -0.0533  0.1937
13393W        W29202   3.304  13.176   4.296 -0.1617 -0.0942  0.2640
13394W        W29203  14.669   5.064  15.278 -0.0492  0.1549  0.0101
13395W        W29204   8.900  14.797   4.919 -0.2368  0.0997  0.2465
13396W        W29205  13.364   9.444   2.712  0.3331 -0.2895  0.0836
13397W        W29206   6.243  12.870  14.868  0.2035  0.0905 -0.2823
13398W        W29207   3.317   6.282  13.312 -0.0470 -0.2783  0.0935
13399W        W29208  16.793   2.983  15.605 -0.1193  0.1443 -0.1967
13400W        W29209  15.496   9.016   0.621  0.3373  0.1571 -0.0396
13401W        W29210  16.493  12.958   1.780 -0.3411 -0.2239  0.0052
13402W        W29211   4.493   7.101  11.042  0.2701 -0.1598 -0.0540
13403W        W29212   0.738  15.077  15.379  0.0191  0.0408 -0.0680
13404W        W29213   3.902   2.417  11.890 -0.1724 -0.1538 -0.0927
13405W        W29214  10.931   2.205  10.822 -0.1527  0.0371 -0.3206
13406W        W29215  17.098   5.912   1.664  0.1122 -0.2335  0.0892
13407W        W29216   5.819  14.952  14.217 -0.1894 -0.2525 -0.0715
13408W        W29217   6.037   7.750   2.779  0.0073  0.4204  0.2997
13409W        W29218   3.650  13.322   2.324  0.2024 -0.2294  0.2945
13410W        W29219  10.831  15.753  12.091 -0.0350  0.3308 -0.1286
13411W        W29220   1.921   3.727  11.513  0.0439  0.1400 -0.2078
13412W        W29221   6.725   2.756  12.455 -0.3254  0.2008 -0.2779
13413W        W29222   4.513   8.794   5.024 -0.1106  0.1004 -0.0244
13414W        W29223   7.927   0.453  12.236 -0.0596 -0.0216  0.3505
13415W        W29224   7.331  14.319   2.388  0.0766  0.1790 -0.2272
13416W        W29225  17.380  14.167  13.709 -0.0820 -0.0214 -0.1711
13417W        W29226   5.663  15.097  12.533  0.0245 -0.1048  0.1423
13418W        W29227   3.831   3.259  12.187  0.0861 -0.1863 -0.1764
13419W        W29228  14.124  13.857   1.213  0.2422  0.0798  0.1712
13420W        W29229   3.830  17.381  12.158  0.1031  0.1188 -0.0073
13421W        W29230  15.080  17.562  11.295  0.2008 -0.0779  0.0419
13422W        W29231  15.145   3.726  11.923 -0.2631  0.0339 -0.0581
13423W        W29232   8.327   1.492   0.328  0.0683 -0.0753 -0.0556
13424W        W29233   6.468  12.517   4.133  0.0946  0.1743 -0.1689
13425W        W29234   8.488  17.119   3.955 -0.0649 -0.2984  0.3471
13426W        W29235   5.669  17.935   0.316 -0.2636 -0.0232 -0.1071
13427W        W29236   6.718  17.923  11.808 -0.0413 -0.3151  0.1963
13428W        W29237   1.789   7.546  15.061 -0.0490  0.1614  0.1816
13429W        W29238  16.894   2.242   5.597  0.0047 -0.0900  0.0415
13430W        W29239   5.610   0.705   0.323  0.0824 -0.1189 -0.2054
13431W        W29240   3.064   8.130  15.014 -0.0791 -0.0682 -0.2171
13432W        W29241   8.205  11.497   2.352 -0.3591 -0.3753  0.0224
13433W        W29242  11.232  12.891  14.024 -0.0736  0.2251  0.1733
13434W        W29243   8.984   7.394  12.269  0.2802 -0.0011  0.0096
13435W        W29244   5.732  10.983  10.427  0.1388  0.1211 -0.1442
13436W        W29245  12.316   8.794   5.292 -0.1970 -0.1843  0.1706
13437W        W29246  10.024  18.350   2.555 -0.0446 -0.1733 -0.1111
13438W        W29247  14.014   2.534   4.422  0.3178 -0.3605 -0.2276
13439W        W29248   0.323  10.986   3.709  0.2534  0.2342  0.2455
13440W        W29249   6.556   7.891  14.018 -0.0870  0.0335  0.0200
13441W        W29250   7.551   6.935   0.759  0.2738 -0.2049  0.0498
13442W        W29251   1.674   4.821  12.383  0.0348 -0.1993 -0.1241
13443W        W29252   2.273   1.494   1.140  0.0282  0.0313 -0.0354
13444W        W29253   2.737   6.026   1.795 -0.0964  0.0208  0.1187
13445W        W29254  14.878   5.105   1.758  0.1201  0.0093 -0.1036
13446W        W29255   8.060  17.458   0.666 -0.0094  0.1116  0.0928
13447W        W29256   1.959   7.017   2.267 -0.0988  0.1074 -0.1541
13448W        W29257  18.321  15.853   0.388  0.1783 -0.1310 -0.1038
13449W        W29258   1.259   1.340   1.383  0.1284 -0.3229  0.1760
13450W        W29259   8.962  17.104  11.502 -0.4851 -0.2275  0.2709
13451W        W29260   7.211  15.516   1.520  0.0926 -0.1810 -0.0243
13452W        W29261   8.218  13.763   1.405 -0.1830  0.0990  0.2064
13453W        W29262   9.322  13.149  11.320 -0.0617 -0.1974  0.1695
13454W        W29263   9.423  18.387   3.329 -0.1847 -0.3029 -0.0683
13455W        W29264  13.604   0.167  12.280  0.2217 -0.0342 -0.0294
13456W        W29265  15.620  14.933   4.830  0.0544  0.3339 -0.1737
13457W        W29266   5.833   8.456   1.218  0.0337 -0.2378  0.0147
13458W        W29267   2.312   2.045   5.288  0.0029 -0.1102 -0.0270
13459W        W29268   4.089   6.546  12.116  0.1570 -0.1572 -0.0830
13460W        W29269  13.762  10.158   3.433  0.1707 -0.4939 -0.1809
13461W        W29270  16.347   0.379  12.861  0.0871 -0.0781 -0.1455
13462W        W29271  12.548   9.335   5.740  0.0685  0.1156 -0.0557
13463W        W29272   4.163   2.661  13.122 -0.0620  0.4272  0.0800
13464W        W29273   8.213  17.311   3.617  0.1813 -0.0813  0.0313
13465W        W29274   9.471   2.525   4.684 -0.1008  0.3145 -0.0847
13466W        W29275   2.653  16.081  12.486 -0.2413  0.1953  0.1159
13467W        W29276  12.200  12.813   2.574  0.1886 -0.0153  0.0348
13468W        W29277   1.454   2.895  11.985 -0.2661 -0.0881  0.0478
13469W        W29278  11.617  16.185  15.189  0.2205  0.0822  0.0380
13470W        W29279  16.051  18.618  12.905 -0.0979 -0.0749 -0.1511
13471W        W29280   2.496  15.840  10.703 -0.2456 -0.1452 -0.0901
13472W        W29281   3.103  14.676  11.570  0.0298  0.1941  0.0536
13473W        W29282   8.272  17.143   2.192  0.4157  0.1466  0.2191
13474W        W29283   3.606  15.245   4.822  0.1856  0.4008 -0.1261
13475W        W29284   3.526  15.715   3.701 -0.0547  0.1935  0.1401
13476W        W29285  17.381   7.929   9.348 -0.1760 -0.2078 -0.0866
13477W        W29286  14.192  10.858   1.150  0.2184  0.0851  0.1862
13478W        W29287   0.368  12.387   0.369  0.0238 -0.2179 -0.3381
13479W        W29288   9.455  18.430   1.642 -0.0482 -0.1076  0.0771
13480W        W29289   3.070  11.790  13.167  0.1276 -0.1382 -0.1940
13481W        W29290   7.482  10.932   0.642  0.1767  0.0948 -0.1323
13482W        W29291  14.508   1.447   0.212 -0.1080  0.0091 -0.0782
13483W        W29292  16.917   6.116  14.849 -0.1218 -0.0994  0.2699
13484W        W29293  12.517  15.357   2.388 -0.2253 -0.1841  0.2237
13485W        W29294  11.418  11.530  14.213  0.1117  0.4291  0.1666
13486W        W29295  14.217   7.677  10.298  0.0693  0.1279 -0.0405
13487W        W29296   9.301   1.920   3.982  0.2426 -0.1628  0.1759
13488W        W29297  11.778  17.684  15.334  0.0079 -0.1214  0.2248
13489W        W29298   8.550  15.874   3.829 -0.4027 -0.4333 -0.3523
13490W        W29299  17.327   9.352  13.087  0.0854  0.0415 -0.2566
13491W        W29300  12.264  14.124   0.966 -0.0851  0.1332  0.0362
13492W        W29301  14.257   7.753   4.962  0.0296  0.1140 -0.1125
13493W        W29302  10.394  16.338   4.368 -0.0762 -0.1267 -0.1969
13494W        W29303   6.261   4.875  12.127 -0.1527  0.1076  0.1273
13495W        W29304   7.681   7.833   3.609  0.0308  0.1121 -0.1572
13496W        W29305   9.764  17.537  10.262 -0.0818  0.0358  0.0873
13497W        W29306   5.166   7.733  10.794 -0.2269 -0.1083 -0.0102
13498W        W29307  15.702   7.017   9.059  0.0329  0.1100 -0.0042
13499W        W29308   7.224   4.021   3.074 -0.2518 -0.0785 -0.0968
13500W        W29309  12.721  16.871   4.300  0.2779 -0.1447 -0.0503
13501W        W29310   4.217   6.278  12.554 -0.1763 -0.0897 -0.0262
13502W        W29311  13.819  18.440   3.529  0.0515  0.3074  0.0793
13503W        W29312   1.017  12.589  14.567  0.0607  0.3047 -0.1882
13504W        W29313   4.955  14.400  12.679  0.1192 -0.1548  0.2237
13505W        W29314   4.294  10.138   4.775 -0.1182 -0.0347  0.1340
13506W        W29315   3.564   2.551   5.406  0.0748  0.2794 -0.0044
13507W        W29316  12.166  16.466   4.775  0.1058  0.1464 -0.1785
13508W        W29317   1.154  14.224   0.954 -0.1071  0.3233  0.0716
13509W        W29318  13.504   1.433  14.126 -0.3739 -0.1088  0.0842
13510W        W29319  18.137  10.444  13.914  0.0571 -0.0306  0.0694
13511W        W29320   5.797   1.987  11.124  0.2197  0.0983 -0.2204
13512W        W29321   0.592   2.999  14.153  0.0828  0.0693 -0.1811
13513W        W29322   1.929   4.048   4.096  0.2100 -0.0151 -0.1581
13514W        W29323   6.496   6.056   2.481  0.3075 -0.0754 -0.2796
13515W        W29324  10.308  16.395  15.115  0.0212 -0.2510 -0.5413
13516W        W29325  17.297  18.549  12.473  0.1194 -0.0568  0.1603
13517W        W29326   7.060   6.205  13.558 -0.0067 -0.0621 -0.4519
13518W        W29327  11.852   1.619   4.829  0.3575  0.2762  0.2370
13519W        W29328  17.770  10.890  13.823  0.0173  0.2336  0.3133
13520W        W29329   2.278  18.566   5.642 -0.0517 -0.0126  0.2853
13521W        W29330   1.694   7.609   3.109 -0.1338 -0.0183 -0.3052
13522W        W29331   1.632  14.737  10.851  0.4269  0.2035  0.2654
13523W        W29332   0.578  15.014   3.810 -0.2089 -0.0551 -0.1904
13524W        W29333   0.814   3.915   9.648 -0.2718 -0.2722  0.0264
13525W        W29334   3.634   3.516   0.113 -0.3336  0.1728  0.2740
13526W        W29335   1.995  15.044  13.284 -0.3566 -0.0670 -0.0529
13527W        W29336   4.342   9.159  11.402 -0.1442 -0.3592 -0.1466
13528W        W29337   3.498   2.294   4.011  0.5864 -0.3260  0.2555
13529W        W29338   7.589   2.309   3.122 -0.0425 -0.2138 -0.1691
13530W        W29339   4.522  17.481   3.763 -0.1295  0.1785 -0.0246
13531W        W29340  13.856  11.897   5.494 -0.1169 -0.1093 -0.2159
13532W        W29341  17.355   9.639   0.469  0.2106 -0.1286 -0.5451
13533W        W29342   4.430   4.518  15.210 -0.1811  0.5056  0.0444
13534W        W29343  11.653   9.244   0.311  0.2779  0.0823 -0.2269
13535W        W29344  14.892  14.974   4.577 -0.2048  0.1455  0.0254
13536W        W29345   4.243   5.145  14.732  0.3438  0.2448  0.0619
13537W        W29346   7.613  10.594   3.706 -0.1890 -0.0688 -0.0834
13538W        W29347   3.141   8.752   1.656  0.1354 -0.1961  0.0767
13539W        W29348   2.184   5.566  10.523  0.0220  0.1564 -0.1264
13540W        W29349  14.211   9.314   4.444  0.1779  0.0951 -0.5954
13541W        W29350   2.771  10.957  12.356 -0.2991 -0.0528 -0.1198
13542W        W29351  17.171  11.376   5.480 -0.1515  0.0781 -0.1071
13543W        W29352  16.366  11.806  15.465  0.0604  0.0520 -0.1432
13544W        W29353  10.126   2.345   4.264  0.3996 -0.3654 -0.0587
13545W        W29354  15.693  11.425  11.677  0.1178  0.4480 -0.2713
13546W        W29355   2.272   4.534  10.558 -0.3366 -0.0380  0.2141
13547W        W29356   5.498   7.157  15.012  0.3312  0.1541 -0.2130
13548W        W29357   3.554   6.262   1.873 -0.0299  0.1542 -0.0615
13549W        W29358  14.317   7.739   2.083  0.0675  0.1190  0.1948
13550W        W29359   1.386  17.402   1.988  0.0611  0.1284 -0.1798
13551W        W29360  17.612   8.415  14.974  0.1770 -0.0618  0.3198
13552W        W29361   7.605  13.987   3.302 -0.3738  0.1732 -0.0344
13553W        W29362  11.806   5.906   4.567 -0.1239  0.2661 -0.1803
13554W        W29363  16.614   4.876   0.117 -0.1380  0.1758  0.2471
13555W        W29364  15.394  10.833   0.072  0.0943  0.1893 -0.3647
13556W        W29365   3.373   8.139  12.936  0.0748 -0.1173  0.0193
13557W        W29366   9.769   7.916   5.050  0.0613 -0.1032  0.2651
13558W        W29367  18.307   3.225  15.193  0.0607 -0.3031 -0.2374
13559W        W29368   5.169  17.374   2.670 -0.1037 -0.0150  0.1776
13560W        W29369  13.965  14.869  13.622 -0.0618  0.0173  0.1677
13561W        W29370   3.112   7.083  12.780 -0.0329 -0.0375  0.2072
13562W        W29371   8.493  13.563   4.402 -0.0819 -0.0838 -0.1420
13563W        W29372  18.106   3.427  14.171  0.1661  0.2746 -0.0898
13564W        W29373   0.509   1.496   4.490  0.0459  0.3477 -0.1446
13565W        W29374   7.944   3.829  13.006  0.3541 -0.0878  0.0698
13566W        W29375   3.018  18.466  14.666 -0.6405  0.2270 -0.1206
13567W        W29376  13.536   4.088   0.987  0.1118 -0.0225  0.1454
13568W        W29377  15.363   1.927   0.294 -0.0718 -0.0180 -0.1450
13569W        W29378  10.097  16.710   1.009 -0.4214  0.1694  0.0066
13570W        W29379  11.837   2.192  11.863 -0.0260  0.3380 -0.0673
13571W        W29380   3.100  15.877   4.519  0.0888  0.1028  0.4919
13572W        W29381   7.808  16.728   1.940 -0.3490 -0.0497  0.1266
13573W        W29382   5.536  16.760  15.295  0.1884  0.1112 -0.0783
13574W        W29383  15.521  14.249   4.243 -0.0623 -0.4461 -0.2053
13575W        W29384  13.829  10.868   3.999 -0.1017 -0.0673 -0.1604
13576W        W29385  16.680   8.747  13.249  0.3887  0.0394 -0.1791
13577W        W29386  17.246  10.994  10.604 -0.1017 -0.1255  0.2873
13578W        W29387  13.116   7.867   1.128  0.1622 -0.1056 -0.0253
13579W        W29388   7.901   3.562   4.486 -0.3202  0.2836  0.2679
13580W        W29389   2.221  10.869  10.546  0.0335  0.1711  0.1195
13581W        W29390   8.866  13.539  15.266 -0.0271  0.0945  0.1260
13582W        W29391   4.776   3.904  11.452 -0.0441 -0.4113 -0.2625
13583W        W29392  11.550  16.098  13.725  0.0538  0.2886  0.0298
13584W        W29393   9.506   7.167  11.301  0.1560  0.1591 -0.1774
13585W        W29394   1.146   5.091  10.422  0.3432  0.0853  0.0651
13586W        W29395   0.334  11.081   0.522  0.0246 -0.1685 -0.3205
13587W        W29396   4.977   4.450   3.049 -0.1220  0.2869  0.0048
13588W        W29397   0.740   7.403  14.610 -0.0854  0.2092  0.0952
13589W        W29398   7.706  12.288  13.990 -0.0853  0.1159 -0.0939
13590W        W29399   2.090  10.777   5.034  0.3203  0.1680  0.1873
13591W        W29400   5.000   0.164   4.679  0.0748  0.2024 -0.1687
13592W        W29401   6.361   2.364  12.788  0.1317  0.0057 -0.2158
13593W        W29402  10.638   1.147  13.689 -0.3262  0.1928 -0.2409
13594W        W29403  14.462   9.781  10.733  0.0022 -0.0022  0.1239
13595W        W29404  12.298  15.485  12.064 -0.0857  0.3325  0.1311
13596W        W29405  16.519  11.039   4.587  0.0386 -0.0344 -0.1504
13597W        W29406   2.251  18.489   2.633 -0.2727  0.2908 -0.1902
13598W        W29407  17.555  11.216   3.668  0.0830 -0.2338  0.0962
13599W        W29408   5.600  11.273   0.150 -0.0881 -0.4268  0.0410
13600W        W29409   4.048   5.598  13.472  0.2128 -0.1929  0.1319
13601W        W29410   3.450  12.834   2.576  0.1442 -0.0624 -0.2367
13602W        W29411  13.354   4.894  12.778 -0.2174  0.0572  0.0641
13603W        W29412  15.249   5.415  10.939  0.1578  0.1633  0.0455
13604W        W29413   8.965   5.784  14.707  0.1483  0.2630 -0.0758
13605W        W29414   4.738   8.008   2.294 -0.0611 -0.1299  0.0145
13606W        W29415   6.233  11.214  15.518  0.0709  0.0127 -0.1478
13607W        W29416   9.260   3.172   5.252  0.0023 -0.1487  0.3462
13608W        W29417   2.996   8.034  11.114  0.2033  0.0196  0.0088
13609W        W29418  18.031   7.098   1.724  0.1568 -0.1842 -0.0421
13610W        W29419   1.282   3.555  14.063  0.2352  0.2030  0.2043
13611W        W29420   5.333   5.841   3.587  0.3988 -0.0178 -0.3205
13612W        W29421   6.912   6.681  13.423 -0.2489  0.1336 -0.2037
13613W        W29422   0.477  13.148  14.361 -0.0392  0.0006  0.1280
13614W        W29423   4.370  10.062   4.064 -0.1691 -0.1891  0.1201
13615W        W29424   0.966  12.415  12.816  0.2599  0.3348 -0.3169
13616W        W29425  13.879   6.381   4.274 -0.0846 -0.2023  0.0953
13617W        W29426   8.607  10.113   1.730 -0.3119  0.2855 -0.3413
13618W        W29427   1.817   3.462   3.111 -0.3222 -0.1653 -0.3660
13619W        W29428  18.069  17.177  11.411  0.2609  0.2169  0.2484
13620W        W29429   4.246   1.126   3.586  0.1715  0.0057  0.0721
13621W        W29430   7.113   7.085   1.405  0.2032  0.2145 -0.0967
13622W        W29431  16.843  18.291   0.157  0.0815 -0.1556 -0.0010
13623W        W29432  13.981   9.732  12.667 -0.3153 -0.1179 -0.0583
13624W        W29433  17.146  11.158  14.990  0.1715  0.1194  0.0197
13625W        W29434   5.530   5.602   2.132 -0.1748 -0.1996 -0.2164
13626W        W29435   1.193   4.229   4.579  0.1902  0.0937  0.1684
13627W        W29436  13.368   5.699  12.965  0.1029  0.1209  0.0606
13628W        W29437  10.479  13.477  12.732  0.1552  0.3634 -0.0458
13629W        W29438   1.005  13.641   4.822 -0.1555 -0.3133 -0.0456
13630W        W29439  16.206  12.164   0.720  0.1203 -0.2493  0.1834
13631W        W29440   5.365  10.007   2.963 -0.1741 -0.2426 -0.2274
13632W        W29441  14.887   6.859   3.767  0.0516  0.1102  0.0581
13633W        W29442   5.444  10.177   4.451  0.0804 -0.0868  0.0150
13634W        W29443   0.129   3.654   0.273  0.3133  0.1251  0.3309
13635W        W29444   3.134  17.553   1.531  0.2202  0.1020  0.2638
13636W        W29445   3.812  10.886   4.605 -0.0409 -0.1496 -0.0064
13637W        W29446   7.750   0.059  11.845 -0.0315  0.1208  0.4192
13638W        W29447  12.617   7.744  12.387 -0.0114  0.1884 -0.0625
13639W        W29448  10.685  18.329  14.439 -0.0055 -0.1882  0.3302
13640W        W29449   0.937   7.318   2.371 -0.2917 -0.1390 -0.0664
13641W        W29450   1.314   1.488   3.866  0.3891 -0.0222  0.3907
13642W        W29451  16.358  12.237  12.532 -0.1294 -0.1372  0.0180
13643W        W29452   0.509   0.929  11.088 -0.3476  0.1083 -0.0689
13644W        W29453   0.370  16.540  12.810  0.1203  0.1730 -0.0402
13645W        W29454   4.879  10.679   0.290  0.3097 -0.0608 -0.0749
13646W        W29455  11.559   9.054  10.888  0.0678  0.1939 -0.3612
13647W        W29456   3.351  13.324   2.738 -0.1869 -0.1187  0.2823
13648W        W29457  12.778  13.505  11.567  0.2646 -0.4593  0.0546
13649W        W29458  10.815   2.453  14.265  0.0878  0.0379  0.2631
13650W        W29459   9.388   0.757   1.338  0.0536 -0.3119 -0.0579
13651W        W29460  11.029  15.794   2.993 -0.1070 -0.0628 -0.1745
13652W        W29461   6.923   4.896  14.073  0.2082  0.1139  0.0213
13653W        W29462   9.352   9.785   0.025  0.1070 -0.3214 -0.0290
13654W        W29463  11.338   9.908  14.927 -0.0153  0.0322  0.0010
13655W        W29464   9.351  10.907  13.073  0.1080 -0.1901  0.0891
13656W        W29465  17.727  16.503  15.607 -0.2326  0.1253  0.1468
13657W        W29466   5.677   4.068   0.525 -0.1537 -0.2004  0.1746
13658W        W29467   7.459  12.741  12.172  0.2423  0.1185  0.1555
13659W        W29468  15.745   0.019  10.496  0.1915  0.1213 -0.1189
13660W        W29469  12.646  10.845   0.324 -0.2310 -0.0588 -0.2951
13661W        W29470   7.726   3.032   0.678 -0.2761  0.0946  0.2299
13662W        W29471  11.599  12.226  12.184  0.1978  0.1329  0.2130
13663W        W29472   1.959  16.662   5.492  0.1031 -0.1920  0.2142
13664W        W29473  18.488   5.221   4.181  0.0491  0.0137 -0.0785
13665W        W29474   8.943  14.902  14.047 -0.2303  0.2893  0.1819
13666W        W29475   6.312   2.332   4.186 -0.0980 -0.2104  0.2069
13667W        W29476  16.200  11.242  11.612  0.1221  0.0432 -0.1398
13668W        W29477   9.005   1.657  13.846  0.0703 -0.0828  0.1208
13669W        W29478   4.133   4.814   3.998 -0.2623  0.0335  0.0316
13670W        W29479   9.079  10.289  11.865  0.0923 -0.1850  0.0741
13671W        W29480  13.647  18.519  14.473 -0.2493  0.3856 -0.0919
13672W        W29481   9.097   8.003   4.401 -0.2089 -0.2752  0.1177
13673W        W29482  10.808  14.196  15.215 -0.4377 -0.3644  0.0169
13674W        W29483   6.965  15.099   4.279  0.0316  0.0370  0.1641
13675W        W29484  17.513   2.998  10.867 -0.0871  0.0015 -0.1086
13676W        W29485   8.965  10.741  12.895  0.0810  0.2192 -0.3422
13677W        W29486   2.127   1.036  13.855 -0.0912  0.1137  0.1166
13678W        W29487   1.173  14.253   4.742 -0.2279 -0.3585  0.0866
13679W        W29488   8.878   0.312   5.908  0.1975 -0.0130 -0.2310
13680W        W29489  10.903   7.571  13.265  0.1423  0.1390 -0.1436
13681W        W29490   3.776  17.004  14.867 -0.1124 -0.0457  0.0967
13682W        W29491   2.667   7.422  13.546 -0.1905  0.0123  0.0533
13683W        W29492   0.185   0.390   3.009  0.0252  0.2481 -0.1764
13684W        W29493  12.876  13.402   0.663  0.0593  0.0234  0.1901
13685W        W29494  17.439  15.055   4.994  0.0878 -0.1341  0.0735
13686W        W29495   0.460  18.043  15.109 -0.1763  0.0215  0.2171
13687W        W29496  15.333  16.518  12.782  0.0346  0.1136  0.1486
13688W        W29497   4.491   1.801  13.737 -0.0280  0.0811 -0.0255
13689W        W29498  13.492  13.803   3.653 -0.2462 -0.1567 -0.2894
13690W        W29499   4.038   3.956  11.696  0.1164  0.3157 -0.1336
13691W        W29500   7.497   9.386  13.560  0.1435 -0.1219  0.3986
13692W        W29501   0.210  18.525  11.383 -0.2582 -0.1934  0.2175
13693W        W29502   2.653   6.164  12.738  0.0798  0.0461 -0.2075
13694W        W29503  13.725  13.934  15.377  0.2680 -0.0820  0.0047
13695W        W29504  12.593   5.410   2.869  0.2881  0.3061  0.0355
13696W        W29505   6.145  12.214  13.255  0.1629 -0.0503 -0.1344
13697W        W29506  16.825  18.167   2.578 -0.1423 -0.2695 -0.2526
13698W        W29507  12.734   9.718  15.529  0.1339  0.0616  0.0528
13699W        W29508   5.049  10.144  12.017 -0.1065  0.0206 -0.1971
13700W        W29509  13.277  15.842   3.172 -0.0185  0.1210 -0.0015
13701W        W29510   1.022  13.256  11.615 -0.1985  0.2971  0.3401
13702W        W29511  18.413  12.993  13.390  0.3679 -0.1604 -0.1459
13703W        W29512   5.051  12.669   1.940  0.0137 -0.1518  0.1301
13704W        W29513   2.919   3.794  11.562 -0.1626 -0.1082 -0.1802
13705W        W29514  17.141   6.570  14.622  0.4756  0.0768  0.2505
13706W        W29515  17.163  16.234  13.359  0.1799 -0.0138  0.1182
13707W        W29516   9.095   3.704  11.489 -0.3922 -0.0356  0.0011
13708W        W29517  13.700  12.643   5.017  0.0113 -0.1494  0.0443
13709W        W29518  11.922   5.873  14.890 -0.0022 -0.1364 -0.1798
13710W        W29519  13.497  17.306   1.025 -0.2266  0.1675 -0.0622
13711W        W29520   7.871   9.812  14.105 -0.0513  0.0785 -0.1142
13712W        W29521  18.088   3.832   2.521  0.0709 -0.0850 -0.1296
13713W        W29522   4.736  10.845   4.677 -0.0574 -0.1623  0.2321
13714W        W29523   3.923   5.390   2.044  0.0857 -0.0505 -0.0669
13715W        W29524  13.338   1.382   1.584 -0.1851 -0.2066  0.0406
13716W        W29525  17.001  10.705   3.967 -0.1865  0.0165 -0.0730
13717W        W29526   3.187   5.947   2.084 -0.1610 -0.2658  0.2355
13718W        W29527   8.598  13.197  14.443 -0.2277  0.0747 -0.2712
13719W        W29528  15.025   5.308  14.994  0.1769  0.0243  0.3629
13720W        W29529   3.243  12.259  13.855 -0.0768  0.2751  0.0143
13721W        W29530  18.087   4.411   0.453 -0.0722 -0.0767  0.3382
13722W        W29531  10.926   7.957   1.300  0.0355 -0.1349 -0.1010
13723W        W29532  17.705   3.999  11.429  0.0767  0.0200 -0.3528
13724W        W29533   6.132   5.537   1.212  0.2276  0.2841  0.1731
13725W        W29534   7.341   0.939  11.979 -0.1313  0.1208 -0.0515
13726W        W29535   0.744   7.371   2.859 -0.0617 -0.3027  0.1367
13727W        W29536  12.074   2.588   5.344  0.0212  0.1424  0.3573
13728W        W29537  10.194  13.000  12.358 -0.2075 -0.2516 -0.0645
13729W        W29538  12.837   1.404   0.990  0.4182 -0.0658 -0.4089
13730W        W29539  17.065  10.535  14.007 -0.2402  0.0428  0.1823
13731W        W29540  10.281   6.595   4.608 -0.0803 -0.0920 -0.2082
13732W        W29541  17.009   8.670  11.548 -0.2840 -0.0591 -0.0688
13733W        W29542  14.963  15.387  13.574  0.4568 -0.1039  0.1339
13734W        W29543  16.846  10.677   4.419 -0.0429  0.0122 -0.1714
13735W        W29544   6.964   8.185  11.297  0.0459 -0.2159 -0.0625
13736W        W29545  10.337  18.569  11.800  0.3692 -0.0862  0.2070
13737W        W29546  11.553   9.753   4.601 -0.1497  0.0000 -0.0892
13738W        W29547  12.657   4.580   0.189 -0.0256  0.3984 -0.0478
13739W        W29548  18.092  16.293   9.801  0.1868 -0.0408  0.1227
13740W        W29549   3.103   5.067   2.461 -0.0896 -0.2463 -0.1302
13741W        W29550  16.748  15.358  13.837 -0.0662  0.4962 -0.0461
13742W        W29551   0.110  14.320   2.870 -0.0014  0.0784 -0.1045
13743W        W29552  15.044   4.565  12.262 -0.1760 -0.0311  0.0534
13744W        W29553  12.222   3.282   4.570  0.1168 -0.0057  0.1697
13745W        W29554  11.295  17.006   2.488  0.2706  0.0882 -0.0169
13746W        W29555  12.940  16.570   3.959 -0.0332 -0.0493  0.1840
13747W        W29556   9.445   5.897  14.852 -0.0619  0.0558 -0.2080
13748W        W29557   2.838   3.182   3.810 -0.1406  0.1525  0.1224
13749W        W29558   5.972  11.073  10.892  0.1448  0.3499  0.1105
13750W        W29559   6.214   9.405  13.638 -0.0786 -0.0332 -0.2173
13751W        W29560  17.324  12.197   3.090 -0.3260  0.0143 -0.0348
13752W        W29561  12.804   2.820  13.481 -0.2548 -0.0408 -0.3322
13753W        W29562  15.236  12.325   4.103 -0.1573  0.1218  0.1567
13754W        W29563   5.307  15.557   2.065  0.1356  0.0647 -0.0300
13755W        W29564  15.667  18.166   9.804 -0.1294  0.2430 -0.0117
13756W        W29565   1.699  10.815  11.050 -0.3413  0.1900 -0.1835
13757W        W29566  17.718   7.602   3.167  0.0830 -0.2449  0.0695
13758W        W29567   2.000   5.954   3.628 -0.4463 -0.2889  0.0741
13759W        W29568   1.181  13.846  14.590  0.0334 -0.0087 -0.2570
13760W        W29569   4.711   0.295   2.504  0.2361 -0.0907  0.3583
13761W        W29570  12.014  17.802   3.198 -0.1517 -0.2801 -0.0745
13762W        W29571  18.549   7.169  13.232  0.4494 -0.2018  0.1814
13763W        W29572  14.514  16.558  15.488 -0.1939  0.1790  0.0684
13764W        W29573  16.463   5.009   2.745  0.0819 -0.1557 -0.2769
13765W        W29574   3.589   3.145  10.766  0.2924  0.3110  0.1265
13766W        W29575  11.825  17.724  11.469  0.1736 -0.0107 -0.1031
13767W        W29576  16.545  14.240  10.778 -0.0175 -0.2387 -0.1088
13768W        W29577  15.030   5.957   4.815 -0.6377 -0.1307  0.0959
13769W        W29578   5.778  14.631  13.780  0.1747  0.0610  0.2554
13770W        W29579   1.252   2.491  11.690  0.2381 -0.1399 -0.0291
13771W        W29580   1.280  14.194   3.064 -0.1695  0.3283 -0.0139
13772W        W29581  18.046   2.276  15.410  0.4478 -0.2093  0.0124
13773W        W29582   0.132   6.637  14.584  0.1580  0.0022 -0.1032
13774W        W29583  17.295  11.997   3.865  0.2265 -0.2346 -0.0563
13775W        W29584  14.891  15.532   3.451 -0.2764 -0.1084 -0.1046
13776W        W29585   8.696   6.562  11.400  0.1133  0.3668 -0.2005
13777W        W29586  12.408   2.028   3.592 -0.1951 -0.1936 -0.0470
13778W        W29587   6.412   6.869   1.950 -0.0580 -0.0081 -0.0424
13779W        W29588   9.010  17.606   3.247 -0.0992 -0.0769 -0.1103
13780W        W29589   2.021  12.216   3.180  0.2147 -0.1993 -0.1682
13781W        W29590  11.678   1.293   5.143 -0.0786  0.3294  0.1785
13782W        W29591   1.415  17.522   3.620  0.2988  0.0456 -0.3852
13783W        W29592   2.833  18.664  12.603  0.5220 -0.0390  0.1243
13784W        W29593   1.156   7.837   3.977  0.0588 -0.0833 -0.1902
13785W        W29594   4.518   2.430  14.507 -0.0259 -0.2809 -0.2051
13786W        W29595   8.156   1.399  13.395 -0.0435  0.3469  0.3469
13787W        W29596  14.634  13.528   5.756  0.0130 -0.2647  0.3933
13788W        W29597   2.796   2.064  14.499  0.2775 -0.1309  0.1391
13789W        W29598  12.429   2.870   3.112  0.2973  0.0405  0.0925
13790W        W29599  17.337  11.093  10.140  0.1442 -0.2375  0.0591
13791W        W29600   4.939   2.570   1.597 -0.0344  0.0117  0.1875
13792W        W29601  17.040   3.079  10.833 -0.0790 -0.0496 -0.0552
13793W        W29602   2.639  11.989   1.652  0.4339  0.3484 -0.2090
13794W        W29603  12.660   5.761   1.181  0.0619  0.3833 -0.4976
13795W        W29604   1.829   8.573   4.649  0.1107  0.0016  0.1897
13796W        W29605  15.947  18.323   3.749  0.0446 -0.0359  0.2804
13797W        W29606   5.723   9.860  13.895 -0.0470  0.2094 -0.0705
13798W        W29607   5.575   3.526  10.503  0.1025 -0.1098 -0.2360
13799W        W29608   5.314  17.847   4.183  0.1096 -0.0186  0.3208
13800W        W29609   5.386  14.570  11.288 -0.2494  0.1206 -0.0647
13801W        W29610  17.954  15.029   2.298  0.3212  0.0083 -0.3624
13802W        W29611   1.858  15.201   2.361  0.1021 -0.0799  0.0348
13803W        W29612  11.464  12.335  11.431 -0.2126 -0.3228  0.2205
13804W        W29613   1.690   4.471   3.029 -0.2429 -0.2341  0.0340
13805W        W29614  13.071   3.563  11.760 -0.0031 -0.0974 -0.2215
13806W        W29615  15.230  16.536   0.929  0.1425  0.0407  0.1404
13807W        W29616   8.254   3.867  11.169  0.1959 -0.1353 -0.4660
13808W        W29617  12.845   3.796   3.565  0.2532  0.1603  0.0792
13809W        W29618   7.185  16.094   4.038  0.1911  0.1660 -0.1273
13810W        W29619  16.179  13.891  14.122  0.0375  0.1916  0.2935
13811W        W29620  10.778  10.765  14.200 -0.2019  0.5486 -0.4405
13812W        W29621   2.272   4.259  11.351  0.1076  0.0346 -0.0411
13813W        W29622  10.691   6.733  13.036  0.1952  0.1456  0.1187
13814W        W29623   5.884   3.053   4.218 -0.3422 -0.1159  0.0624
13815W        W29624  15.125  14.638  12.059 -0.0744  0.0898 -0.1208
13816W        W29625  17.563  18.108   1.554  0.0804  0.2335  0.1154
13817W        W29626  13.364  10.308  11.702  0.1840  0.1475  0.2057
13818W        W29627  11.253   9.956  11.919  0.1564  0.0040  0.0912
13819W        W29628   0.120   0.617  13.084  0.0001  0.0772 -0.2162
13820W        W29629   5.847   3.173  12.557  0.1367  0.0520  0.0583
13821W        W29630  15.550   1.965   2.887 -0.0521 -0.3210 -0.1726
13822W        W29631   3.196  18.056  10.031  0.0120  0.3042  0.2098
13823W        W29632  16.836   5.526  11.536 -0.0640 -0.0337  0.2374
13824W        W29633  13.811   7.597  13.391 -0.2187 -0.1305 -0.0960
13825W        W29634  15.593   5.068  15.617 -0.0351  0.1625 -0.1043
13826W        W29635  16.589  13.743  10.584 -0.1682  0.0505  0.1394
13827W        W29636  18.105   8.626   2.512 -0.0563  0.2272  0.1198
13828W        W29637  17.661   6.969   3.083  0.0693  0.0521  0.0611
13829W        W29638   8.843   9.224  12.935 -0.0396 -0.0006 -0.1585
13830W        W29639   4.268   3.270  10.925  0.2611  0.1073  0.0877
13831W        W29640  10.961   7.369   6.113 -0.1070 -0.2987  0.0056
13832W        W29641  10.177   3.008  12.086 -0.0514 -0.0479 -0.2958
13833W        W29642   8.168  17.662   2.195 -0.0509  0.1829 -0.0361
13834W        W29643   2.046  16.993  11.005  0.0618  0.2380 -0.1536
13835W        W29644  13.253   9.032   0.091 -0.0159 -0.1171 -0.1672
13836W        W29645  12.839  12.665  15.533 -0.2422 -0.1245  0.3234
13837W        W29646   0.471  13.097  12.125  0.0565 -0.1043  0.1223
13838W        W29647  12.412  11.751  15.107 -0.2138  0.0966  0.1388
13839W        W29648  13.823  10.515   0.984  0.1883 -0.2095 -0.0137
13840W        W29649   1.487   3.275  15.213 -0.3154  0.2044 -0.0069
13841W        W29650   4.014  13.273  15.262  0.1047  0.1549  0.0767
13842W        W29651   4.059   9.664  14.458 -0.1451  0.1890 -0.1549
13843W        W29652  12.253   3.954   2.901  0.0953  0.0990 -0.0405
13844W        W29653  11.470   8.749   0.283  0.3005  0.1603 -0.0143
13845W        W29654   4.847   9.701  13.048  0.0007  0.1974 -0.0618
13846W        W29655  14.109   8.107  15.140  0.0715  0.0724 -0.4361
13847W        W29656  18.570  15.019   5.025 -0.1712  0.0617 -0.0593
13848W        W29657   5.762   5.115   4.108  0.3411 -0.5067  0.1900
13849W        W29658  13.966   0.163  13.570 -0.1298 -0.0462 -0.1646
13850W        W29659   4.071  16.031   0.880  0.0625 -0.2414 -0.1072
13851W        W29660  10.987   4.263   2.188  0.2098 -0.0419 -0.0497
13852W        W29661  14.523   1.759   0.661  0.1436 -0.2603  0.0689
13853W        W29662  17.283  16.273   4.726  0.0393  0.3449  0.2551
13854W        W29663   6.021  18.496  12.987  0.2743 -0.3505  0.1545
13855W        W29664   0.111   5.153   2.698 -0.0437  0.2067 -0.1566
13856W        W29665  13.123   0.044   4.883  0.2135  0.1210  0.0468
13857W        W29666   9.914  12.910  12.848  0.0190 -0.3133 -0.0192
13858W        W29667  10.292  15.997   4.746  0.3833  0.1786  0.0791
13859W        W29668  18.181   9.166  13.390  0.3070 -0.2072 -0.1988
13860W        W29669   7.304  10.784  11.916  0.1630  0.1090  0.2326
13861W        W29670   6.260   5.233  12.445  0.0925  0.2629 -0.4479
13862W        W29671   6.273   2.478   4.732  0.2053 -0.0006 -0.3382
13863W        W29672  13.580   9.522  14.590  0.0610  0.2573  0.1549
13864W        W29673  14.294   6.991  13.786  0.1037  0.0548 -0.2532
13865W        W29674  13.127  15.324   3.398  0.0981  0.0555  0.0263
13866W        W29675  15.874  15.958   1.134 -0.2124  0.1054 -0.1875
13867W        W29676   4.993   7.900   4.895  0.1772 -0.0520 -0.0193
13868W        W29677  12.427   5.166  11.430  0.2059  0.1105 -0.1647
13869W        W29678   1.755   7.664   4.018 -0.0140  0.0287  0.0260
13870W        W29679  15.478   1.272   0.291  0.0623 -0.3175  0.1814
13871W        W29680  15.056  10.565  15.467  0.3191  0.3261 -0.2034
13872W        W29681   4.673  17.865   3.445  0.0123  0.1498 -0.1638
13873W        W29682  12.337   2.264  15.579 -0.0543 -0.0306  0.1259
13874W        W29683  16.223  14.275   3.770 -0.1522  0.0314 -0.1946
13875W        W29684   6.679  12.752  13.245 -0.2828  0.1291 -0.0246
13876W        W29685  16.116   9.214   1.281 -0.1810 -0.3800 -0.1113
13877W        W29686  13.779  12.192  11.213  0.1892  0.2654 -0.1029
13878W        W29687   5.607  15.104   1.440 -0.1952  0.0158 -0.0848
13879W        W29688   3.323   8.954   2.921  0.0542  0.0485 -0.2931
13880W        W29689   0.125  15.352  13.169 -0.2334 -0.2737  0.2221
13881W        W29690  10.057   0.384  11.745  0.3297 -0.0162  0.4651
13882W        W29691  13.264   1.166  11.410 -0.1221 -0.0435 -0.0677
13883W        W29692  17.375  12.650  14.087  0.1415 -0.0486  0.2072
13884W        W29693   7.817   6.574  11.335 -0.0390  0.1971 -0.0704
13885W        W29694  14.550   7.605   4.523  0.0488  0.0857  0.1093
13886W        W29695  13.869   8.201  14.318  0.2940 -0.1364 -0.3263
13887W        W29696  17.935   2.305  11.314  0.0896  0.0258 -0.3184
13888W        W29697  16.836  10.491  12.373 -0.0578  0.1270 -0.1624
13889W        W29698  16.097   0.537   4.458 -0.0194 -0.0073 -0.1719
13890W        W29699   2.584  11.490   0.323 -0.3058 -0.2361  0.1166
13891W        W29700   6.504   5.355   3.547  0.2498  0.5147  0.1518
13892W        W29701  18.451   3.520   1.554 -0.1277  0.2575 -0.0786
13893W        W29702   6.942   1.947   5.772  0.0157 -0.4281  0.1123
13894W        W29703   6.332   0.553   5.047 -0.2810 -0.3887 -0.0523
13895W        W29704  15.706   9.494   4.265  0.0279  0.1290 -0.0189
13896W        W29705  12.683  12.372   0.660  0.1347  0.3095 -0.0304
13897W        W29706   9.517   6.744   0.340 -0.1563  0.1821  0.0350
13898W        W29707  10.306  17.211  12.194 -0.0564 -0.0467  0.0192
13899W        W29708  13.084  10.249   0.875 -0.2481 -0.1121  0.1549
13900W        W29709   9.927  13.180   5.282 -0.3217  0.2727  0.1951
13901W        W29710  15.622  16.220  14.175  0.1261 -0.0073  0.0249
13902W        W29711  11.417  14.649  14.057 -0.1137 -0.1070  0.0565
13903W        W29712  17.599   3.161  14.064  0.2533  0.0054  0.2234
13904W        W29713   0.479  14.884  14.985  0.0571 -0.0303 -0.0751
13905W        W29714   4.134  10.407   3.828  0.0249 -0.1007  0.0834
13906W        W29715   4.901  12.123  11.064 -0.1521 -0.1486  0.0319
13907W        W29716  13.353  10.121  13.795 -0.2924 -0.2536  0.1320
13908W        W29717   9.022  14.531  11.621  0.0532  0.0668 -0.0893
13909W        W29718  12.221   5.748   4.287  0.0099 -0.3233  0.0971
13910W        W29719  13.935  10.303  10.323  0.0373  0.0243  0.0431
13911W        W29720  18.663   3.159   3.644  0.3320 -0.1159 -0.0731
13912W        W29721   5.891  11.992  11.738  0.2055 -0.1138  0.0582
13913W        W29722  10.043   4.000  12.328 -0.2316 -0.3059 -0.0827
13914W        W29723   2.691  15.225   4.929  0.0001  0.2414 -0.0068
13915W        W29724   3.187   2.272  13.142 -0.0120  0.1006  0.6024
13916W        W29725   3.368   1.828   2.392  0.0337  0.0257 -0.1917
13917W        W29726   5.906   0.188   5.163  0.0142  0.0974 -0.1602
13918W        W29727   5.352   7.611   3.460  0.1971  0.1592  0.2536
13919W        W29728   5.583  13.833   0.903  0.0066  0.2891  0.3245
13920W        W29729  13.797   5.476  14.713  0.1765 -0.0676  0.2682
13921W        W29730   2.147   9.045  11.769  0.0493 -0.3120 -0.0209
13922W        W29731  10.930  16.714   1.570  0.1360  0.0323 -0.1197
13923W        W29732  17.511  12.617   0.812  0.3918 -0.2122 -0.0968
13924W        W29733  16.310   4.841  12.904  0.1332 -0.0092  0.3150
13925W        W29734   8.054   2.934  15.462  0.4708 -0.0288 -0.1459
13926W        W29735  14.254   9.653  14.490 -0.2539 -0.0721 -0.1470
13927W        W29736  17.197  12.905  10.444  0.0995  0.4267  0.0869
13928W        W29737   0.414   7.353   0.797  0.2149  0.1099  0.2841
13929W        W29738  18.580   4.834   1.433  0.0352  0.0848 -0.1361
13930W        W29739   5.883   0.965   2.376  0.0018  0.1775  0.0315
13931W        W29740   2.640   0.312  10.092  0.0042 -0.0436 -0.2148
13932W        W29741  15.596  18.647   9.889  0.3045 -0.1661  0.0665
13933W        W29742  12.757   5.319  13.139  0.1933  0.0805 -0.0374
13934W        W29743   7.772   4.966   2.270 -0.2106  0.1740 -0.0024
13935W        W29744   6.485   0.793   3.317  0.1151  0.1991 -0.2675
13936W        W29745   0.445   0.628  14.619 -0.0778  0.0129  0.0774
13937W        W29746   7.843   0.105   4.411  0.0278  0.0261  0.0743
13938W        W29747   9.666   9.022  13.055 -0.3923  0.1121 -0.1099
13939W        W29748   7.669   6.489   2.859 -0.0516 -0.2808  0.0963
13940W        W29749  17.692   0.473   3.465 -0.2874  0.0819 -0.1531
13941W        W29750   2.127  10.303   2.062  0.0145 -0.0731  0.3787
13942W        W29751   7.950   6.092   0.003 -0.0494  0.1732 -0.0368
13943W        W29752   0.240  18.368   2.296  0.1097 -0.1221 -0.2312
13944W        W29753   3.332   9.792  15.266 -0.0889 -0.1699 -0.0876
13945W        W29754   1.370   7.416   4.043  0.1267 -0.0277  0.3649
13946W        W29755  17.385   1.674   1.768 -0.2687  0.2185 -0.1462
13947W        W29756   3.732   3.227  10.259 -0.2093  0.1916  0.1181
13948W        W29757  11.545  15.415  14.704 -0.1086  0.4007 -0.2279
13949W        W29758  15.996  11.678   2.027 -0.0910 -0.2835  0.1190
13950W        W29759   6.041   0.107   4.666 -0.0889  0.1181  0.4128
13951W        W29760  16.643  15.439   2.772 -0.2309 -0.0111  0.1543
13952W        W29761  16.450  14.346   4.548 -0.0232 -0.2069 -0.0728
13953W        W29762   3.921  10.068   9.760 -0.1609  0.2015  0.3103
13954W        W29763   6.757  13.021  13.650  0.1608 -0.0498 -0.1260
13955W        W29764   5.657   0.274  12.207 -0.0653 -0.0437  0.2051
13956W        W29765   3.159  11.308   1.833 -0.1663 -0.2346 -0.0299
13957W        W29766  17.978  16.120   4.062  0.1981  0.3165  0.0706
13958W        W29767  15.823  10.990   0.344  0.1731  0.0876  0.0205
13959W        W29768  18.498   5.601   0.745 -0.2294 -0.0711 -0.2251
13960W        W29769   2.244   9.696  11.004  0.0356 -0.0563  0.0454
13961W        W29770   7.605  10.097   5.012 -0.0304  0.0522 -0.0697
13962W        W29771   6.323   9.719  14.586  0.3066  0.1147  0.0601
13963W        W29772  16.588   3.328  15.268  0.0409  0.0082 -0.0381
13964W        W29773  17.031   9.009  11.101 -0.2457  0.1702  0.0240
13965W        W29774   2.579  17.199  11.675 -0.3115 -0.1978 -0.3170
13966W        W29775   5.413  18.476   0.507 -0.3684  0.0730  0.3996
13967W        W29776   9.340   0.234  14.561 -0.0559 -0.4478  0.2708
13968W        W29777   2.796   6.724  14.041 -0.1122 -0.0225 -0.2683
13969W        W29778  15.420   4.450   5.830 -0.0464 -0.0614 -0.1837
13970W        W29779  14.662  11.120  12.943 -0.2340  0.3465  0.1715
13971W        W29780   6.843   9.277   2.492 -0.3753 -0.0289  0.0747
13972W        W29781   8.573   8.737  14.568  0.1126  0.0070  0.2352
13973W        W29782   6.814  12.033   0.675 -0.1259 -0.1028 -0.3118
13974W        W29783   8.650   4.371   0.138  0.0814 -0.3982 -0.0452
13975W        W29784   8.053   3.265   1.352 -0.4171 -0.1549 -0.2469
13976W        W29785   3.870  16.531   4.563  0.1438  0.0389  0.1258
13977W        W29786  13.916   0.034  14.916  0.2892 -0.0027 -0.0988
13978W        W29787   8.554  15.913   4.334  0.3444 -0.1307 -0.2150
13979W        W29788   5.267  16.993   1.911  0.0072 -0.1978 -0.0453
13980W        W29789  12.770  17.452   5.308  0.1243  0.0020  0.1042
13981W        W29790   7.153   0.202   2.414 -0.4599 -0.1541 -0.1458
13982W        W29791   9.902   8.259   4.718  0.0046 -0.0976  0.3851
13983W        W29792   0.873   1.478   2.348 -0.1096 -0.1229  0.0746
13984W        W29793   5.135  13.580  14.752 -0.1424 -0.2767  0.2912
13985W        W29794  12.049   9.676  13.036 -0.3656  0.0800  0.1495
13986W        W29795   9.859  18.596  14.740  0.0706  0.2694  0.0596
13987W        W29796  14.060   2.141  13.009 -0.1581  0.1313  0.0204
13988W        W29797  12.652  15.138  11.752  0.0537 -0.2262 -0.1003
13989W        W29798  11.479  18.580  13.474 -0.0424  0.2132 -0.3179
13990W        W29799  11.236   8.142  15.333  0.0125  0.0080 -0.0631
13991W        W29800  16.670  13.938  13.411 -0.1849 -0.1429  0.1937
13992W        W29801  13.790   7.249   4.469 -0.0777 -0.0037  0.2753
13993W        W29802  14.496   9.101   9.869  0.0841 -0.2540  0.0464
13994W        W29803  13.878   1.248   2.893 -0.1509  0.0713  0.1360
13995W        W29804  16.754  10.601  15.318 -0.1052 -0.0167  0.1335
13996W        W29805  11.856   2.078   4.981 -0.0650 -0.0222  0.2267
13997W        W29806   8.368   7.392   3.508  0.1194 -0.1397 -0.4195
13998W        W29807   3.615  14.963  14.090 -0.0988 -0.0831  0.0565
13999W        W29808   2.601  18.514   0.461  0.0306  0.0877 -0.0952
14000W        W29809  11.745   1.333  14.865  0.1434 -0.1242 -0.2534
14001W        W29810  18.339   3.720   0.464  0.0101 -0.2289 -0.0138
14002W        W29811  10.671   0.414   1.921  0.1781 -0.3295  0.0367
14003W        W29812   8.136   5.612   3.820  0.0792  0.1900 -0.1463
14004W        W29813   9.933   3.444  14.154 -0.0624 -0.1714 -0.2458
14005W        W29814   6.318  18.291  11.777  0.1711  0.0954 -0.0543
14006W        W29815  11.496  14.045  11.209  0.1527  0.0453 -0.0673
14007W        W29816  16.639   2.268   3.362 -0.1242 -0.1450  0.0578
14008W        W29817  17.663  15.530   0.943  0.0343 -0.0995 -0.1779
14009W        W29818   8.877   3.291   2.915  0.4117  0.0366  0.1922
14010W        W29819   9.857  12.502  10.554  0.0868  0.3399  0.0781
14011W        W29820  14.331   5.454   3.105 -0.1711 -0.1065  0.1452
14012W        W29821   6.426   6.716  15.381 -0.0598  0.0369 -0.2594
14013W        W29822   0.039   9.189  10.726 -0.2624 -0.1041  0.0520
14014W        W29823  16.130  13.066   2.740  0.1364  0.0939  0.3072
14015W        W29824  11.892  15.673  11.809 -0.0146  0.0742  0.1916
14016W        W29825   8.361  10.877   4.775 -0.1849 -0.0852 -0.0688
14017W        W29826  10.933  15.699   2.546  0.2376  0.1338  0.0074
14018W        W29827   0.287   4.944   1.107  0.0375  0.1081 -0.0383
14019W        W29828   1.444   2.146   0.330 -0.0366  0.0592  0.1934
14020W        W29829  16.844   0.802   3.372 -0.2246  0.4299 -0.1189
14021W        W29830   3.368   4.687   4.175 -0.0689  0.2096 -0.2880
14022W        W29831   7.864  11.163   2.076  0.1037  0.2309  0.0216
14023W        W29832   4.730   2.891  11.173 -0.0604  0.2933 -0.2174
14024W        W29833   7.342   1.899  13.651 -0.0033  0.0227 -0.1437
14025W        W29834   7.762  16.848  11.032  0.1794  0.0383 -0.0222
14026W        W29835  12.804  10.773   3.844  0.0519  0.2597  0.0719
14027W        W29836   8.618  15.017  12.400 -0.1235 -0.3234 -0.1177
14028W        W29837   7.836  12.838   2.652  0.1934 -0.0222  0.0911
14029W        W29838  13.237  18.368   2.030  0.2135  0.0512  0.0087
14030W        W29839  15.475   2.300  12.769 -0.0533 -0.2225  0.2259
14031W        W29840  16.800  16.885  15.016 -0.6331  0.0772  0.3342
14032W        W29841   8.855  14.103  12.953 -0.0870 -0.0569 -0.2980
14033W        W29842   0.652  13.407   0.159  0.0425  0.0053 -0.1110
14034W        W29843   8.685   2.100  10.285  0.1420  0.0211  0.2662
14035W        W29844  15.941   6.268   4.173  0.0179  0.1029  0.2204
14036W        W29845   8.720  16.402   4.298 -0.3282  0.1004  0.1208
14037W        W29846  18.203  17.818   1.203  0.1437  0.5431 -0.2127
14038W        W29847  16.980  14.312   3.358 -0.1148  0.0420  0.0399
14039W        W29848  15.531   2.680   2.660  0.0290 -0.0937 -0.1755
14040W        W29849  16.825   4.428  10.606 -0.3221 -0.2117  0.2847
14041W        W29850  10.895   8.160  13.871 -0.2471 -0.3934 -0.1329
14042W        W29851  17.683   0.058  14.946 -0.0811 -0.3084 -0.1880
14043W        W29852  12.865   3.357  13.356 -0.0443 -0.1160  0.2222
14044W        W29853   5.447   3.073   2.271 -0.0716  0.0815  0.1662
14045W        W29854  15.383  11.238  14.202 -0.1725 -0.1750  0.0584
14046W        W29855  10.186   5.708  12.116  0.1458 -0.0170 -0.0750
14047W        W29856   4.584  10.358  14.551 -0.0392  0.1235  0.1341
14048W        W29857   7.634   5.986   0.419  0.1008  0.3172  0.0196
14049W        W29858  16.897  10.627  11.427  0.0247  0.0227 -0.3255
14050W        W29859   3.748  16.355  11.696  0.0480  0.1750  0.0195
14051W        W29860  15.067  15.417   0.127 -0.2811 -0.2785  0.0251
14052W        W29861   0.261   2.348  14.662 -0.0576  0.2296  0.0921
14053W        W29862   6.673  11.627  13.341  0.0838 -0.2675 -0.0318
14054W        W29863  17.289   4.345   2.213  0.1462  0.0421  0.0436
14055W        W29864   1.897   2.140   3.291 -0.0919  0.3237  0.0066
14056W        W29865  14.686   4.957   0.665 -0.0627  0.0123 -0.1260
14057W        W29866   5.911  10.261   4.316  0.0171 -0.0237  0.2436
14058W        W29867   8.511   0.008   2.961  0.3730  0.2677 -0.0250
14059W        W29868  11.421   5.109  13.740 -0.0499 -0.2467  0.1859
14060W        W29869   9.824  10.615   5.581  0.4371  0.0342 -0.1699
14061W        W29870  17.245   1.642  11.893 -0.1908 -0.0048 -0.2013
14062W        W29871   7.054  16.861   2.707  0.0723  0.0522 -0.0440
14063W        W29872  18.484   2.034   4.120 -0.0964 -0.0609 -0.0463
14064W        W29873  15.452  11.411   0.397  0.2367 -0.0217 -0.1281
14065W        W29874  10.443  17.098   2.224  0.0757 -0.0078  0.1387
14066W        W29875  13.495   3.298  14.072  0.3453  0.0982 -0.0021
14067W        W29876  13.005   9.809  14.025  0.0223  0.0005  0.1387
14068W        W29877  14.537  12.319   5.278 -0.1983 -0.0547  0.0426
14069W        W29878   9.709   1.714  11.683  0.2320 -0.1738 -0.0645
14070W        W29879   0.816  14.676  10.941  0.1238  0.3013 -0.2790
14071W        W29880   8.772   3.875   1.621 -0.3882 -0.0223  0.1632
14072W        W29881   7.077   1.494   0.357 -0.0683  0.0788 -0.0299
14073W        W29882   8.245  16.955   4.402  0.0547  0.0825  0.0389
14074W        W29883   9.203   1.592   1.770  0.0778 -0.1453  0.0560
14075W        W29884   5.915  11.692   3.295 -0.1361  0.1156  0.1520
14076W        W29885   1.852   8.093   4.760  0.3981 -0.0797 -0.0349
14077W        W29886  17.534  13.853   0.245  0.0073  0.0343 -0.1910
14078W        W29887   7.620   6.857   2.541 -0.0560  0.0903 -0.2080
14079W        W29888  15.364  14.225  13.698  0.1367  0.0096 -0.2841
14080W        W29889   1.132   1.133  14.820 -0.1297 -0.0627  0.1171
14081W        W29890   2.872  11.474  15.437  0.3461 -0.0028 -0.0727
14082W        W29891   6.434   6.736   3.395  0.0226  0.2408  0.1826
14083W        W29892   8.486   7.350   0.768  0.0539  0.2413  0.0073
14084W        W29893   2.379   5.122   2.045  0.0829 -0.1433 -0.1314
14085W        W29894  11.103  17.588   2.779 -0.0439 -0.1779  0.1502
14086W        W29895  10.475   8.871   1.108 -0.2919 -0.3537  0.0588
14087W        W29896   6.639  13.554   4.327 -0.0672  0.1368  0.0547
14088W        W29897  11.196   8.643  15.473  0.4718 -0.0340 -0.2909
14089W        W29898   0.846  12.316  12.024 -0.0809  0.1951  0.2009
14090W        W29899  17.994  10.928   2.860 -0.1412  0.0582  0.3533
14091W        W29900  17.536  13.535  14.243  0.1337 -0.2977  0.2682
14092W        W29901   5.420   9.196   4.224 -0.0012 -0.3277 -0.2792
14093W        W29902  15.380   6.923  13.660  0.3078  0.3049  0.2019
14094W        W29903  11.058   5.807   1.892  0.1730  0.2493 -0.0168
14095W        W29904  11.762  15.305  12.135  0.0559  0.2946  0.1267
14096W        W29905   0.283   4.748  13.293 -0.0721  0.0748 -0.2017
14097W        W29906   7.872   4.796   3.549  0.1705 -0.0495  0.0086
14098W        W29907  10.655   5.071  12.616 -0.1452  0.2095  0.0477
14099W        W29908   8.168   2.944   0.323 -0.1601 -0.1036  0.0684
14100W        W29909  10.481  13.230  10.878  0.2729  0.1625  0.2680
14101W        W29910   5.456  15.975   0.958  0.2392 -0.0952 -0.0486
14102W        W29911  13.472  17.716   3.202  0.0372 -0.0195 -0.1841
14103W        W29912  12.353  10.030  10.942 -0.2122 -0.0350 -0.0961
14104W        W29913   4.618  15.308  13.080  0.2342  0.2007 -0.1062
14105W        W29914   6.825  16.136  14.235  0.1151 -0.0044  0.0307
14106W        W29915  17.254  17.408   3.834 -0.2068 -0.0594  0.1812
14107W        W29916  10.177  13.583  13.941  0.1960  0.1240  0.2590
14108W        W29917   0.843   4.173  14.446 -0.1652 -0.3501 -0.1893
14109W        W29918  11.096   2.813   2.169  0.1607  0.0195 -0.1802
14110W        W29919   2.699   2.005   2.308 -0.0774  0.1683 -0.3483
14111W        W29920   8.139  12.870  12.564 -0.1438  0.0324  0.1187
14112W        W29921   6.007   9.732  11.199 -0.0152  0.2289  0.0162
14113W        W29922   7.703  17.091  10.538 -0.0285  0.2220  0.0772
14114W        W29923   1.027  17.328   3.950 -0.0455  0.4327  0.1058
14115W        W29924  11.504   8.792   3.986  0.2376 -0.0791 -0.0279
14116W        W29925  12.454   8.622   1.089 -0.1100 -0.0800  0.1361
14117W        W29926   8.017   0.116   2.649  0.2300  0.0973 -0.0199
14118W        W29927  14.828   8.203  12.483  0.0179  0.1528 -0.1820
14119W        W29928   2.185   5.585  14.339  0.3679  0.3837 -0.0611
14120W        W29929  12.169  17.293   3.044  0.3426  0.0618 -0.0516
14121W        W29930   1.819   0.224  11.994  0.1477  0.0972  0.0209
14122W        W29931  18.559  10.727  10.888 -0.2213  0.2098  0.0685
14123W        W29932   9.376   2.406   0.841 -0.2622 -0.0105 -0.0195
14124W        W29933  12.687  18.470   5.014  0.0899  0.2768 -0.1855
14125W        W29934  17.209   5.657  15.623  0.0956  0.1046 -0.0999
14126W        W29935  17.995   3.767   3.308  0.0403  0.0721 -0.0835
14127W        W29936   6.739  15.802   4.162 -0.0613 -0.0913  0.0982
14128W        W29937  10.579   0.752   0.775 -0.1208  0.2094 -0.0841
14129W        W29938   2.590   9.186   2.575 -0.0460  0.0394 -0.2319
14130W        W29939   9.601   8.692  12.064  0.0528 -0.0402 -0.1022
14131W        W29940  16.577  17.847  12.745 -0.2115 -0.3478 -0.0101
14132W        W29941  14.775   0.854   0.585 -0.1150  0.1737  0.2003
14133W        W29942   3.567   3.523   4.862  0.0859  0.1983 -0.1965
14134W        W29943   0.993  13.742   0.231 -0.1420 -0.1726  0.2653
14135W        W29944  12.414   3.683   5.927 -0.0948  0.1748 -0.3491
14136W        W29945  12.581  16.657   4.719 -0.4203  0.0065 -0.2543
14137W        W29946   9.734   1.803   1.762  0.2073  0.0703 -0.5409
14138W        W29947  10.392   5.859  11.457 -0.1860 -0.1447  0.3553
14139W        W29948   6.455   5.722  13.846  0.1293 -0.0692 -0.0901
14140W        W29949   7.980  16.931   1.485 -0.0364  0.1265  0.1524
14141W        W29950   9.151   1.084   0.603 -0.0731  0.1304 -0.0834
14142W        W29951  11.470  11.087   2.078  0.0415 -0.3834 -0.2634
14143W        W29952   4.230   4.879  14.279  0.0891 -0.0323 -0.0151
14144W        W29953   3.885  10.339  13.921 -0.0560  0.2502 -0.1260
14145W        W29954   5.179   4.358  13.479 -0.1526 -0.1470  0.0289
14146W        W29955   0.046  14.222   3.401  0.1857  0.1919  0.1407
14147W        W29956   4.409   1.327   0.305 -0.2910  0.0003 -0.2142
14148W        W29957   4.998   8.486  12.295  0.2795  0.2787  0.1191
14149W        W29958   3.061   7.048   2.896 -0.2267  0.0478 -0.0086
14150W        W29959   9.196  16.716  11.219  0.1854 -0.2581  0.1087
14151W        W29960   9.576   3.181  12.098 -0.1161  0.0702 -0.2457
14152W        W29961   6.805   4.931  15.082  0.0178  0.0333 -0.1544
14153W        W29962  10.916  14.708  12.171 -0.1074  0.1177 -0.0196
14154W        W29963   7.657   9.875   5.716 -0.2828  0.1091 -0.0566
14155W        W29964  17.572   3.584  10.037 -0.0564  0.2337 -0.4190
14156W        W29965  10.932   3.797   1.982 -0.2380 -0.0233  0.4676
14157W        W29966   4.328   6.606   3.523  0.1811 -0.0265 -0.0546
14158W        W29967   0.354   7.513   5.464  0.2611  0.0842  0.2394
14159W        W29968   9.091   4.125  12.671  0.5553 -0.1998 -0.0044
14160W        W29969  14.554   8.128   0.566  0.0544  0.4224 -0.4317
14161W        W29970   7.719  16.323   4.079  0.2663 -0.0926 -0.1859
14162W        W29971   4.598  11.150  14.643  0.0071  0.0859 -0.0379
14163W        W29972   8.865  10.480   5.001  0.0202  0.2797 -0.0901
14164W        W29973   8.094  16.599  13.385  0.1882  0.1257  0.2010
14165W        W29974   6.906  16.727   4.572  0.1004 -0.0385 -0.1069
14166W        W29975  18.018  17.505   4.367 -0.0863  0.1047  0.0902
14167W        W29976   2.289   3.375  12.399  0.1020 -0.0684 -0.0860
14168W        W29977  10.375   0.465  15.284 -0.2232  0.1646  0.2788
14169W        W29978  15.960   4.880  14.005 -0.2190 -0.1784  0.2669
14170W        W29979  15.615   7.705  14.798  0.2399 -0.0027 -0.2049
14171W        W29980  11.977  10.086  14.405 -0.0114  0.0938  0.1328
14172W        W29981  14.518   3.558   0.203 -0.1618  0.1214 -0.1721
14173W        W29982   5.749   9.631  12.601  0.0629 -0.2051 -0.3930
14174W        W29983  13.999   1.708   0.427 -0.1775  0.1093  0.2615
14175W        W29984  10.283  16.890  12.621  0.1064 -0.0167 -0.1896
14176W        W29985   7.509   7.211   4.011 -0.3791 -0.0461  0.0653
14177W        W29986  11.049  17.784   2.196  0.3376 -0.1503 -0.0136
14178W        W29987  11.760   2.826   5.745 -0.2741 -0.1280 -0.1626
14179W        W29988   9.286  10.525   2.525 -0.4372  0.2590 -0.0302
14180W        W29989  18.075   0.755  12.585  0.3824  0.1629  0.0306
14181W        W29990  11.835   9.670  12.555  0.1623  0.1764 -0.1212
14182W        W29991   3.804   3.275  11.223  0.1600 -0.0910  0.0275
14183W        W29992  13.067   4.862  13.251 -0.1563 -0.0170  0.0473
14184W        W29993   5.526  15.151  15.060  0.1744  0.1881 -0.2053
14185W        W29994   7.690   2.013   5.227 -0.0726  0.0384  0.1604
14186W        W29995  15.627   3.176   2.690 -0.2863  0.1838  0.1315
14187W        W29996   2.980   4.357   4.770 -0.0351 -0.0589  0.0332
14188W        W29997   7.132  12.905   2.608  0.1080  0.0580  0.2035
14189W        W29998  11.930   8.741  15.140 -0.2307  0.0815  0.2382
14190W        W29999   6.851  15.667  12.414 -0.0191 -0.0815  0.0476
14191W        W30000   1.844   3.940   0.248  0.0457 -0.0385 -0.2783
14192W        W30001  11.114  13.008  12.012 -0.0466  0.0210  0.2667
14193W        W30002   4.751   7.763   1.459  0.2795  0.0233  0.0694
14194W        W30003   3.327  14.151   9.740 -0.2608 -0.1245  0.0653
14195W        W30004   9.234   4.083   1.061  0.1202 -0.1283  0.1210
14196W        W30005  12.987  17.630   1.652  0.0755 -0.0446 -0.2645
14197W        W30006  16.906   3.337  13.896 -0.0449 -0.0276 -0.0240
14198W        W30007   0.905   8.326  12.627 -0.0921  0.0256 -0.3147
14199W        W30008  18.377  10.496  14.377  0.1318 -0.3870  0.1843
14200W        W30009   7.890  17.268  11.961 -0.0965  0.3196 -0.2692
14201W        W30010   0.901   5.650   1.585  0.3795 -0.0112  0.2970
14202W        W30011  16.012  13.392   5.690 -0.0399 -0.1140 -0.2946
14203W        W30012   6.999  14.047   1.603 -0.1260  0.1279  0.0761
14204W        W30013  17.308  14.095   4.437  0.0221  0.1779 -0.1279
14205W        W30014  14.012   0.660   3.506  0.0775  0.0204 -0.3425
14206W        W30015   1.728   7.102  12.453 -0.0928 -0.0404 -0.3146
14207W        W30016  15.917  16.064   2.972 -0.1444  0.0288 -0.3867
14208W        W30017   9.704   9.865   2.405 -0.0274 -0.0349  0.3172
14209W        W30018   7.956   4.247   2.212 -0.3170 -0.0802 -0.2647
14210W        W30019   3.847  13.736   0.793  0.3085  0.0506  0.2047
14211W        W30020   1.507  13.581  11.625 -0.0080  0.2358  0.2647
14212W        W30021   2.642   7.921  13.701  0.0219 -0.1396 -0.0059
14213W        W30022   1.415   7.634   3.566 -0.0845 -0.0625  0.3717
14214W        W30023  10.723   1.342   3.444 -0.1605 -0.1270  0.0607
14215W        W30024  17.625   8.447   1.823 -0.1666  0.3511 -0.1174
14216W        W30025  15.678   3.315   5.490 -0.3781 -0.0387 -0.0398
14217W        W30026  13.380   9.316   2.212 -0.0712 -0.2248  0.1969
14218W        W30027  12.647   1.863   5.279  0.0874  0.0935 -0.1557
14219W        W30028  12.069   5.350  14.184 -0.1977 -0.4527 -0.1497
14220W        W30029   5.573   3.381   3.167 -0.1114  0.1943 -0.1669
14221W        W30030   2.211  18.143  15.271  0.3616 -0.3567  0.1111
14222W        W30031   7.039  11.204   0.985 -0.1566 -0.0146  0.0051
14223W        W30032  15.957  11.257   5.184 -0.2778  0.2216  0.0641
14224W        W30033   9.814   8.014  12.204  0.1095  0.1747 -0.3778
14225W        W30034   2.231   5.916  13.988 -0.3605 -0.3860  0.1750
14226W        W30035   0.967   7.149   4.724  0.1577  0.1564  0.1453
14227W        W30036   3.601  14.889  11.968  0.0673 -0.0043  0.2239
14228W        W30037   8.007   8.886   1.069  0.1588  0.2492  0.1400
14229W        W30038   5.578  18.177  13.705  0.3200  0.1170 -0.2187
14230W        W30039  11.644   2.659  14.300 -0.0203 -0.1787 -0.0779
14231W        W30040  17.193  13.735   2.244  0.2923  0.0748  0.1898
14232W        W30041   0.218  15.184   0.293  0.1644 -0.0038  0.2247
14233W        W30042  14.829  12.133   2.602  0.0374 -0.0233 -0.0769
14234W        W30043   0.769  11.910   2.516 -0.0238 -0.2114  0.1936
14235W        W30044   7.076   3.866  13.179 -0.3303  0.0864 -0.2099
14236W        W30045  15.669   4.712  11.434  0.2452  0.0266 -0.1284
14237W        W30046  15.542   1.344  11.880  0.1698 -0.1749 -0.1011
14238W        W30047   4.462  14.949   3.059  0.2622 -0.3579 -0.1346
14239W        W30048   4.452   9.249   2.083 -0.3483 -0.2204 -0.0315
14240W        W30049  16.795  13.851   1.858  0.0447 -0.1960 -0.0668
14241W        W30050   5.655   1.444  11.814 -0.2062 -0.2874 -0.0459
14242W        W30051   7.906  10.189   1.155  0.3212  0.2733 -0.0994
14243W        W30052   8.233   8.522  10.823  0.1539 -0.1899 -0.5907
14244W        W30053  16.984  15.973   4.285  0.2186  0.1641  0.1137
14245W        W30054  15.430   4.385  12.856  0.0429  0.0018  0.0019
14246W        W30055   0.082  11.009  14.065 -0.2453 -0.1181 -0.3425
14247W        W30056  14.459  18.466   4.788 -0.1130 -0.2075  0.1413
14248W        W30057  11.943  18.403  14.383 -0.2348 -0.0075  0.2244
14249W        W30058  16.797  14.542  11.806 -0.0788 -0.0729  0.0738
14250W        W30059   5.043  18.672   1.881 -0.2193 -0.0573  0.1553
14251W        W30060  14.453  18.008  12.536  0.1196  0.0084  0.0157
14252W        W30061   1.102  17.361   1.602 -0.0806 -0.2414  0.1887
14253W        W30062  11.422  18.508  14.274 -0.0251  0.1180 -0.0574
14254W        W30063  18.048   0.844   0.829  0.5067 -0.1392 -0.4217
14255W        W30064  12.262  11.754   4.151 -0.0265  0.0166  0.0116
14256W        W30065  12.164  18.372  12.831 -0.1628 -0.0184 -0.2046
14257W        W30066  10.125   2.961  13.472 -0.3820 -0.0774 -0.0755
14258W        W30067  17.721  10.516   3.167  0.2717  0.3581  0.3084
14259W        W30068  18.253   0.875   2.000 -0.1127  0.0851 -0.1443
14260W        W30069  17.100   8.046   4.851 -0.0829 -0.1277 -0.1357
14261W        W30070  13.696  17.906  10.730  0.0020 -0.2116  0.0437
14262W        W30071   9.696   7.143  11.944  0.0442 -0.0782  0.0073
14263W        W30072  14.029   6.606   3.766  0.2281  0.1034 -0.0222
14264W        W30073   0.388   3.910  14.340 -0.1484  0.0450  0.0870
14265W        W30074  14.243  14.125  14.741  0.0745  0.2377 -0.0631
14266W        W30075   1.259  16.143  12.009  0.2742  0.2294  0.0466
14267W        W30076  15.875  16.266   0.384 -0.0979  0.1481  0.1047
14268W        W30077  15.167   8.485   3.765 -0.2080  0.1286  0.1608
14269W        W30078   7.713   1.633  11.755  0.0022 -0.1991 -0.0013
14270W        W30079  10.195   3.559   1.033 -0.0986  0.0865 -0.1848
14271W        W30080  13.109   5.190  13.599 -0.2330 -0.3214 -0.2465
14272W        W30081   0.937   7.175  12.215  0.4281  0.0694 -0.0274
14273W        W30082  16.297  15.037   3.407  0.2343 -0.2317  0.0252
14274W        W30083   4.285   7.375   3.263  0.2901 -0.4640 -0.0288
14275W        W30084  13.490   3.079   3.883 -0.2222  0.4377 -0.2760
14276W        W30085  17.785  14.430   3.020 -0.0555 -0.0321 -0.0594
14277W        W30086  12.244  15.327  15.326  0.3445  0.1087  0.2450
14278W        W30087   1.992  17.927   1.817 -0.0557  0.0270 -0.0701
14279W        W30088  12.362  15.645   4.672 -0.2955 -0.0826  0.4920
14280W        W30089   9.532   0.090   2.646  0.1505  0.0954  0.0081
14281W        W30090  18.255  15.275   2.703 -0.1203 -0.0064 -0.1330
14282W        W30091  14.722   8.351   3.330 -0.2222 -0.2207 -0.0519
14283W        W30092  18.474  15.848  12.502  0.1868  0.1801  0.3931
14284W        W30093   8.261   4.763  11.155  0.0207  0.0093  0.1121
14285W        W30094   4.336   5.502  15.540  0.1619  0.2408 -0.2211
14286W        W30095   9.077   2.097  14.858  0.0634  0.0454 -0.1643
14287W        W30096   9.590   2.367  10.917  0.1255 -0.1137 -0.3950
14288W        W30097   7.294   6.257   4.430 -0.1316 -0.1590  0.3638
14289W        W30098   3.358  15.041   4.172 -0.1435  0.2177  0.1978
14290W        W30099   3.466   9.022  14.614 -0.0531 -0.1823 -0.1649
14291W        W30100  14.426  18.034   1.529  0.1903 -0.0541 -0.4327
14292W        W30101  17.476  13.798  13.299  0.3060  0.0039 -0.3865
14293W        W30102   2.648  15.689   4.070 -0.2291 -0.1410 -0.0448
14294W        W30103  12.254  17.520  11.355  0.2180 -0.2319 -0.0785
14295W        W30104  10.503   2.758  11.438  0.2452 -0.1714  0.1817
14296W        W30105  15.665  17.636   4.962 -0.2403  0.2391  0.0017
14297W        W30106   7.968  13.452   1.086 -0.1461 -0.3649 -0.1783
14298W        W30107  15.118   5.272   3.492 -0.5742  0.1162 -0.0619
14299W        W30108  16.702   0.688   5.009 -0.3717 -0.0456  0.1973
14300W        W30109   4.949  13.897  11.174 -0.0719 -0.4634  0.2044
14301W        W30110   5.989   5.985   5.822 -0.1737 -0.2255  0.1065
14302W        W30111  11.010  13.288   2.303  0.1343  0.1503  0.1169
14303W        W30112  13.362   4.551   2.757 -0.4414  0.2201  0.0657
14304W        W30113   8.497  11.025  12.173  0.0679 -0.1226 -0.2346
14305W        W30114  13.648  11.605   5.088  0.1205  0.0447 -0.1143
14306W        W30115  16.879   8.102  13.183 -0.0431  0.2423  0.1062
14307W        W30116   5.548  17.562  12.313 -0.1271  0.2433 -0.1196
14308W        W30117   4.996   4.523  15.307  0.0309  0.2230 -0.2397
14309W        W30118   9.047   6.752   5.140  0.0163 -0.3144  0.2830
14310W        W30119  14.439  14.861   2.705  0.1707  0.0415 -0.1328
14311W        W30120   4.501   1.529  10.906 -0.0059  0.2944 -0.0668
14312W        W30121  11.390   1.819  12.658  0.0975 -0.0018  0.2267
14313W        W30122   2.879  15.128   1.200  0.6225 -0.0436 -0.1137
14314W        W30123   1.306   7.967  12.476 -0.0473 -0.1333 -0.0835
14315W        W30124   0.484   9.282  13.598  0.0564 -0.0651 -0.2912
14316W        W30125  10.347  10.357  13.303 -0.0535 -0.0821  0.2178
14317W        W30126   7.312  18.649  13.121 -0.1221  0.0966  0.1625
14318W        W30127   7.038   2.895  15.296  0.2837 -0.0773 -0.2956
14319W        W30128  16.283   5.551   0.449 -0.2366 -0.1342 -0.2460
14320W        W30129   3.116   5.843  13.108 -0.2403 -0.2233 -0.1201
14321W        W30130   0.912  18.327  13.835 -0.0515  0.0257  0.0229
14322W        W30131  11.752   0.136  10.912  0.3774  0.1277  0.1491
14323W        W30132  10.150   5.831   1.504 -0.0656  0.3928 -0.0753
14324W        W30133  17.283  16.881   3.612  0.1674  0.1489  0.2012
14325W        W30134   1.572  17.954  14.131  0.1494 -0.3741 -0.3480
14326W        W30135  13.086   7.252  10.635 -0.1225 -0.0277 -0.1823
14327W        W30136   8.363   6.788  15.239  0.0757 -0.4232 -0.1928
14328W        W30137   2.127  11.973  13.957  0.0947 -0.2694  0.0267
14329W        W30138   1.415  15.449   4.806 -0.1874  0.0519 -0.2126
14330W        W30139  15.983  12.240  11.964  0.1632  0.0333 -0.1194
14331W        W30140  15.855   0.475  12.878  0.0327  0.0070 -0.1387
14332W        W30141   1.464   1.634  11.268 -0.0442 -0.1886 -0.2394
14333W        W30142   3.068  17.414  14.151  0.0199  0.1072 -0.1476
14334W        W30143   2.542   1.167   0.947 -0.0163  0.0990 -0.1114
14335W        W30144   1.839  14.630   3.045 -0.1566  0.0444 -0.1025
14336W        W30145  10.701   2.476  12.960 -0.1990  0.4792 -0.0355
14337W        W30146   9.690   9.107   3.633 -0.0957 -0.3615 -0.0096
14338W        W30147   5.573   4.395  13.101  0.3501  0.4786 -0.0476
14339W        W30148   6.449  14.803   4.464  0.0489  0.0106  0.1050
14340W        W30149  14.114  12.317  14.231  0.0916 -0.2914  0.1057
14341W        W30150   9.253   5.737  13.450 -0.1414 -0.1510 -0.0829
14342W        W30151   6.860   4.267   5.179 -0.1842 -0.1896 -0.1776
14343W        W30152   6.745   3.229  14.482  0.0838  0.0529  0.1600
14344W        W30153  12.625   4.138   3.248 -0.2020  0.0545 -0.3785
14345W        W30154   5.458  16.100  10.695  0.0210 -0.2325 -0.1100
14346W        W30155  11.660  15.120   2.443  0.0891 -0.1521 -0.0716
14347W        W30156   9.424   6.011   9.624 -0.0588  0.0636  0.3032
14348W        W30157   5.385   4.994  12.247  0.1835  0.0313 -0.0133
14349W        W30158   2.237  10.707   1.786  0.2397 -0.4964 -0.1924
14350W        W30159   9.532  15.961   2.547  0.1507  0.0862  0.0151
14351W        W30160   9.274  15.199   1.978 -0.0314  0.4240 -0.0703
14352W        W30161   4.863   5.610  13.999 -0.0031  0.2414 -0.4113
14353W        W30162   6.589  14.795  10.871 -0.1296 -0.2611  0.2980
14354W        W30163   3.556  14.203   1.156  0.2123  0.2295 -0.0211
14355W        W30164   0.010  14.887  12.064 -0.0620 -0.1249 -0.0489
14356W        W30165  11.974   9.495   2.209 -0.1574  0.3227 -0.0261
14357W        W30166   1.528   7.182  11.534  0.1981  0.0180 -0.3987
14358W        W30167   7.264   4.785  11.435 -0.1634  0.0744  0.2525
14359W        W30168   9.911   3.756  10.148 -0.2083  0.1357 -0.0450
14360W        W30169   5.517  16.001  11.189  0.2016  0.1733 -0.2857
14361W        W30170   7.794  17.630  14.447  0.1012 -0.0567 -0.1506
14362W        W30171  14.265  12.176  13.064  0.1494 -0.2508  0.1102
14363W        W30172  10.236  13.106   1.914  0.0570  0.3481  0.0944
14364W        W30173   8.711   2.690   4.220 -0.2776  0.2316 -0.2452
14365W        W30174  17.180  17.068  12.870 -0.1832  0.2105  0.1042
14366W        W30175   4.730  18.013   2.841 -0.3114  0.0521 -0.2053
14367W        W30176   3.250  17.817   4.622  0.3439  0.2618  0.2528
14368W        W30177  16.621   6.939  15.239 -0.0923 -0.2219  0.2396
14369W        W30178   8.947  12.160  11.086  0.2116  0.0149 -0.0571
14370W        W30179  17.026   7.043   4.450  0.0061 -0.0219  0.0317
14371W        W30180   3.790  13.769  13.292 -0.1330  0.3157  0.2271
14372W        W30181  16.165   2.306  14.354  0.0757  0.3318  0.0107
14373W        W30182  10.942   2.660   3.153  0.4192 -0.0932  0.2828
14374W        W30183   5.850   0.443  11.775 -0.2641 -0.3129  0.0831
14375W        W30184   2.883  17.967  14.446  0.2686 -0.0762  0.4068
14376W        W30185   8.799   3.251   0.898  0.0497  0.1348 -0.1012
14377W        W30186   4.299  17.524  10.935 -0.1030 -0.0571 -0.2678
14378W        W30187   9.286   0.045   5.865 -0.0866 -0.2741 -0.1321
14379W        W30188   2.668   3.358  15.281 -0.2952 -0.2694 -0.3271
14380W        W30189  17.571   8.299  13.962  0.0398  0.0548  0.0116
14381W        W30190  10.299   5.905  12.568 -0.0024 -0.2316  0.0134
14382W        W30191  10.323   6.864   2.755 -0.1804  0.0500  0.0400
14383W        W30192  13.296  16.974  11.673  0.2748 -0.1665  0.1892
14384W        W30193   8.230   1.340  14.199 -0.1778 -0.0032  0.0058
14385W        W30194  11.419  16.027   3.107  0.1740 -0.0029 -0.1230
14386W        W30195  17.135  14.246   1.410 -0.0126 -0.0861 -0.1220
14387W        W30196  16.750   8.213   2.226  0.1799 -0.2434  0.0760
14388W        W30197   8.532   8.300   1.329 -0.0295 -0.1219  0.0849
14389W        W30198   2.104  12.279   0.981 -0.3402  0.2183  0.0513
14390W        W30199   4.214  12.108   2.614  0.2294  0.2063 -0.0975
14391W        W30200  17.334   1.956  12.962 -0.0386 -0.3107  0.1257
14392W        W30201   4.305  18.555  11.713 -0.0153  0.0700  0.3026
14393W        W30202  14.039   2.370   3.544 -0.0915  0.4579 -0.2073
14394W        W30203  18.139   8.837   1.819  0.1521 -0.3515 -0.0077
14395W        W30204  16.428  12.382   1.129  0.2181 -0.3116 -0.1249
14396W        W30205  14.020  16.627  14.857  0.1229 -0.0065  0.0336
14397W        W30206  14.484  18.069  14.718  0.1243 -0.1310  0.2485
14398W        W30207   0.291   3.158  14.987 -0.1259 -0.3968  0.0295
14399W        W30208   5.082   7.011   5.471 -0.1235  0.1200  0.0056
14400W        W30209  18.607   5.492   4.668  0.0133 -0.2809 -0.0874
14401W        W30210  14.129   2.702  11.908  0.0887 -0.0123 -0.0342
14402W        W30211  10.956   1.297   5.395 -0.1800 -0.2041 -0.0552
14403W        W30212   0.973  15.487   5.947 -0.0798  0.1586  0.5117
14404W        W30213   3.345  15.095   1.860 -0.1170  0.1516 -0.0914
14405W        W30214   8.949   3.640   1.143 -0.0970 -0.2130  0.2556
14406W        W30215   4.319   9.567  14.882 -0.1038 -0.0846 -0.3268
14407W        W30216   0.158   9.751  10.147  0.3646 -0.0705  0.1536
14408W        W30217   9.145   9.854  12.771 -0.1352 -0.2846 -0.0017
14409W        W30218   7.404  14.666   0.573 -0.2233 -0.0116  0.1203
14410W        W30219   7.045   0.703   5.491 -0.2085 -0.0571  0.0031
14411W        W30220  16.977   5.434   9.869  0.2436  0.1888  0.0085
14412W        W30221  11.375  17.019  14.884  0.2910 -0.0976  0.0341
14413W        W30222   4.844  14.445  14.236 -0.1225  0.0435  0.0702
14414W        W30223   7.340   2.281   5.523  0.0287  0.1517  0.0601
14415W        W30224   4.826   5.416   3.788  0.0737 -0.2574  0.2210
14416W        W30225  15.238  10.951   0.558  0.2674 -0.0498  0.1678
14417W        W30226  14.121  15.704   6.208 -0.3629  0.2353 -0.1906
14418W        W30227   3.562   6.598  12.018  0.3034  0.0993 -0.0573
14419W        W30228   4.330   2.190  13.145  0.0041  0.0887  0.1180
14420W        W30229  15.545  18.073   2.998  0.1879 -0.0311  0.1751
14421W        W30230   3.292  12.203  11.414 -0.1238  0.0081 -0.2674
14422W        W30231  12.068  11.395   3.740  0.1880  0.2054  0.1861
14423W        W30232  18.301   0.413  10.802  0.0449 -0.1506  0.1234
14424W        W30233  13.007   2.675   0.366 -0.1926  0.1146 -0.0163
14425W        W30234  14.638  16.964   3.432  0.0922 -0.1762 -0.0616
14426W        W30235   3.122  11.146  11.940 -0.2060 -0.0627 -0.3436
14427W        W30236   2.614  16.047  10.168 -0.0132 -0.0912  0.2188
14428W        W30237  10.833  14.053  12.887  0.0260 -0.0632 -0.0842
14429W        W30238  10.281   1.595   3.783  0.1960 -0.0765  0.0883
14430W        W30239  11.894  13.241   1.715 -0.2358  0.0159  0.0615
14431W        W30240   1.218   4.072   3.423  0.2128  0.2050  0.0527
14432W        W30241  15.113   7.516  13.782 -0.0452  0.1494 -0.3211
14433W        W30242   9.610   0.447   0.903 -0.0513 -0.3547 -0.2925
14434W        W30243  10.043   9.611  14.444  0.0837  0.0922 -0.0941
14435W        W30244   1.267   6.963   0.657 -0.0716 -0.2397 -0.2092
14436W        W30245   1.602   8.505   0.665  0.3365  0.2143  0.1416
14437W        W30246  18.044  11.766  13.317  0.0932 -0.3434 -0.1648
14438W        W30247   9.537   9.304  12.136 -0.2846  0.0221  0.0650
14439W        W30248  16.184  14.130   4.962  0.1094  0.0154  0.2254
14440W        W30249  18.060  15.837   9.566 -0.0237 -0.1847 -0.3289
14441W        W30250   7.178  13.754  15.080  0.3119 -0.2168  0.2943
14442W        W30251   9.541  13.744   3.282  0.1038 -0.1341 -0.3848
14443W        W30252   2.719   7.814   3.179 -0.3086 -0.1089  0.3834
14444W        W30253  11.878   0.947   5.402 -0.0209 -0.1059  0.0114
14445W        W30254  12.798   2.304   5.278 -0.4451 -0.0523  0.1332
14446W        W30255   3.226  16.587   2.862 -0.1278 -0.2910  0.0103
14447W        W30256  16.379   0.726   3.110  0.2006 -0.0452  0.3006
14448W        W30257  13.174   6.345   4.394 -0.0725 -0.0335 -0.0062
14449W        W30258   7.518   7.341   1.182 -0.4353 -0.0668 -0.0304
14450W        W30259   6.315  17.621  15.349 -0.2713 -0.4524 -0.0218
14451W        W30260  15.216  12.668  13.137  0.2064  0.1507 -0.2543
14452W        W30261   8.380  10.257   2.141  0.4637 -0.0480  0.1588
14453W        W30262  15.450  12.399   0.022 -0.1094  0.0839  0.1111
14454W        W30263   6.721   6.890   4.999 -0.0363  0.1201  0.0170
14455W        W30264   4.174   1.552  14.669  0.2698  0.3289 -0.2128
14456W        W30265  11.864  17.513   0.989  0.0430 -0.0060  0.1456
14457W        W30266  10.970  10.165   3.446  0.2236 -0.0868 -0.1290
14458W        W30267  14.281   2.189   1.837 -0.0489 -0.2662  0.2717
14459W        W30268   8.309   7.926  10.961  0.0418  0.1880  0.0094
14460W        W30269  10.971  17.820   5.037 -0.3074  0.1429  0.1465
14461W        W30270  14.949   8.631  12.789  0.1908  0.0872  0.2643
14462W        W30271   4.503   7.105  14.929  0.1584 -0.3549  0.0127
14463W        W30272   7.102   0.957  12.414 -0.2192 -0.2145 -0.0777
14464W        W30273  12.329   5.173  12.343  0.2220  0.0531  0.2578
14465W        W30274  12.043   1.622  11.710 -0.0185 -0.0966  0.0097
14466W        W30275  12.284   3.402  12.665  0.0560  0.2916 -0.0367
14467W        W30276  17.880   6.338  13.923  0.2060  0.2625  0.2642
14468W        W30277   0.441   2.669   1.429  0.0212  0.3854  0.0091
14469W        W30278   3.876   3.574   5.234  0.1699 -0.0208 -0.3563
14470W        W30279   6.725  11.523   2.942  0.2334  0.1353 -0.0533
14471W        W30280  16.684   4.228   3.321 -0.1572  0.3019  0.3367
14472W        W30281   1.330   7.735   1.735 -0.0074 -0.0851  0.1267
14473W        W30282  16.178   5.502  11.754  0.0921 -0.4297 -0.2325
14474W        W30283   6.492   3.460   4.095 -0.1156  0.3336 -0.2485
14475W        W30284   5.361   7.554   2.051 -0.2314 -0.0820  0.1528
14476W        W30285   4.163   1.785   0.428 -0.0073  0.0301  0.0902
14477W        W30286   8.593   2.536  13.594 -0.0006 -0.1037  0.0680
14478W        W30287   1.860   5.629  15.165  0.0743  0.1020  0.1334
14479W        W30288   3.447   7.804  13.457  0.3640  0.2272 -0.0577
14480W        W30289  16.184   5.175  15.306  0.6020 -0.3523  0.3597
14481W        W30290   6.250  11.065   1.483  0.3861 -0.0357  0.1682
14482W        W30291  15.288  10.721  11.303  0.2554  0.0750  0.1933
14483W        W30292   5.790   0.267  14.193  0.0641 -0.3720  0.1271
14484W        W30293  17.480  10.054   4.904  0.0306  0.5298 -0.2336
14485W        W30294  13.619   6.909   1.191 -0.1450  0.2485  0.1262
14486W        W30295   0.657  17.236   4.308  0.3331 -0.2109  0.0631
14487W        W30296  13.892  13.330   3.560 -0.3378  0.1800 -0.0983
14488W        W30297  10.720  17.813  14.901  0.0947 -0.0415  0.0579
14489W        W30298  11.437   4.278   3.239  0.3756 -0.4617  0.0325
14490W        W30299  11.594   0.381  11.906 -0.0358  0.0979 -0.0777
14491W        W30300  13.005  11.625   5.172  0.0054  0.1505  0.1178
14492W        W30301   7.082  10.710   2.255  0.0421  0.1723  0.0638
14493W        W30302   3.286   7.964   1.391 -0.0583 -0.0705  0.2307
14494W        W30303  18.291   9.362  15.087  0.1763  0.0517 -0.2357
14495W        W30304   8.104  17.330   2.659  0.0501 -0.2965 -0.0221
14496W        W30305  17.981  10.455   4.911 -0.1647  0.2895 -0.2828
14497W        W30306   8.676   3.235  14.494  0.2083  0.1043  0.0138
14498W        W30307   3.676  11.874  13.128 -0.1906  0.3648  0.0042
14499W        W30308  18.116   1.840  12.075  0.2363  0.0613 -0.0472
14500W        W30309   8.589  16.690  13.605  0.0018 -0.1807  0.0532
14501W        W30310   2.317  15.595   4.942  0.2713  0.2879 -0.2778
14502W        W30311  17.853  14.384  11.537 -0.3497  0.1202 -0.1874
14503W        W30312  15.993  13.799   5.382 -0.1999  0.2382  0.1287
14504W        W30313  14.055  12.181   1.022  0.1027  0.3974 -0.0962
14505W        W30314   1.928  17.541   4.629 -0.1861 -0.0255 -0.1224
14506W        W30315   4.670  15.116   1.686  0.1520 -0.0817 -0.0754
14507W        W30316   2.157  13.625  15.092  0.0895 -0.4071 -0.3273
14508W        W30317  14.445  14.589  13.472 -0.1200 -0.3566  0.1643
14509W        W30318  15.848  12.780  14.744  0.0219 -0.0218  0.2836
14510W        W30319  16.892  14.543   5.513 -0.0359 -0.0627 -0.1542
14511W        W30320  16.740  17.890  14.974 -0.2010  0.1407 -0.0048
14512W        W30321   2.175   6.247   3.033 -0.1227 -0.4038 -0.0034
14513W        W30322   1.976   3.213   0.802  0.2720  0.2711 -0.2360
14514W        W30323  12.040   1.887  15.521  0.1765  0.1791  0.0556
14515W        W30324  18.240  14.386   0.409 -0.0193  0.3222 -0.0074
14516W        W30325  10.827   2.651  15.543  0.1145 -0.1837  0.0377
14517W        W30326  12.376  15.616  14.942  0.2383  0.1626 -0.1598
14518W        W30327   0.077  10.715  15.159  0.1153 -0.2308 -0.0701
14519W        W30328  12.487   4.627  11.067  0.4887  0.1095  0.0147
14520W        W30329   9.737   3.902  11.336 -0.1979  0.0628 -0.3913
14521W        W30330  18.415  12.355   3.770  0.2425 -0.0359 -0.0264
14522W        W30331   1.691  13.858   0.915 -0.0239  0.1223  0.0551
14523W        W30332  18.654  12.222  12.727 -0.2314  0.0079  0.0851
14524W        W30333   7.546   8.786   1.299 -0.1463 -0.2288  0.1078
14525W        W30334  14.597  12.674   3.973  0.0977 -0.0690 -0.0333
14526W        W30335   8.261   1.699  13.747 -0.1388 -0.0472  0.0919
14527W        W30336   9.509  15.706  12.927 -0.2807 -0.0760  0.0137
14528W        W30337  15.943   1.583  12.218  0.0365 -0.0696 -0.0240
14529W        W30338  12.887   8.610   0.799  0.0147 -0.0003  0.3270
14530W        W30339   2.383   7.393   4.403 -0.3429 -0.1125  0.0123
14531W        W30340  13.312  14.559   0.329  0.1442  0.0275 -0.0579
14532W        W30341  15.745   7.203  14.904 -0.0310  0.0039 -0.1048
14533W        W30342   8.095  17.641   1.540  0.4131 -0.0203  0.2430
14534W        W30343   4.081   1.607   0.915  0.1142 -0.1383 -0.3212
14535W        W30344  10.957   9.051  13.997  0.1557 -0.0543  0.2517
14536W        W30345  18.583  12.357   0.575  0.1595 -0.2066 -0.3835
14537W        W30346   7.365   6.390  13.979 -0.1257 -0.0477  0.3405
14538W        W30347   0.568   8.392  13.994 -0.1330 -0.1675 -0.0968
14539W        W30348  10.647   0.544   0.306  0.2818  0.1064 -0.3325
14540W        W30349  14.413  11.249   5.629 -0.1906  0.2968 -0.0409
14541W        W30350   7.145   9.291  12.399  0.0463  0.0016 -0.3966
14542W        W30351   8.281   7.727  14.807  0.0880  0.1008 -0.1803
14543W        W30352   5.330   8.683   5.138  0.1658 -0.2050 -0.0375
14544W        W30353   7.540  11.009   0.110 -0.1529  0.1548 -0.3727
14545W        W30354  12.787  11.601  12.747 -0.2339 -0.0963 -0.0772
14546W        W30355   8.828   9.845   4.294  0.2492  0.0060  0.4003
14547W        W30356  16.560   3.131   1.789  0.0350 -0.0014  0.0825
14548W        W30357   7.403   5.070  12.317 -0.1230 -0.0854  0.0617
14549W        W30358   8.555   8.294  13.056  0.4056 -0.1301 -0.0434
14550W        W30359  10.148  15.515  14.626 -0.2362 -0.0765  0.0691
14551W        W30360  14.376  10.551  11.050 -0.0026  0.0756 -0.1627
14552W        W30361  18.014  16.582  12.471 -0.1901 -0.0604  0.1007
14553W        W30362   5.417   2.316   1.845 -0.1226  0.0449 -0.1959
14554W        W30363   8.702   3.984  12.254  0.4550 -0.1493 -0.1555
14555W        W30364  14.278  14.110  11.951  0.3572 -0.1752  0.1190
14556W        W30365   3.787  17.220  10.995 -0.0280 -0.3116  0.0323
14557W        W30366   6.622  18.045   3.887 -0.2197 -0.0251  0.2808
14558W        W30367  15.593   1.363  13.330  0.1293 -0.1118  0.2165
14559W        W30368   7.936   5.783   1.604 -0.2372 -0.1724  0.1038
14560W        W30369  17.156   4.886   3.768  0.0874 -0.0554 -0.2720
14561W        W30370   5.371   9.864   4.893 -0.2939  0.1169  0.1683
14562W        W30371  15.060  16.208  13.136 -0.1280 -0.0110  0.2587
14563W        W30372  14.653  12.553  10.825 -0.2910  0.3878 -0.0062
14564W        W30373   0.332  16.352  12.334 -0.2060 -0.1920  0.0431
14565W        W30374   7.900   2.719   2.011 -0.1278 -0.1719 -0.1617
14566W        W30375   1.232  11.122  10.857 -0.0351 -0.0852 -0.0855
14567W        W30376  15.199  11.229  12.780 -0.0048  0.1194  0.1339
14568W        W30377   1.390   0.937  15.372  0.1904 -0.0333  0.1443
14569W        W30378  17.323  17.013   1.504  0.3129  0.0798 -0.1900
14570W        W30379   4.206   2.828  13.835  0.1601  0.1852  0.2548
14571W        W30380  11.534   6.487  10.926  0.1386  0.1330  0.1084
14572W        W30381   2.833   9.108  14.776  0.2957 -0.0014 -0.1881
14573W        W30382   5.056  15.275  14.842 -0.1992 -0.0042  0.1040
14574W        W30383   8.126  18.024   3.163 -0.0367 -0.1135  0.0035
14575W        W30384  11.763   7.213   0.707 -0.3104 -0.2692  0.0496
14576W        W30385  17.521  14.173   1.144  0.0885 -0.0696 -0.0364
14577W        W30386  13.581   3.684   2.778  0.1862 -0.1309 -0.0421
14578W        W30387  11.702   3.034   3.663 -0.1738 -0.0590 -0.0311
14579W        W30388   1.914   8.443   2.061  0.2656  0.0758  0.0428
14580W        W30389   5.666  13.048   0.497  0.0705 -0.2568  0.0853
14581W        W30390  11.585  13.973  12.454  0.3535 -0.2969 -0.0466
14582W        W30391   8.202  17.039   5.321 -0.2151 -0.3551 -0.1451
14583W        W30392  15.298  15.646   0.527  0.2773 -0.0000 -0.0076
14584W        W30393   4.165   6.949   4.588  0.3362 -0.0022  0.1195
14585W        W30394  16.324  13.208  10.487 -0.0353  0.1315  0.3177
14586W        W30395   0.526   2.999  10.600 -0.0686 -0.1288  0.2008
14587W        W30396   7.520  18.663   0.130  0.0708  0.2726 -0.1222
14588W        W30397  11.685   8.655   5.856  0.0373 -0.1141 -0.1088
14589W        W30398   7.404  10.491   0.384 -0.1883  0.1450 -0.1225
14590W        W30399  11.179   6.411   2.931 -0.1467 -0.4529  0.4890
14591W        W30400   1.554   6.059   1.113 -0.1053 -0.4850  0.1479
14592W        W30401   2.782  16.970  14.824 -0.1559 -0.1392 -0.2512
14593W        W30402   9.675  14.070  14.917  0.2181 -0.0505  0.1543
14594W        W30403   5.940   6.057   2.950  0.1668  0.2946  0.2182
14595W        W30404  14.341   7.755  15.415 -0.0838 -0.0083  0.0317
14596W        W30405  11.726   5.471   6.106 -0.0419 -0.5599  0.1116
14597W        W30406  10.128   8.812   1.569 -0.1006 -0.2584 -0.1138
14598W        W30407  17.599   4.603  10.083 -0.0469  0.0153  0.1737
14599W        W30408   0.470   0.338   4.357 -0.4847  0.0123 -0.0147
14600W        W30409   2.648  10.643   3.386 -0.0546 -0.2565  0.0103
14601W        W30410  16.626   6.763  12.241  0.0637  0.0141  0.1183
14602W        W30411  18.170   2.947   0.068  0.1567 -0.1094 -0.0641
14603W        W30412   7.630  16.655   1.032  0.1579 -0.2472  0.4784
14604W        W30413   5.231   4.483  14.483 -0.0666 -0.1708  0.1254
14605W        W30414  15.637   1.409   4.189 -0.0876  0.2018  0.0414
14606W        W30415   8.266  10.120   4.303 -0.3754  0.3635  0.1819
14607W        W30416   2.905   2.306  13.614 -0.2260  0.0007  0.2070
14608W        W30417   1.135  12.212   1.227  0.2217 -0.1444  0.2739
14609W        W30418   0.707   8.384  11.235  0.1200  0.0168  0.1367
14610W        W30419   8.111   5.989  13.248  0.0239  0.0665 -0.0785
14611W        W30420  12.605   1.712  12.642  0.0835 -0.0007 -0.3246
14612W        W30421   6.469   5.249   1.081  0.1632  0.1368  0.4140
14613W        W30422   8.464   7.829  14.067  0.0800 -0.1160 -0.2198
14614W        W30423   1.659   5.658   0.609  0.1607 -0.4543  0.1134
14615W        W30424  12.554  12.600  13.057  0.3235  0.1962 -0.1047
14616W        W30425   1.822  14.969  13.789  0.1379 -0.0770  0.2521
14617W        W30426   9.333   2.755  12.569  0.1725  0.0751  0.2705
14618W        W30427   7.323  16.703  10.603 -0.1067 -0.1247  0.0138
14619W        W30428   7.310  13.844   3.819  0.0489 -0.0770  0.2505
14620W        W30429  17.177   8.804  13.233 -0.2105 -0.1274 -0.1795
14621W        W30430  14.216   2.538  10.430 -0.1174 -0.0553  0.1774
14622W        W30431  16.984  13.300   2.552  0.0350  0.1322  0.0552
14623W        W30432  17.191   0.526  12.930  0.2834 -0.1023 -0.0869
14624W        W30433  15.342  10.952   2.242 -0.0014 -0.0532 -0.1752
14625W        W30434   7.568  14.670   2.069  0.1651 -0.0184  0.1230
14626W        W30435   7.846  11.034   2.597  0.1129  0.3366 -0.0257
14627W        W30436   6.443  18.325  13.144  0.1781 -0.0521  0.2148
14628W        W30437   5.262   0.422  14.282 -0.1635  0.0118 -0.1473
14629W        W30438   6.683   9.097  13.655 -0.0986  0.0250 -0.1390
14630W        W30439  16.001   1.855   2.776  0.2618 -0.0890  0.2250
14631W        W30440  13.656  16.732  10.021  0.1317  0.0390 -0.4186
14632W        W30441   3.189   3.568   3.213 -0.0221 -0.0560 -0.1612
14633W        W30442  15.237   6.276   0.910  0.1221 -0.1338 -0.0550
14634W        W30443   2.014   2.933  13.722  0.1704 -0.1342 -0.0943
14635W        W30444   8.450   8.607   4.143  0.2566 -0.1115  0.0310
14636W        W30445  18.651   9.302   3.645 -0.0429  0.1202  0.0524
14637W        W30446   3.321   4.625  10.175  0.0456 -0.1775  0.1967
14638W        W30447  10.402   6.741  14.876  0.1160 -0.1365 -0.1891
14639W        W30448  10.473  17.074   0.929 -0.1914  0.1079  0.1153
14640W        W30449   5.941   2.025   4.416 -0.0748 -0.1844  0.1749
14641W        W30450  17.002   9.052  13.676  0.0878 -0.1005 -0.3976
14642W        W30451   6.923   8.711   3.927 -0.1132 -0.0851 -0.0222
14643W        W30452  14.826   4.134  12.179  0.1584 -0.1871  0.0275
14644W        W30453  13.495   0.928   0.376  0.0848  0.1855  0.0775
14645W        W30454   5.024  16.558  15.387  0.1554  0.1585 -0.1059
14646W        W30455  17.896  11.765  10.594 -0.0299  0.0144  0.0825
14647W        W30456   9.146  14.263  12.597 -0.4555  0.1274  0.0877
14648W        W30457  16.453   2.172  12.361 -0.0326 -0.1584 -0.2803
14649W        W30458   3.652  18.119   2.273  0.1653 -0.1660  0.0365
14650W        W30459   8.430  13.717  14.432  0.0199  0.3765 -0.3432
14651W        W30460  11.637  11.555   1.954 -0.0339  0.0245 -0.0264
14652W        W30461   9.831  14.898  11.196  0.2001  0.3076  0.0290
14653W        W30462  13.913  12.936   1.732 -0.1746  0.2087 -0.2851
14654W        W30463   7.096  11.355   4.462 -0.0860  0.1317  0.0020
14655W        W30464  15.952   0.627   3.446  0.0269  0.0910 -0.1495
14656W        W30465   6.042  16.686   4.776  0.1897  0.2256 -0.0422
14657W        W30466   6.923  10.238  13.293 -0.1042 -0.0333  0.1132
14658W        W30467   1.593   6.026  15.268 -0.1707  0.0969  0.2403
14659W        W30468   5.195   1.709  13.049  0.1225  0.1962 -0.0743
14660W        W30469  16.569  14.754  10.944 -0.1829 -0.3070 -0.4370
14661W        W30470  13.998  13.801   3.620  0.0385  0.1232 -0.2858
14662W        W30471   2.668   1.042   3.048  0.2025 -0.1022  0.1690
14663W        W30472  16.334  13.396   0.433 -0.0794 -0.0990  0.0504
14664W        W30473   2.322   3.656  15.080  0.4304  0.1516  0.2805
14665W        W30474  18.145   8.485   3.957  0.1001 -0.2009  0.0481
14666W        W30475  14.806   8.843  15.491 -0.1749 -0.0142  0.2096
14667W        W30476  10.417   7.013  11.378  0.0597 -0.1132 -0.3994
14668W        W30477  14.081   7.695   4.479 -0.1098 -0.1497  0.0315
14669W        W30478  17.338   0.791  11.351 -0.0465  0.1044 -0.3157
14670W        W30479   8.142  17.529  15.183  0.0706 -0.1253  0.1406
14671W        W30480  12.517  15.561  12.593 -0.5322  0.3248  0.0031
14672W        W30481  18.221  16.214   2.042  0.0218 -0.0916 -0.1951
14673W        W30482   2.679  16.937  13.915  0.3013 -0.0227  0.1462
14674W        W30483  17.399   2.874   4.138  0.0846  0.3674  0.3246
14675W        W30484  14.626   7.580   0.663  0.5035  0.0558 -0.2260
14676W        W30485   9.249  10.820  13.541  0.0181 -0.1116 -0.1363
14677W        W30486  12.286   4.027  12.069  0.0339  0.1019 -0.0354
14678W        W30487  13.494   0.416   3.264  0.0602 -0.2297  0.3447
14679W        W30488   6.308   2.765   0.389 -0.3249  0.1061 -0.0935
14680W        W30489  13.411   3.380  15.539 -0.2145 -0.1903 -0.4037
14681W        W30490   2.515   0.238   4.276  0.0447  0.1180  0.0297
14682W        W30491   8.122   1.022   0.024 -0.1924 -0.3762  0.0163
14683W        W30492   9.583   0.960  12.336 -0.4832  0.2260  0.3949
14684W        W30493  15.648  10.418  11.067 -0.0513  0.3310 -0.0828
14685W        W30494  17.910  16.317   4.961  0.0494 -0.0891  0.0313
14686W        W30495  12.931  14.879   1.005 -0.0242 -0.1174  0.1005
14687W        W30496   8.188   6.614   5.268  0.0965 -0.0578  0.1188
14688W        W30497  11.470  17.339  11.156 -0.0137  0.0356  0.4833
14689W        W30498  14.481  15.656   3.789  0.1820  0.3776  0.0045
14690W        W30499  12.961   6.754   3.105  0.2111  0.0549  0.4199
14691W        W30500  17.593  17.806   4.221  0.0844 -0.1631  0.0466
14692W        W30501  13.939  11.001  15.098  0.0408 -0.0364  0.5998
14693W        W30502  14.141  14.785  11.129 -0.1355  0.2244  0.0572
14694W        W30503   1.530   1.369  12.936  0.1863 -0.1175 -0.3887
14695W        W30504   0.774   4.546   1.044  0.1268  0.0093  0.1192
14696W        W30505   1.789   7.252   3.615  0.1276  0.0506  0.0429
14697W        W30506  14.950  10.799  12.627 -0.0108  0.0580 -0.1954
14698W        W30507   0.846   0.367  12.799  0.1865  0.1457 -0.1205
14699W        W30508  18.652   3.053  11.603 -0.0260 -0.2667 -0.2111
14700W        W30509   2.679   0.808  13.809 -0.0619 -0.2702  0.4146
14701W        W30510   1.238  14.806   2.684  0.1044  0.1018 -0.0462
14702W        W30511   7.157  11.450   1.417 -0.1101  0.2151 -0.2407
14703W        W30512  14.044  10.486   3.765  0.1018  0.2363 -0.1655
14704W        W30513  12.728   0.956   5.185 -0.1250  0.0661  0.0574
14705W        W30514  13.036  11.423   4.681  0.0486 -0.0786  0.0410
14706W        W30515   5.357  11.845  15.136 -0.0123 -0.1689  0.0475
14707W        W30516  14.499   2.631   4.769  0.3982 -0.0577 -0.1193
14708W        W30517   3.812  10.517  14.798 -0.2637 -0.0931 -0.1864
14709W        W30518  12.385   3.416   1.048 -0.0585  0.0634  0.0134
14710W        W30519   2.126  16.323  14.780  0.0192  0.1876 -0.2483
14711W        W30520  18.638   8.455   1.693 -0.2276  0.0938 -0.0839
14712W        W30521  14.381   5.530   0.419 -0.0090 -0.1064 -0.1586
14713W        W30522   3.164  15.464   2.164  0.0269 -0.0477 -0.0845
14714W        W30523  17.523   5.035  14.225  0.4259 -0.0977  0.0412
14715W        W30524   4.032   7.061  11.252  0.2560 -0.2298  0.4495
14716W        W30525  15.339   5.651  13.684 -0.0471 -0.1625 -0.2034
14717W        W30526   0.419  18.217   5.532 -0.2985 -0.0812 -0.1839
14718W        W30527  16.369   8.073  10.873 -0.0885 -0.0479 -0.1142
14719W        W30528   4.802   2.141   1.339 -0.1451 -0.0357  0.0179
14720W        W30529  14.390  13.867  10.831  0.0172  0.1820  0.1272
14721W        W30530   3.684  10.804   9.988 -0.0161  0.0921 -0.0890
14722W        W30531   7.169   1.963   1.670  0.2264  0.0434  0.0540
14723W        W30532  12.611  15.320   3.333  0.1187 -0.1857  0.0193
14724W        W30533   9.874   7.569   3.964  0.0920 -0.0271  0.0908
14725W        W30534   1.632  10.346   4.153 -0.0761  0.0955  0.0009
14726W        W30535   7.237  18.167  10.013 -0.0824 -0.1060  0.0728
14727W        W30536   9.270  13.206   0.419  0.1547 -0.0541 -0.1826
14728W        W30537   5.914  13.609   0.077 -0.1835  0.2306  0.4016
14729W        W30538   5.420   8.183   2.874 -0.1335  0.1087 -0.1222
14730W        W30539  11.172   0.790  11.189  0.0760 -0.1117 -0.2288
14731W        W30540  11.439   2.475  12.026  0.0531  0.0880 -0.2043
14732W        W30541   3.828   3.739  15.040 -0.1434  0.2516 -0.1028
14733W        W30542   4.456   9.877   0.643 -0.0214  0.0942  0.0503
14734W        W30543  12.099  12.691  13.519 -0.3769  0.1925 -0.0007
14735W        W30544   9.830  17.118   3.294  0.0957 -0.1679  0.0377
14736W        W30545   6.162  15.279   3.774  0.3069  0.0484  0.0291
14737W        W30546  16.134   9.394  11.364  0.0452 -0.3041  0.0524
14738W        W30547  10.417   7.462  11.520  0.0318  0.0219 -0.3309
14739W        W30548   2.409  18.073   4.746 -0.0295  0.1662  0.3232
14740W        W30549   4.504   7.364  14.449 -0.1506  0.1662  0.1278
14741W        W30550   7.843  16.508  13.932  0.1195  0.1126 -0.0016
14742W        W30551  17.721   6.610  10.177  0.0421  0.1595  0.1782
14743W        W30552  16.704   3.987   2.871  0.1530  0.0927  0.1847
14744W        W30553  10.038   7.091  13.180  0.1456  0.0221 -0.2259
14745W        W30554   8.750   5.228   5.539 -0.3521  0.0117  0.0663
14746W        W30555  14.700  17.358  12.770 -0.0626 -0.0573 -0.0968
14747W        W30556   8.115  18.039  15.293  0.0253 -0.4126  0.2233
14748W        W30557   8.725   9.415   0.140 -0.1450 -0.0415  0.1824
14749W        W30558   1.176   0.407   1.004  0.1581  0.2573 -0.4067
14750W        W30559   5.160  17.655  10.279 -0.0195  0.0975  0.1833
14751W        W30560  15.914   7.983   2.998 -0.2059  0.0453 -0.2602
14752W        W30561  16.713   2.995  14.564  0.1773 -0.0991  0.4938
14753W        W30562  15.600  13.072  12.553  0.1131  0.0492  0.2795
14754W        W30563  12.773  14.838   5.500 -0.0661 -0.4231 -0.3434
14755W        W30564   1.476  14.431   0.107 -0.0003 -0.1370  0.0233
14756W        W30565   3.914  10.874   0.528  0.1635 -0.0068 -0.0879
14757W        W30566  16.327  15.063   0.573 -0.0195  0.1239  0.1491
14758W        W30567  16.447  15.904   3.013 -0.0687  0.0121  0.3510
14759W        W30568   8.932  17.168  13.334 -0.0952 -0.0228  0.2417
14760W        W30569   0.538  18.018  14.081  0.1564 -0.3146  0.0391
14761W        W30570   9.869   4.765   1.971 -0.0854  0.0005 -0.1141
14762W        W30571  10.992  13.102   4.664  0.2549  0.0543 -0.2169
14763W        W30572  12.271  17.420  10.830  0.0109  0.0784 -0.1851
14764W        W30573   1.359  15.202   5.316  0.1090  0.1365 -0.0861
14765W        W30574   6.003   4.649  10.997  0.1648 -0.2868  0.0771
14766W        W30575  15.415   5.029  14.194  0.1538  0.0566  0.0069
14767W        W30576   9.050   3.984   4.874 -0.0497  0.3922  0.3138
14768W        W30577  17.124   7.994   0.568 -0.0208  0.0502 -0.0215
14769W        W30578   9.361   9.699   3.750  0.1285  0.1972  0.1802
14770W        W30579  13.662  12.235   3.898  0.1004 -0.2682  0.0417
14771W        W30580   7.225  16.717  11.218 -0.2823 -0.0243  0.2505
14772W        W30581   2.962  12.268  12.999  0.0970  0.1189 -0.0886
14773W        W30582  13.842  17.960   0.644 -0.0459  0.3932  0.0995
14774W        W30583  17.156   4.935  10.675  0.1726  0.3394  0.1650
14775W        W30584   9.866  18.401   1.361 -0.0619 -0.1285 -0.0037
14776W        W30585   6.350  10.037   2.353 -0.0511  0.2517 -0.4631
14777W        W30586  15.747  10.816  11.474  0.0029 -0.1393  0.1615
14778W        W30587  17.017   5.074  10.218 -0.0641 -0.2559 -0.0306
14779W        W30588   1.035  18.421  12.082  0.0496 -0.1873 -0.0727
14780W        W30589   8.030   6.963   0.514  0.0909  0.2415  0.0207
14781W        W30590  13.418   3.866  10.842 -0.1464 -0.2562  0.4364
14782W        W30591   5.386   2.914  15.452 -0.0456 -0.1273  0.0466
14783W        W30592  14.369   7.998  14.084  0.2014  0.1580  0.1014
14784W        W30593   4.655   7.325   2.817  0.1997 -0.1935  0.0073
14785W        W30594  17.649   3.602  13.120  0.0771 -0.0059 -0.0523
14786W        W30595   4.357   4.642  14.714 -0.1587 -0.0769  0.1392
14787W        W30596   3.472  16.532  13.406 -0.1352 -0.0639  0.1963
14788W        W30597  14.098   1.752   2.269  0.1427  0.0333  0.0031
14789W        W30598   8.396   5.653   4.508 -0.2061  0.1709 -0.0728
14790W        W30599   9.099  16.733   4.586  0.0144 -0.1411 -0.1520
14791W        W30600  10.472  12.701  13.540 -0.1447  0.0965  0.0479
14792W        W30601   7.539   9.954   3.703  0.1918 -0.2041 -0.2992
14793W        W30602  17.795  14.012   1.713  0.0205 -0.0488  0.0724
14794W        W30603  12.954  12.018  13.665 -0.1123  0.1678 -0.0639
14795W        W30604  12.871   7.777  15.425  0.1022  0.0405  0.2656
14796W        W30605  14.650  12.641  14.803  0.0173 -0.0880  0.0142
14797W        W30606   3.915  17.781   2.537  0.1334 -0.2608 -0.1592
14798W        W30607   4.224  10.991  13.756 -0.1407  0.2361 -0.1462
14799W        W30608   6.238  13.737   2.628 -0.3201 -0.2204 -0.1361
14800W        W30609   1.838   9.015  14.866  0.0875  0.0005  0.0442
14801W        W30610   8.338  16.854   0.915  0.0991 -0.1869 -0.1054
14802W        W30611   3.983  17.669   5.831 -0.2049 -0.0794 -0.2391
14803W        W30612   0.360  16.420   1.974 -0.1693  0.4007  0.1926
14804W        W30613   1.622   2.432  13.095 -0.0118  0.0491  0.3272
14805W        W30614  14.215   1.912  13.658  0.0301 -0.0479 -0.0098
14806W        W30615   1.474  14.923   0.231  0.0219 -0.0133 -0.0089
14807W        W30616  15.891  13.891   3.916 -0.3159  0.4058  0.0389
14808W        W30617   9.562  11.195   2.843 -0.0310  0.2395  0.1686
14809W        W30618  11.890  12.912  15.505  0.2588  0.0703 -0.1071
14810W        W30619   5.885  18.454  14.445 -0.1456 -0.1583 -0.1590
14811W        W30620  14.371   0.154  15.059  0.0420  0.2653  0.1892
14812W        W30621  15.345  18.241   0.555  0.0975  0.1713 -0.4198
14813W        W30622   2.120  12.556  12.044 -0.0577  0.3063 -0.0156
14814W        W30623  17.671   2.791  11.312 -0.0276 -0.1235  0.2506
14815W        W30624  14.099  13.157  11.519 -0.0285  0.2345  0.1591
14816W        W30625   7.766  10.967  13.579  0.0163  0.1762  0.1371
14817W        W30626  10.683   8.859  15.383 -0.1915  0.1639 -0.0048
14818W        W30627   0.757   4.702  14.189 -0.1276 -0.2705 -0.0900
14819W        W30628   7.562   6.566  10.847  0.2481 -0.0359  0.3487
14820W        W30629   2.702   6.092   4.266 -0.1932  0.1944 -0.1299
14821W        W30630   9.190   6.288   1.041  0.0621  0.0037  0.1660
14822W        W30631   4.307  10.246   0.975 -0.1687 -0.1660 -0.2114
14823W        W30632  18.184   7.179  11.077  0.0168  0.2428 -0.1564
14824W        W30633   1.606   2.225   2.881  0.2371  0.0899 -0.0933
14825W        W30634   0.625   6.291   2.969  0.1100 -0.2161 -0.0396
14826W        W30635   5.380   9.057  15.446 -0.1858  0.0775  0.0670
14827W        W30636   5.554  10.862  11.701  0.1247  0.0100 -0.2240
14828W        W30637  13.469  14.763   1.721  0.1239  0.0575  0.1131
14829W        W30638  18.380   6.995  14.521 -0.1382 -0.1436 -0.3808
14830W        W30639   0.799   4.479   2.417  0.0713 -0.1086  0.1956
14831W        W30640   1.726  12.625  11.749  0.0355 -0.0638  0.0730
14832W        W30641   7.778   2.286   2.651  0.1589 -0.2501 -0.1245
14833W        W30642  16.442   1.034  11.701  0.3704  0.3247 -0.1403
14834W        W30643  16.345  15.952   3.810  0.0754 -0.0347  0.1191
14835W        W30644  12.197   0.241  13.319 -0.3833  0.0800 -0.4450
14836W        W30645   2.617  16.318   1.831  0.2165 -0.0064 -0.1866
14837W        W30646  10.963  16.748  14.457  0.3119 -0.1585 -0.1521
14838W        W30647   4.375   8.184   0.297 -0.0023 -0.4865  0.1808
14839W        W30648   0.825  15.592   3.950  0.3342 -0.0485 -0.0584
14840W        W30649   2.783   8.506   2.535  0.1326 -0.1112  0.3604
14841W        W30650  10.748   9.115  14.508 -0.1081 -0.3059 -0.1990
14842W        W30651   6.982  15.094   3.790 -0.0427  0.0414 -0.0717
14843W        W30652  14.416   2.077   3.390  0.0954  0.0750  0.1037
14844W        W30653  14.949  13.002   1.993 -0.0887 -0.1427 -0.1633
14845W        W30654  11.045  10.602  12.431 -0.1250 -0.0195  0.2334
14846W        W30655   4.603   8.603   4.434 -0.1585  0.0918 -0.2739
14847W        W30656   9.626   0.029  14.159 -0.2096 -0.2394  0.2459
14848W        W30657  13.964   3.370  10.056 -0.0879 -0.1072 -0.1218
14849W        W30658   9.729  17.510  13.251 -0.1684 -0.0635 -0.0254
14850W        W30659  13.633   5.729   1.812  0.4090  0.1119 -0.1717
14851W        W30660   8.903  14.072  10.436 -0.0924  0.0702 -0.1138
14852W        W30661  15.936   1.852   4.856 -0.1245  0.1341 -0.0072
14853W        W30662  14.811   9.093   0.865  0.0236  0.0388  0.2063
14854W        W30663  16.323   0.624  14.714 -0.2137  0.0596 -0.1632
14855W        W30664   0.297   3.380  13.554  0.0764 -0.0276  0.1814
14856W        W30665  15.302   1.242   2.962  0.2599  0.0198  0.2639
14857W        W30666   4.081   4.024   3.899 -0.3523  0.0881 -0.3911
14858W        W30667   1.129  13.801   2.702 -0.1543 -0.0302  0.1271
14859W        W30668   2.800  10.594  15.461 -0.1061  0.0537 -0.0586
14860W        W30669  13.704   6.475   5.280 -0.0668  0.2019 -0.1802
14861W        W30670  13.246   3.870  15.252  0.1902  0.0294  0.0632
14862W        W30671   7.859   0.881   1.456 -0.0344 -0.4719 -0.1275
14863W        W30672   4.293   9.007  15.229 -0.1918 -0.2517 -0.1557
14864W        W30673  13.213   0.063   1.615 -0.2476  0.0335  0.0295
14865W        W30674   6.026   7.748   5.467  0.3471 -0.1062 -0.0810
14866W        W30675  12.432   7.991   2.714 -0.0712  0.2664 -0.0505
14867W        W30676   4.004   6.171  13.502  0.0347  0.1281  0.1143
14868W        W30677   1.381  17.820   1.641  0.0033  0.0739 -0.0316
14869W        W30678   2.792  12.927   3.079 -0.2523  0.0658  0.1234
14870W        W30679  15.335   1.421   5.690 -0.0412  0.1738  0.1413
14871W        W30680  18.379   3.460  13.651 -0.0800  0.2537 -0.4103
14872W        W30681   3.377  15.241  14.799  0.0520 -0.1457  0.0185
14873W        W30682   6.776  11.145  12.499 -0.1377 -0.2496  0.1017
14874W        W30683   3.647   1.158   3.392 -0.0207 -0.1716 -0.1158
14875W        W30684  12.325  16.331   3.063  0.0145 -0.1001  0.0523
14876W        W30685  17.615  16.584  10.817  0.1673  0.2822 -0.2136
14877W        W30686  11.018   4.006   1.470 -0.1831  0.1505 -0.3135
14878W        W30687  13.290   7.911  11.173  0.4204  0.1102  0.0701
14879W        W30688  14.688  13.464   1.722 -0.0286  0.1794 -0.1627
14880W        W30689  16.058   7.297  13.860 -0.0231  0.1053  0.1499
14881W        W30690  10.695   4.728   4.079  0.2826  0.0018 -0.0675
14882W        W30691   1.852   4.725   4.684 -0.2350  0.1721  0.0834
14883W        W30692   4.828  10.320  11.399 -0.1807 -0.3282 -0.1191
14884W        W30693   7.158  15.671  11.520 -0.1576 -0.1290 -0.3771
14885W        W30694  11.541  13.795  14.228  0.1860 -0.1567  0.0666
14886W        W30695  15.860  10.131  13.690  0.0177  0.1518 -0.0524
14887W        W30696  13.662   2.107  12.166 -0.2337 -0.1814 -0.0800
14888W        W30697  17.725   5.637  10.102  0.2445  0.1290 -0.2555
14889W        W30698  11.828   4.196   0.232  0.1351  0.1877 -0.1992
14890W        W30699   0.815  14.005   5.569  0.2862 -0.1075 -0.1016
14891W        W30700   7.808   6.256   4.443 -0.1902 -0.1583  0.0339
14892W        W30701   6.536   3.643   4.571  0.0578 -0.2722  0.1542
14893W        W30702  17.546  10.315   3.606  0.1800  0.0665 -0.0718
14894W        W30703   7.757  14.890  11.370  0.1223  0.0706  0.1717
14895W        W30704  11.298   2.757  13.953 -0.0298  0.0116 -0.1057
14896W        W30705  12.151   7.536  14.113  0.1891  0.1507 -0.0907
14897W        W30706   1.441   9.359  14.988 -0.1708  0.0235  0.1491
14898W        W30707  10.817  17.395   0.790 -0.3042  0.0223 -0.0945
14899W        W30708   1.371   8.218   4.762 -0.2394 -0.0213  0.2295
14900W        W30709   9.827  12.649   4.979  0.1811  0.1681 -0.2276
14901W        W30710  16.092   5.671  12.244  0.1159  0.0741  0.0188
14902W        W30711  12.459   0.568  13.086 -0.0993 -0.0858 -0.0859
14903W        W30712   2.612  15.006   5.408  0.2127 -0.1888 -0.3116
14904W        W30713  18.002  16.580   5.389 -0.1561 -0.1256  0.0672
14905W        W30714   3.607   5.849  13.254 -0.2440 -0.1588  0.0442
14906W        W30715  16.149   5.959   3.875 -0.3001  0.1928 -0.3052
14907W        W30716   4.007   0.244  13.565 -0.2484 -0.3111  0.0815
14908W        W30717  11.995  14.588  12.551 -0.2294  0.0677 -0.3176
14909W        W30718   9.130  17.662  15.026  0.0093 -0.0645 -0.1231
14910W        W30719  12.504  18.174   0.724 -0.5094 -0.2354 -0.0094
14911W        W30720   7.996  18.175   2.274  0.2436 -0.0346  0.2473
14912W        W30721   2.829  18.209   2.024  0.2487  0.0139 -0.0568
14913W        W30722  14.023  10.546  12.244 -0.2861 -0.2224 -0.3081
14914W        W30723   5.830  16.278   1.210 -0.0564 -0.0550 -0.1065
14915W        W30724   2.403   5.340  12.609  0.1729 -0.0357 -0.0239
14916W        W30725  17.746   1.605   2.932  0.1208 -0.0600  0.0502
14917W        W30726   7.948   2.847   2.919 -0.1408 -0.2152  0.0714
14918W        W30727  15.373   5.174   1.686  0.2369  0.1594 -0.1407
14919W        W30728  18.324  14.451   3.060  0.1689 -0.1352  0.0750
14920W        W30729   4.236   3.470   3.433  0.0960  0.1445 -0.1585
14921W        W30730   5.006  10.563   3.566 -0.0500  0.0707 -0.1596
14922W        W30731  11.847  13.329   0.640  0.1179  0.1923  0.0218
14923W        W30732  15.640   1.723   2.446  0.0717 -0.2359  0.2776
14924W        W30733   6.054  10.554   3.975  0.1386 -0.2898  0.2639
14925W        W30734   5.050   9.044  12.161 -0.0710  0.0562  0.2108
14926W        W30735   7.557   9.641  11.115  0.2870 -0.1257  0.0983
14927W        W30736   3.000   3.493  10.780  0.5111  0.0654 -0.3394
14928W        W30737  13.297  10.916   4.011 -0.0293 -0.1756 -0.0072
14929W        W30738  10.202  17.310  15.500  0.1503 -0.2825 -0.3827
14930W        W30739   1.579   4.408   4.269 -0.1325  0.2060  0.0394
14931W        W30740  16.631  13.947  11.730 -0.1370 -0.3202  0.0343
14932W        W30741   7.073   2.410   3.882 -0.0145 -0.1287  0.0817
14933W        W30742  18.512  17.984   4.882  0.0428 -0.3734  0.1525
14934W        W30743   3.134   9.229   5.004  0.0888  0.1082  0.0430
14935W        W30744   5.501  12.140   5.474 -0.1290  0.0525  0.3694
14936W        W30745  12.377  11.622  13.037 -0.0943 -0.1643 -0.2447
14937W        W30746  13.849   7.631   3.401  0.0362  0.2295 -0.1994
14938W        W30747   7.980  10.750   0.445  0.1281 -0.0592 -0.0202
14939W        W30748   2.305  14.649   5.324  0.1267 -0.1796  0.0206
14940W        W30749  18.075   2.695   0.666 -0.0590  0.0940  0.3223
14941W        W30750  11.507  14.128  13.293 -0.0834 -0.3713  0.4654
14942W        W30751  15.358   6.094  15.533 -0.0343  0.0702  0.0796
14943W        W30752  12.821  14.641   2.130  0.1346 -0.0571  0.1148
14944W        W30753  14.082   0.859   1.458  0.0784 -0.2041 -0.1867
14945W        W30754   2.014  10.613  14.296  0.2419  0.1918  0.0171
14946W        W30755  14.057  15.465  11.429  0.0199 -0.3143  0.1856
14947W        W30756   7.581   3.221   3.146 -0.0413 -0.0738  0.2530
14948W        W30757  11.091   1.869  14.681 -0.2894  0.3271  0.1087
14949W        W30758  18.610   1.524   4.480 -0.1646  0.1227 -0.0578
14950W        W30759   2.394  16.370  11.590  0.0040  0.1698  0.2552
14951W        W30760   3.417   2.196  10.229 -0.2064 -0.1180  0.1552
14952W        W30761   5.993   2.156   0.863 -0.2314 -0.0163 -0.1298
14953W        W30762  15.511   7.151   0.909 -0.3903 -0.2047  0.1194
14954W        W30763   3.448   0.219  11.795  0.1400  0.1124  0.0429
14955W        W30764   2.963   1.791  13.796  0.1530  0.0647  0.0060
14956W        W30765  12.562   5.821  10.311  0.0600  0.0249  0.0317
14957W        W30766   9.256   5.679  12.631 -0.0934  0.0593 -0.1112
14958W        W30767  14.100   2.773   1.068  0.2575  0.1083  0.0972
14959W        W30768  12.381  15.912   2.229 -0.4466 -0.1101  0.0396
14960W        W30769  16.554   5.433  10.223 -0.0597 -0.1686  0.1322
14961W        W30770   5.764  17.125  13.088  0.1530 -0.0098 -0.0313
14962W        W30771  16.554   8.031  14.174 -0.0853 -0.2452  0.1041
14963W        W30772  12.708  16.546  13.182  0.0748 -0.1212 -0.1097
14964W        W30773  14.797  16.842   0.816 -0.0413  0.3071  0.2292
14965W        W30774   5.929   2.691  13.996 -0.3077  0.2383 -0.0746
14966W        W30775  16.324  13.651   1.778 -0.1398  0.0653 -0.3010
14967W        W30776   4.297  10.126  13.221  0.0770 -0.4295  0.1091
14968W        W30777  16.565  13.377  13.218 -0.0198 -0.3035 -0.0766
14969W        W30778  15.934  17.613  12.704  0.0291 -0.0858 -0.0777
14970W        W30779  17.959   6.792  14.082  0.1266  0.2343 -0.1407
14971W        W30780  12.229  18.505   4.228 -0.1046  0.1683  0.0475
14972W        W30781   1.184  15.977   3.997 -0.4386  0.1449 -0.2931
14973W        W30782   2.155  16.030  12.311  0.2052 -0.0102 -0.0813
14974W        W30783  16.838  18.639   5.067 -0.1294  0.0584 -0.1504
14975W        W30784  14.507  15.993   1.798  0.0696  0.0324  0.0221
14976W        W30785   5.800  14.313  11.325 -0.3866  0.4108  0.2288
14977W        W30786  15.413   5.690   2.729  0.0010  0.0020 -0.0134
14978W        W30787  14.698   3.872   1.601  0.4142  0.0088  0.4434
14979W        W30788   2.868   7.089  11.735  0.2071 -0.3244  0.0587
14980W        W30789  16.295  14.379  15.062  0.3748 -0.1834  0.0370
14981W        W30790  14.829  12.903   4.997 -0.0915  0.0674 -0.3009
14982W        W30791   3.191   1.945  12.561 -0.0660  0.1663 -0.0870
14983W        W30792   8.097   9.696  11.059  0.1033 -0.1683 -0.0072
14984W        W30793   5.424   2.062  13.260  0.1652  0.0727 -0.2052
14985W        W30794   1.796  15.664  14.127  0.1260  0.2450 -0.0622
14986W        W30795  13.558  12.436  11.580  0.0787  0.0693 -0.0238
14987W        W30796  14.892  14.422   4.469  0.0533  0.5813 -0.1943
14988W        W30797  12.460   8.819   4.408 -0.0463 -0.1815 -0.2999
14989W        W30798   6.096  17.100   0.940 -0.0740  0.0714 -0.2016
14990W        W30799  17.014  14.433  11.073 -0.1085 -0.1784  0.0193
14991W        W30800  14.848   9.702  11.461 -0.2173 -0.1217  0.0957
14992W        W30801   1.137   7.075   2.744 -0.1007 -0.0577  0.3300
14993W        W30802   0.969   3.244   3.764  0.4154  0.0259  0.1321
14994W        W30803   1.289  17.101   0.179  0.0130 -0.2574  0.0611
14995W        W30804   7.777  14.978  14.602  0.1363  0.3040  0.0107
14996W        W30805   9.316   7.559   4.626 -0.3033 -0.0750 -0.0216
14997W        W30806  10.637  15.934  13.538  0.0765 -0.1765 -0.0236
14998W        W30807  13.191  16.390  13.089  0.3229  0.0021  0.3511
14999W        W30808  13.602   8.808  11.631 -0.1139  0.0381 -0.1834
15000W        W30809   3.721  12.217   0.810 -0.1375 -0.2140  0.0909
15001W        W30810   3.660   7.688   0.949 -0.2202  0.1217  0.0520
15002W        W30811  14.653  16.309   2.764  0.2936  0.1739  0.2089
15003W        W30812   6.783   1.872   0.526  0.1097  0.1399 -0.0612
15004W        W30813   5.972   5.402  11.359 -0.0395 -0.0335 -0.2465
15005W        W30814   5.218  11.870   1.719 -0.0598 -0.1742  0.0439
15006W        W30815  12.855  14.765   0.382 -0.0088 -0.2505 -0.1698
15007W        W30816   6.305  14.424  12.612 -0.0545  0.2477  0.0546
15008W        W30817   0.269  12.919  13.418 -0.2732 -0.1128  0.2438
15009W        W30818   6.586   3.968   3.990 -0.1097  0.2490 -0.0179
15010W        W30819  17.053  15.480   5.438 -0.1125  0.1909  0.0725
15011W        W30820   8.663   0.928   3.307 -0.0700  0.0630  0.3077
15012W        W30821  16.491   1.945   5.404  0.2067  0.0555 -0.1827
15013W        W30822   7.664   7.369  15.130  0.1479 -0.1667  0.1108
15014W        W30823  16.817   9.533  13.661 -0.6247 -0.0092 -0.1022
15015W        W30824   0.441  16.292   4.338  0.1802  0.1642  0.1964
15016W        W30825  10.451   4.517  13.267 -0.3566  0.1764  0.0317
15017W        W30826  15.568   7.912  15.565 -0.1481 -0.0656  0.0654
15018W        W30827  14.964  16.898  10.346 -0.3624 -0.1440 -0.1590
15019W        W30828   1.786  17.772   4.160  0.2200  0.0092 -0.2153
15020W        W30829   9.499   4.128  12.297  0.1244  0.0420 -0.1901
15021W        W30830  14.362   0.907   1.997  0.1254 -0.0954  0.2057
15022W        W30831   0.871  16.358   1.741  0.2266 -0.1164 -0.2454
15023W        W30832  15.765   4.177  11.102  0.1648  0.0370 -0.0608
15024W        W30833   0.660   0.028   1.662 -0.0430  0.0751  0.0745
15025W        W30834  16.123   9.713   4.428 -0.1051  0.3200  0.1431
15026W        W30835   7.978  17.711  13.968 -0.0885  0.3283  0.0106
15027W        W30836  13.519  10.451   5.485  0.2341 -0.0025 -0.3086
15028W        W30837  10.575   7.240   0.508 -0.1145 -0.1125 -0.1684
15029W        W30838   1.789   8.332  11.976 -0.2591 -0.1395 -0.3162
15030W        W30839  11.087  17.257  14.278  0.0077  0.0911 -0.0923
15031W        W30840  11.943  13.496   2.160  0.0256 -0.1230 -0.3044
15032W        W30841  15.747  16.704  14.258 -0.2039 -0.1583  0.0068
15033W        W30842  15.800   9.538   5.183 -0.0276  0.0354 -0.0515
15034W        W30843   5.355   4.382   3.608  0.0180 -0.3167  0.0885
15035W        W30844  16.122  17.627  12.149  0.0870 -0.3002  0.0238
15036W        W30845   1.020   4.097   2.211  0.2208  0.1059  0.0965
15037W        W30846  18.257   0.325  13.915 -0.2824 -0.0970 -0.0129
15038W        W30847   9.890  12.092   2.652 -0.0363  0.1310  0.0627
15039W        W30848   5.920  16.334  10.577 -0.0494 -0.1898  0.2891
15040W        W30849   8.520  12.036   2.834 -0.0378 -0.1906 -0.0652
15041W        W30850   9.341  14.143   5.171 -0.3844 -0.0770  0.1948
15042W        W30851  12.972  16.479  14.566  0.1065 -0.3343  0.0713
15043W        W30852  17.513  13.497   5.201  0.0692  0.0319  0.0134
15044W        W30853   8.813  14.753   0.384 -0.2510  0.0094  0.2538
15045W        W30854   8.662  16.317  10.359  0.1496  0.3184  0.4421
15046W        W30855   1.249  12.582  11.243 -0.1389  0.1322 -0.1333
15047W        W30856   2.289  17.705   4.260  0.2773  0.3813 -0.1239
15048W        W30857  11.934  17.477   5.552 -0.2059 -0.1178 -0.1011
15049W        W30858   7.119   4.442   2.897 -0.2728  0.0823  0.2954
15050W        W30859  11.505   5.303  12.950  0.1044 -0.1623  0.1544
15051W        W30860  14.652   2.186   3.840 -0.0125  0.1817  0.0166
15052W        W30861  15.493  10.752  14.384 -0.0727 -0.2638  0.0003
15053W        W30862  16.115   6.781   9.429  0.4221  0.2199 -0.0018
15054W        W30863  17.515  17.857   5.167 -0.2153  0.1811 -0.1775
15055W        W30864  13.177  14.357   1.847 -0.1264  0.2254  0.0195
15056W        W30865   4.884   8.861  14.215 -0.3313  0.2202 -0.2703
15057W        W30866   7.621  11.611   3.383  0.2024 -0.0884  0.1059
15058W        W30867   9.885  17.630  13.720 -0.0143 -0.0880 -0.0322
15059W        W30868   2.806  13.349  11.963  0.1898  0.2121  0.0911
15060W        W30869  17.747   7.148  12.246 -0.1990 -0.0204  0.0993
15061W        W30870  12.732   6.285   1.383  0.0185 -0.1316  0.1411
15062W        W30871  18.167  18.184  13.654  0.0248  0.0469  0.1802
15063W        W30872  14.730  12.473  11.881  0.1544 -0.4166 -0.3511
15064W        W30873  17.932   6.215  11.304  0.1057 -0.1597  0.0018
15065W        W30874  16.816   9.842  14.846  0.1232  0.0162  0.2112
15066W        W30875   7.217   3.512   2.816  0.0315  0.0578 -0.0133
15067W        W30876  13.301   2.763   5.457 -0.0620 -0.1986 -0.1527
15068W        W30877  10.852   7.285   4.421 -0.0508  0.1686 -0.1148
15069W        W30878  10.707  10.151  12.956  0.3130 -0.0975 -0.1361
15070W        W30879   7.361  12.235   2.972  0.1947  0.0926  0.3078
15071W        W30880  15.422  14.481   2.012 -0.0321  0.1152  0.3320
15072W        W30881   4.056  14.551   2.864 -0.2499  0.0903 -0.0153
15073W        W30882   4.889  15.515  11.009 -0.0971 -0.1169  0.3606
15074W        W30883   4.823  16.714  11.069 -0.0043  0.1256  0.0480
15075W        W30884  11.346   5.047  14.669  0.0658 -0.0739  0.2293
15076W        W30885   9.103   9.771  14.745 -0.0698 -0.0086  0.0786
15077W        W30886   3.596  12.533  12.500  0.0252 -0.0012 -0.4166
15078W        W30887   7.169   1.923  12.606 -0.0045  0.2440 -0.1554
15079W        W30888  13.156  15.763   0.497  0.1279  0.0580 -0.2403
15080W        W30889  13.640  17.963  14.332  0.4702  0.4523 -0.0702
15081W        W30890   8.093   5.077  15.608 -0.2028 -0.0234 -0.3007
15082W        W30891  11.810   0.777   0.727 -0.0031 -0.2265 -0.0399
15083W        W30892   6.224   8.938  13.805 -0.0658  0.4892 -0.4781
15084W        W30893   5.579  13.993   0.141  0.2515  0.0659  0.0330
15085W        W30894   0.739   4.745   2.823 -0.0386  0.2228  0.2872
15086W        W30895  18.039  10.195  15.265  0.1848 -0.1719  0.0135
15087W        W30896  10.551  18.553  14.034 -0.2122 -0.2785  0.2667
15088W        W30897   5.475  14.986   4.977 -0.4404  0.1894  0.2364
15089W        W30898  17.325   9.462  12.590 -0.0581  0.1370  0.0970
15090W        W30899  11.210  15.196   3.008  0.3784 -0.0083  0.1177
15091W        W30900   7.538  14.678   1.472 -0.0046 -0.2240  0.4111
15092W        W30901   7.754  14.132  11.323 -0.2621  0.2696 -0.0562
15093W        W30902  10.975  12.296  12.318  0.0770  0.4018  0.2650
15094W        W30903  18.397   9.629   4.588  0.0484  0.1530 -0.2126
15095W        W30904  12.267   8.959   0.525  0.3845 -0.1635 -0.0653
15096W        W30905  14.689   7.118   4.587  0.0435 -0.1339 -0.0032
15097W        W30906   6.727   2.121   6.176  0.0243 -0.3476 -0.0953
15098W        W30907  16.026  17.112  13.948  0.3337 -0.1900 -0.1423
15099W        W30908   9.860  16.282   0.229 -0.0675  0.2074 -0.1994
15100W        W30909   2.147  16.160   4.887  0.1714 -0.3382  0.0660
15101W        W30910  10.922   5.031   4.455  0.0255  0.3748  0.3038
15102W        W30911   5.638   2.238  11.519  0.1223  0.3217  0.0120
15103W        W30912   0.205   1.002  12.707 -0.1692  0.0343  0.0793
15104W        W30913  10.587  12.683   1.462 -0.0647  0.0692  0.1102
15105W        W30914   5.334   9.505   1.765  0.3555  0.0643  0.0211
15106W        W30915   5.752   0.444   4.458  0.0896  0.0877  0.1230
15107W        W30916  12.172  13.016   4.421 -0.0705  0.0476  0.0328
15108W        W30917   4.484   9.281   2.673 -0.3234  0.2216 -0.2193
15109W        W30918   7.986   3.521   3.309 -0.4062 -0.1535  0.1535
15110W        W30919  16.737   7.295  12.039 -0.0291  0.0550  0.3948
15111W        W30920  13.802  15.432   2.664 -0.1023 -0.0616  0.2093
15112W        W30921  13.498   6.039   3.376  0.0323  0.2222 -0.1252
15113W        W30922   8.160   9.732   0.352  0.2003  0.1339 -0.1889
15114W        W30923  14.722   4.646   2.744 -0.2261  0.3604 -0.0158
15115W        W30924  15.974   3.413   2.955 -0.3305 -0.0729  0.0791
15116W        W30925   5.801  10.612   5.871 -0.4640 -0.1712 -0.0338
15117W        W30926   1.878  16.406   3.972  0.0976 -0.0492  0.2266
15118W        W30927   1.349   0.921   0.300 -0.0336 -0.0264 -0.2406
15119W        W30928   9.385  10.742   0.819 -0.1431  0.0646 -0.0186
15120W        W30929   1.075  17.899  11.922 -0.1796  0.0140  0.4140
15121W        W30930   7.282   2.364  14.670  0.0843  0.0932 -0.3696
15122W        W30931  13.824   6.942   0.228 -0.0589  0.2687 -0.1412
15123W        W30932   3.865   8.337  11.565 -0.0890 -0.1046 -0.4302
15124W        W30933   8.650   1.147   1.447  0.0361 -0.1166  0.1830
15125W        W30934   4.011   2.484   3.398 -0.1210  0.2521 -0.2541
15126W        W30935   7.687  12.993  13.713  0.0572  0.0992 -0.0637
15127W        W30936  17.439   7.006  10.465  0.0627 -0.1396 -0.0885
15128W        W30937   4.488  18.111  11.898  0.0874  0.3931 -0.1140
15129W        W30938  16.794   6.214  10.804 -0.1901 -0.1693 -0.1323
15130W        W30939  16.123  14.615   0.284 -0.1244 -0.2031  0.0661
15131W        W30940  14.294  17.130  14.524  0.0659 -0.1116  0.2894
15132W        W30941  10.543   5.052  15.053  0.1546 -0.0720 -0.0257
15133W        W30942   4.333   7.603  15.300  0.1725 -0.2808 -0.0138
15134W        W30943   5.039  16.766   3.452 -0.3655  0.1294  0.2467
15135W        W30944   3.859   7.839  12.740  0.0306  0.0498  0.0747
15136W        W30945   5.792   7.680  13.400 -0.4196 -0.0378  0.0584
15137W        W30946  18.486   9.120   4.830 -0.0451 -0.0052  0.1955
15138W        W30947   3.217  15.455  12.842 -0.1223  0.1402 -0.0019
15139W        W30948  10.340  16.658  13.062  0.0019  0.1318  0.0041
15140W        W30949  14.201  13.186   1.064  0.0396  0.1189 -0.0033
15141W        W30950  17.391   5.813   3.954  0.1944  0.0838  0.1090
15142W        W30951   2.014  12.828   2.789 -0.0475  0.2070  0.1220
15143W        W30952   2.089  10.716  12.903  0.2634 -0.0928  0.2306
15144W        W30953   4.826   8.879   1.929  0.3221  0.1723 -0.1022
15145W        W30954  13.969   0.970  13.890  0.2714 -0.1446  0.0664
15146W        W30955  11.201   4.545  13.368 -0.0008  0.0988  0.0521
15147W        W30956  11.982   3.937  14.287 -0.3008 -0.0889 -0.0254
15148W        W30957   8.879  12.150   4.198 -0.2650 -0.0451 -0.1567
15149W        W30958   0.932   6.063   2.599  0.2221  0.2316  0.2923
15150W        W30959   6.316   7.441   1.998  0.0434 -0.0423  0.0017
15151W        W30960  16.993   9.313   0.312 -0.0982 -0.4942 -0.0618
15152W        W30961  17.835   4.456   0.026  0.1678  0.0295  0.1173
15153W        W30962   0.643   4.951   4.266 -0.3536  0.2040  0.2574
15154W        W30963   1.551  15.816   3.087  0.0701 -0.1766  0.4178
15155W        W30964  15.477   8.608   5.020 -0.1697  0.1133 -0.3434
15156W        W30965   7.280  10.290  11.995  0.1082 -0.1937  0.1065
15157W        W30966   8.482   2.088   1.336  0.2191  0.0749  0.1044
15158W        W30967  13.837   0.255  11.133  0.0760 -0.3037  0.0222
15159W        W30968  14.782   5.102   3.042 -0.1097 -0.2627  0.1326
15160W        W30969   3.920   9.327  14.807  0.1731  0.0637  0.0684
15161W        W30970   3.138  14.607  13.450  0.0738 -0.0630  0.0160
15162W        W30971  11.994   1.735   2.009  0.2340  0.0159 -0.1012
15163W        W30972  14.759   5.976   1.509 -0.3067 -0.1359 -0.1135
15164W        W30973   1.759   8.175   0.261  0.2341  0.1963  0.0603
15165W        W30974   2.559  11.942  12.263 -0.0850  0.0421 -0.0633
15166W        W30975  18.535  17.170  14.557  0.0618  0.3958 -0.0638
15167W        W30976   0.005  18.087   2.718 -0.0704  0.2103 -0.1651
15168W        W30977   6.700  15.601  11.229 -0.1426  0.2016  0.0070
15169W        W30978   4.665   5.115   4.671 -0.0797 -0.0941 -0.2028
15170W        W30979  18.543   8.239  12.478  0.0354  0.2655  0.2446
15171W        W30980   7.206   8.878   2.342  0.0601  0.1078  0.1381
15172W        W30981   2.858   8.072   0.558 -0.0107 -0.1499 -0.0293
15173W        W30982   5.920  11.212  14.547  0.2067 -0.0029  0.1401
15174W        W30983   2.044  12.221  14.735  0.1597  0.3440  0.0978
15175W        W30984  15.809  17.680   3.188  0.0667 -0.1949 -0.0104
15176W        W30985   2.591   3.565   9.947  0.1612 -0.2128 -0.2711
15177W        W30986  11.365   4.976   3.450  0.4553 -0.0363 -0.0733
15178W        W30987   5.307   9.061  11.683  0.0325  0.1426 -0.0924
15179W        W30988   7.595   0.446  13.178  0.3375  0.0673 -0.1549
15180W        W30989   8.453   9.757   3.982  0.1855 -0.1189 -0.1016
15181W        W30990   2.713   8.346   4.318  0.0439 -0.0663 -0.2734
15182W        W30991  11.277  11.255   1.669  0.1106  0.1389  0.1073
15183W        W30992   3.270  14.695   0.641 -0.0975 -0.1799 -0.1064
15184W        W30993   6.155   0.257  10.790  0.0454 -0.2078 -0.0110
15185W        W30994   4.114  12.459  12.619  0.2986 -0.2234  0.1084
15186W        W30995   0.928  14.522  11.971  0.0068 -0.1499  0.0974
15187W        W30996   9.543   2.429  13.816 -0.1654  0.1817  0.0807
15188W        W30997   8.056  17.973   5.697  0.3058  0.0485 -0.0925
15189W        W30998   3.291   1.238   4.838 -0.0169 -0.0403  0.1193
15190W        W30999   5.710   7.195  13.593 -0.0489 -0.0955 -0.0424
15191W        W31000   6.875   6.771   1.783  0.3285 -0.2967 -0.0528
15192W        W31001   8.194  18.228   0.136  0.1734  0.0244  0.3285
15193W        W31002   0.641  17.852   3.345 -0.1109 -0.1611 -0.1299
15194W        W31003  13.022  13.324   5.420  0.3029 -0.0572 -0.1860
15195W        W31004   8.962  11.237  12.830  0.4267 -0.1733 -0.0073
15196W        W31005   1.274  15.133  14.093  0.0737 -0.0889  0.2389
15197W        W31006   8.674  15.550   5.677 -0.4350  0.0501  0.0021
15198W        W31007   2.592   0.193  13.079  0.0490 -0.2930  0.1752
15199W        W31008  13.637  18.231  11.977  0.4389  0.1676  0.0499
15200W        W31009   3.492  13.786  11.276 -0.1122 -0.0202  0.2221
15201W        W31010  14.548   9.999  11.211 -0.1479 -0.2857  0.2529
15202W        W31011   1.804  16.857   1.909 -0.0761 -0.0402 -0.3106
15203W        W31012  13.298   6.271  15.595 -0.1529  0.0249 -0.2319
15204W        W31013  14.072   5.565   5.711 -0.2431  0.4328  0.2503
15205W        W31014   0.779   8.879  14.778 -0.1628  0.0547 -0.3787
15206W        W31015  11.428   0.812   4.379 -0.0843  0.0331  0.2518
15207W        W31016  16.646   0.547   0.268  0.2689 -0.0164 -0.0775
15208W        W31017   3.744  15.324  11.330  0.0510 -0.1337 -0.1011
15209W        W31018  16.362   8.745   4.149  0.0294 -0.2041 -0.3371
15210W        W31019  10.300   0.551   2.372 -0.0674 -0.4274 -0.0720
15211W        W31020   0.952   7.514   1.458  0.0207  0.1120 -0.0264
15212W        W31021  12.005  11.306   0.848  0.3685 -0.1780 -0.1470
15213W        W31022  15.765   5.454   1.854  0.2875 -0.0587  0.0144
15214W        W31023   2.251  14.646   3.353  0.2919 -0.0210  0.1011
15215W        W31024  14.347   3.745   0.608  0.1592 -0.0804 -0.1848
15216W        W31025  15.973   6.552   0.648  0.0397  0.0210 -0.0780
15217W        W31026  12.444  17.523   3.369  0.0029 -0.0626 -0.0740
15218W        W31027   7.040   7.691  12.048  0.0677  0.1700  0.0669
15219W        W31028   5.459  18.204   1.546 -0.2980 -0.2226 -0.1461
15220W        W31029   4.753   1.075  11.805  0.0189 -0.4987  0.0383
15221W        W31030   0.772   3.992  15.087  0.1388 -0.0315 -0.1906
15222W        W31031   6.261  18.382  12.579 -0.0091 -0.1960 -0.2614
15223W        W31032  13.304   4.502   3.289  0.1107 -0.0463 -0.3798
15224W        W31033  16.009  18.122   5.333  0.3895 -0.2224  0.3457
15225W        W31034   5.147   9.469   0.438  0.0309  0.1066 -0.3393
15226W        W31035   1.581   2.336  14.796 -0.0640 -0.0054 -0.0820
15227W        W31036  17.065   4.030  10.852 -0.0061  0.1859  0.1949
15228W        W31037   3.908  13.325  13.582  0.0109  0.0357 -0.1626
15229W        W31038   7.728  17.200   5.699  0.0536 -0.1895  0.2078
15230W        W31039  11.931  15.873  11.368 -0.2355  0.1211 -0.0195
15231W        W31040  15.723   8.901   3.622 -0.1508  0.0532 -0.2323
15232W        W31041   9.254   8.896   3.266 -0.1334 -0.2610 -0.1844
15233W        W31042   7.988   9.005   2.090  0.0205 -0.0940 -0.0699
15234W        W31043  16.587   5.824  10.561  0.2863 -0.0684  0.0129
15235W        W31044  16.017  14.126   5.772  0.0022  0.0517 -0.0857
15236W        W31045   8.876  18.592   5.505 -0.2244  0.0624  0.0418
15237W        W31046  14.517   5.979   3.652 -0.0839  0.1676 -0.0168
15238W        W31047   0.125  15.296  14.726  0.2633 -0.1532 -0.0748
15239W        W31048  11.159   5.536   4.535 -0.0235 -0.1958  0.1229
15240W        W31049   3.709  11.413   2.657  0.1195 -0.1871  0.0455
15241W        W31050  11.730  10.146  15.243 -0.0195  0.1280  0.1558
15242W        W31051  10.872  16.776   0.153  0.2122  0.2063 -0.0187
15243W        W31052   6.872  17.445   1.827  0.1370  0.1690 -0.2829
15244W        W31053  16.671   5.735  13.149 -0.4000 -0.0391  0.0853
15245W        W31054  11.994   3.129  14.342  0.0895  0.0394 -0.2476
15246W        W31055   1.728   7.101   0.791 -0.1446 -0.3585  0.0390
15247W        W31056  17.455  17.168  15.491  0.0181 -0.1176 -0.1003
15248W        W31057   8.564   5.685   5.760 -0.1306 -0.0024 -0.1168
15249W        W31058   2.805   5.809   4.769  0.1651  0.1445 -0.3365
15250W        W31059  10.489  10.647   1.135  0.0673  0.0828  0.1435
15251W        W31060   2.095   2.071  13.015  0.1744 -0.1671  0.0480
15252W        W31061   1.585  12.674  10.697 -0.2902 -0.1180  0.0172
15253W        W31062  18.188  18.023  15.396  0.0297 -0.1974  0.2349
15254W        W31063  17.622   4.328   2.585 -0.2484 -0.0278  0.0327
15255W        W31064   3.715  15.200  10.744  0.2053  0.2419  0.0592
15256W        W31065   5.090   2.247  15.473 -0.4030 -0.0719 -0.1840
15257W        W31066  15.085   7.970   0.018  0.0099 -0.0891  0.0095
15258W        W31067   8.016   4.485   4.060 -0.3459  0.0732 -0.3001
15259W        W31068  12.641   6.805  13.271 -0.1996 -0.3255  0.0888
15260W        W31069   3.645  10.141  11.952  0.1841 -0.0493 -0.0074
15261W        W31070  13.219  12.230   0.009 -0.0773  0.0800  0.5549
15262W        W31071  12.823  16.666   0.706  0.0289  0.1879  0.0513
15263W        W31072   6.768   9.040  15.074 -0.0086  0.0324  0.1751
15264W        W31073  16.623   1.193  14.133 -0.0195  0.0077  0.0776
15265W        W31074  14.509  12.861   4.580 -0.2927 -0.0875 -0.1823
15266W        W31075   0.024   6.134   1.153 -0.1593 -0.1602  0.0848
15267W        W31076  15.970  16.132   4.230  0.3346 -0.3772 -0.2999
15268W        W31077  14.177   5.179   4.218 -0.2157  0.0644 -0.0141
15269W        W31078  11.768  10.359   3.644 -0.0501 -0.0071  0.1358
15270W        W31079   0.869   9.074   4.515  0.0646 -0.0695 -0.1377
15271W        W31080   6.647  15.351  10.780  0.3911  0.0074  0.0339
15272W        W31081  14.232   7.814   0.906  0.1433  0.0740 -0.1808
15273W        W31082   8.737   7.639  15.512 -0.5899  0.2095  0.2343
15274W        W31083   1.695   8.663   3.057  0.1141 -0.2328 -0.3051
15275W        W31084  18.634   4.477   3.197  0.1118  0.0184  0.1455
15276W        W31085  17.023  12.986   1.668  0.1454  0.0152  0.1880
15277W        W31086   2.806  16.571   2.370 -0.1072 -0.1487  0.2061
15278W        W31087  11.155  11.107   2.956  0.3014 -0.0634 -0.0259
15279W        W31088   4.754   0.965   4.009  0.1082 -0.1222 -0.0017
15280W        W31089   6.942   5.793  12.802 -0.1571  0.0638 -0.0182
15281W        W31090  14.510  17.054   0.013  0.0569  0.2678 -0.0874
15282W        W31091   4.121  12.874   1.069 -0.2500 -0.1986 -0.0502
15283W        W31092  17.533   3.003   5.142  0.1454 -0.0857  0.1425
15284W        W31093   4.214  11.917   0.805 -0.2729 -0.0383  0.0864
15285W        W31094  13.412   8.321   0.976  0.2652 -0.0639 -0.2253
15286W        W31095   7.484  13.302   1.199 -0.1642 -0.2176 -0.0809
15287W        W31096   6.300  17.769  11.663 -0.1731 -0.1128 -0.0997
15288W        W31097   1.797  12.041   2.226 -0.1172 -0.2486  0.0995
15289W        W31098   1.119  10.079  10.942 -0.1989  0.0718  0.0379
15290W        W31099   0.196  13.710   4.207  0.0909  0.2945 -0.1260
15291W        W31100  13.381  17.204  15.128  0.1876  0.2929  0.2732
15292W        W31101  10.870   2.208  13.354  0.0294 -0.2099 -0.2216
15293W        W31102   5.339  15.437   1.015 -0.0144  0.2238 -0.0366
15294W        W31103   5.478  18.134  11.615  0.1444 -0.2379  0.0481
15295W        W31104  12.062   1.076   2.000  0.0579 -0.1658  0.1198
15296W        W31105   5.563  11.960  12.519  0.1472  0.1199 -0.0901
15297W        W31106  17.101   6.234   0.027 -0.1680 -0.3334 -0.0654
15298W        W31107  18.457   5.671   0.046 -0.0288  0.1737 -0.1097
15299W        W31108  14.529   5.377   2.008  0.0873 -0.1224  0.0034
15300W        W31109  14.166   6.409  10.875 -0.1965  0.2695 -0.1205
15301W        W31110   9.763   6.322   1.074  0.0261  0.0029  0.0130
15302W        W31111  18.441  16.124   2.926  0.1506 -0.0946 -0.3746
15303W        W31112   7.257  16.596  10.135 -0.0105 -0.0827  0.0915
15304W        W31113  10.787  12.637  11.856 -0.1795 -0.1804  0.1641
15305W        W31114  14.850  12.101   1.432 -0.3258 -0.0755  0.1880
15306W        W31115  12.640   6.004   4.383 -0.1620 -0.1473 -0.1223
15307W        W31116  12.501  17.797   4.694 -0.0770  0.1980 -0.2583
15308W        W31117   8.770   6.402  14.085  0.1862  0.0840  0.1519
15309W        W31118   0.174   6.237  13.049  0.0206 -0.0436  0.0969
15310W        W31119  16.110   7.970  15.571  0.0578  0.0739 -0.3110
15311W        W31120   0.053  11.210  13.094  0.2259  0.1237 -0.1194
15312W        W31121   0.977   1.129  11.110  0.1351 -0.0767 -0.0618
15313W        W31122  17.010   4.797   0.429 -0.1871 -0.1266 -0.1507
15314W        W31123  13.966   6.595   4.784  0.3104  0.0763 -0.1263
15315W        W31124  16.229   0.521  13.293 -0.1382  0.1682 -0.1916
15316W        W31125  17.538  12.328   1.263 -0.2282 -0.1064 -0.0344
15317W        W31126   8.952   0.640   4.458 -0.0476  0.0291 -0.1604
15318W        W31127   9.795   4.711  13.816 -0.2400 -0.0830 -0.2606
15319W        W31128   3.388  10.255  10.900  0.2220 -0.0072  0.0649
15320W        W31129   8.455   6.250   5.516 -0.1651 -0.0997  0.1999
15321W        W31130   0.892   2.286   1.250 -0.4014 -0.0033  0.1227
15322W        W31131  14.432  17.152  11.399 -0.1078  0.3804 -0.0699
15323W        W31132   9.989  11.264  13.206 -0.0766  0.0465 -0.2837
15324W        W31133   0.221   8.281  10.947 -0.1085  0.0853 -0.5439
15325W        W31134   2.723   0.160  15.620 -0.0360  0.0963 -0.0751
15326W        W31135   8.046  11.240  13.338  0.1617  0.0620  0.2953
15327W        W31136   7.173   7.671  12.941  0.0295  0.2529  0.0432
15328W        W31137   8.831  14.717   3.961 -0.2882  0.1708  0.1806
15329W        W31138   6.287   7.131   1.081 -0.2528  0.2094 -0.1585
15330W        W31139   6.217   4.175   1.567  0.1607  0.1079 -0.1719
15331W        W31140   1.249   4.590   2.229 -0.1989  0.0743  0.0337
15332W        W31141  15.135   8.572  10.423 -0.0840 -0.0831 -0.2074
15333W        W31142  18.202   6.129  12.406  0.0006  0.1988 -0.0224
15334W        W31143  17.168  11.900   5.680  0.1748  0.0828 -0.0681
15335W        W31144  17.213  12.496  15.209 -0.0645  0.1046 -0.2779
15336W        W31145  17.682  12.087  11.483 -0.2086  0.0077 -0.1859
15337W        W31146  11.357  13.047   0.629 -0.1687 -0.1295 -0.2834
15338W        W31147   0.912   9.570  13.822  0.0481  0.1147 -0.1083
15339W        W31148   0.618   4.308  13.414 -0.0756 -0.2598  0.2705
15340W        W31149   3.854  11.056  13.306  0.2686 -0.0471  0.1601
15341W        W31150   0.657  18.317   2.680 -0.0522 -0.1990  0.0511
15342W        W31151   2.540   3.679   2.377  0.2481 -0.1328  0.2420
15343W        W31152  14.895  10.309  14.947  0.3725 -0.1968  0.1711
15344W        W31153  16.139  17.479   2.859  0.0366  0.0061 -0.1359
15345W        W31154   8.925  13.515  10.998 -0.0691  0.3767 -0.3814
15346W        W31155   2.640   0.185   5.383  0.1805 -0.1178  0.1840
15347W        W31156   8.259   7.872   0.156  0.2941  0.4087  0.0675
15348W        W31157  15.711  12.620  12.947  0.0522  0.0913 -0.3135
15349W        W31158   2.848   3.733  14.964  0.2236  0.2253 -0.0702
15350W        W31159  12.134  14.572   0.756  0.0058  0.2651 -0.2668
15351W        W31160   5.078   1.401   4.746  0.1503 -0.1945 -0.0127
15352W        W31161  12.286   0.735   5.008 -0.1490  0.2802 -0.1759
15353W        W31162  14.684  12.411   4.825  0.0302  0.0731 -0.1000
15354W        W31163  11.207  10.105  10.839 -0.1187  0.0467 -0.2468
15355W        W31164  11.208   8.461  12.120 -0.3697 -0.0621  0.1581
15356W        W31165   0.769   1.619   0.119  0.1051  0.2261 -0.2086
15357W        W31166   3.019  13.466  13.868  0.0444  0.1049 -0.3125
15358W        W31167  11.269   4.384  12.885 -0.1443 -0.1926  0.0528
15359W        W31168   0.411   2.641  13.345  0.0384  0.0687 -0.1184
15360W        W31169  18.506   3.804  10.415  0.0293 -0.0434 -0.2311
15361W        W31170   2.158  15.652   2.361  0.1220  0.0357  0.1868
15362W        W31171   8.620   6.825   5.434 -0.2292 -0.1285  0.0670
15363W        W31172   6.095  11.106   5.827 -0.2137  0.2251 -0.0530
15364W        W31173  12.175  14.264   2.923 -0.2745  0.2700 -0.2271
15365W        W31174   6.840  15.666   1.131 -0.1203 -0.0745 -0.4333
15366W        W31175   4.131   7.383   0.056  0.0820 -0.3395 -0.2654
15367W        W31176  17.746  13.084   3.355  0.1396  0.2004 -0.1687
15368W        W31177  10.897  15.092   0.079 -0.1537 -0.0384  0.2958
15369W        W31178  13.991   7.654  14.765 -0.1417 -0.4429 -0.1031
15370W        W31179  13.693  10.570   4.808 -0.4024 -0.2002 -0.0384
15371W        W31180   1.692  10.414  12.975 -0.1374 -0.0598 -0.0290
15372W        W31181  11.126   1.537  13.658 -0.0312 -0.0624  0.1634
15373W        W31182  13.045  10.877   2.643  0.5238  0.0296 -0.1897
15374W        W31183  14.434  13.268  14.027  0.4411  0.3215 -0.0551
15375W        W31184   6.503  17.401   0.774  0.2126  0.0799  0.0023
15376W        W31185   4.491   1.503  12.663 -0.1256  0.0829  0.0133
15377W        W31186  13.319  16.408   2.981 -0.3831  0.1655  0.4620
15378W        W31187  10.518  17.896  12.522  0.2026  0.2202 -0.3662
15379W        W31188   7.411   4.517   4.806 -0.0020  0.1757 -0.2251
15380W        W31189  12.049  10.001   3.849 -0.1613  0.0706  0.3379
15381W        W31190  13.626   0.941   1.581 -0.2162  0.3633  0.0136
15382W        W31191   5.937   7.378  14.892 -0.1517  0.2249  0.0091
15383W        W31192   2.243  11.237   2.280  0.0462  0.1682 -0.3235
15384W        W31193  17.956   7.731  15.568 -0.1528 -0.0347 -0.0174
15385W        W31194   0.532   5.297   2.428 -0.1133  0.0905  0.0537
15386W        W31195  13.422  16.901   5.999  0.0609  0.2989 -0.0965
15387W        W31196  11.915  15.432   0.904 -0.1037  0.1793  0.2576
15388W        W31197   2.380   3.213   4.028 -0.1135  0.4158  0.0155
15389W        W31198  17.345  16.530  11.228 -0.1515 -0.1734 -0.2209
15390W        W31199   1.537  13.241   1.925  0.0247 -0.0756 -0.0243
15391W        W31200  11.045   2.803  13.360  0.2831 -0.0753  0.1000
15392W        W31201   3.462  12.050  12.281 -0.3551 -0.2902  0.0990
15393W        W31202  14.348  15.097  15.029  0.0048  0.0432 -0.0267
15394W        W31203  17.920   6.630  11.567 -0.0166  0.0778  0.0935
15395W        W31204  12.619   5.681  15.340 -0.0047  0.0252 -0.0651
15396W        W31205  11.992  14.227  14.901 -0.2103  0.0565  0.0335
15397W        W31206  13.591  10.795  14.741  0.0126  0.0279  0.1496
15398W        W31207   1.617   9.583  11.555  0.1632  0.0178 -0.1157
15399W        W31208   9.342  11.754   3.622  0.2452 -0.0803  0.2250
15400W        W31209   1.198   6.930   1.175 -0.0348  0.1157 -0.0842
15401W        W31210  14.856  16.855   3.028  0.2490  0.2469  0.1791
15402W        W31211  10.600  11.658  14.221 -0.0261 -0.0065  0.0482
15403W        W31212  18.443   5.382   3.316 -0.1113  0.1158 -0.0895
15404W        W31213  12.670   2.072  10.469  0.4277 -0.1424  0.0733
15405W        W31214  16.586  13.612  12.692  0.0294 -0.2426  0.1778
15406W        W31215   0.533   1.214   0.270 -0.0341 -0.0716  0.2287
15407W        W31216  14.986  11.890   4.245  0.1314 -0.2591  0.1888
15408W        W31217  13.228  14.857  12.222 -0.1075  0.0045  0.2010
15409W        W31218   6.650  16.276   3.155  0.4029 -0.1475 -0.2883
15410W        W31219   9.816  11.195  11.244  0.2243  0.0140  0.0853
15411W        W31220   5.776   9.410  10.941  0.0796 -0.0038  0.0224
15412W        W31221  11.934   6.827  11.369 -0.2553  0.0096  0.1839
15413W        W31222  16.341  12.696  10.710 -0.1798  0.2014  0.3041
15414W        W31223   5.019  18.349   3.312  0.3626 -0.1929 -0.0171
15415W        W31224  15.615   6.063  12.003 -0.2214  0.0380  0.1928
15416W        W31225   9.316  11.097   5.980  0.1280 -0.3654 -0.0046
15417W        W31226   8.221   3.043  11.825  0.0438  0.0313  0.3280
15418W        W31227  18.492  14.911   0.633 -0.2470 -0.0191 -0.1673
15419W        W31228   9.671   1.092   0.007  0.2328  0.0528  0.2760
15420W        W31229   7.065   4.291  12.256  0.1205 -0.5031 -0.0545
15421W        W31230  17.435   3.632  15.310 -0.1012 -0.0118  0.1484
15422W        W31231  16.964  11.529  11.364 -0.2689  0.1622 -0.0561
15423W        W31232  16.366   9.924  13.724 -0.1163 -0.0476  0.0236
15424W        W31233   2.821  10.643   2.660 -0.2916  0.0634 -0.3446
15425W        W31234  14.779  18.235   3.015  0.4132 -0.2500  0.2035
15426W        W31235   6.491   3.183   1.508 -0.1423 -0.2931 -0.2298
15427W        W31236   8.600   2.985   0.013  0.3671  0.0973 -0.1822
15428W        W31237  13.041   8.758  15.375  0.0728  0.0352  0.1803
15429W        W31238   3.505   6.691   9.416  0.1069  0.2476 -0.1833
15430W        W31239  14.092   0.297  12.376 -0.3708  0.1711 -0.0971
15431W        W31240  10.874   3.226   2.124  0.1564  0.0710 -0.1774
15432W        W31241  15.865   8.319   2.242 -0.0576 -0.2055 -0.1951
15433W        W31242  18.146  14.292   9.726  0.1439  0.0955 -0.1266
15434W        W31243  12.163   8.387  14.881  0.1612  0.3723 -0.2124
15435W        W31244   7.089  14.085   5.024 -0.1674 -0.1086  0.0314
15436W        W31245  17.209   4.742  14.447  0.0047 -0.0004 -0.0999
15437W        W31246  13.199  15.129  11.738 -0.3002 -0.1364 -0.0923
15438W        W31247  13.765   5.587  12.637 -0.0503 -0.1240  0.1187
15439W        W31248  14.395   1.753  10.873  0.0117 -0.2043  0.0897
15440W        W31249  17.025  15.922   0.104  0.2081 -0.0236  0.2894
15441W        W31250   0.258  13.110   0.034 -0.0686  0.2462 -0.1156
15442W        W31251  11.979   2.323  11.304  0.0494  0.3209 -0.0163
15443W        W31252  13.045   4.009   0.741  0.0917 -0.1787 -0.0012
15444W        W31253   9.727   8.283  11.761 -0.2331  0.0897 -0.3209
15445W        W31254   3.195   1.875   0.686 -0.1234 -0.1423  0.1793
15446W        W31255   6.416  15.819  12.033  0.0765 -0.2513  0.0864
15447W        W31256  13.440  14.105  11.577  0.1435 -0.0571  0.0697
15448W        W31257   8.130   0.442   1.206 -0.1256 -0.0262 -0.0231
15449W        W31258   6.290  18.424   5.154  0.1846  0.1469  0.0383
15450W        W31259   3.556  13.960  13.915 -0.0783  0.0437  0.0423
15451W        W31260   7.035  15.916  15.060 -0.0298 -0.1113  0.0417
15452W        W31261   6.389  10.770   3.596 -0.1925  0.1058  0.0491
15453W        W31262   0.854   9.889  11.844 -0.1926  0.1956  0.1800
15454W        W31263   8.809  15.287  11.490 -0.0417 -0.3573 -0.1055
15455W        W31264  10.393  12.612  14.434  0.0594  0.0667 -0.0903
15456W        W31265   1.169   0.800   5.000 -0.2053 -0.1179 -0.0730
15457W        W31266   7.219  18.265   2.348  0.1761  0.0240  0.1444
15458W        W31267  15.263  17.974   4.682  0.1386 -0.0254  0.3261
15459W        W31268  11.958   9.334   1.100  0.1420 -0.1137  0.0710
15460W        W31269   2.035   1.724  13.439  0.2539 -0.0371  0.3198
15461W        W31270  15.472   6.544  12.786 -0.2516 -0.1395  0.2029
15462W        W31271  17.130  15.154   1.292 -0.0187 -0.0376 -0.3005
15463W        W31272   2.185  18.592   5.120  0.1761  0.2532 -0.1810
15464W        W31273  13.459  16.053   5.314 -0.3074  0.0583 -0.0325
15465W        W31274  13.935  11.409   3.643  0.1973  0.3180 -0.0015
15466W        W31275  18.417  12.521  10.602 -0.1804  0.2532 -0.0585
15467W        W31276  15.186  11.000  10.824 -0.2673 -0.0535  0.2563
15468W        W31277  14.202   2.665   1.620 -0.3635  0.2880 -0.0758
15469W        W31278  10.780   4.863  13.106  0.1594  0.0382  0.0547
15470W        W31279  15.404   1.060   4.441  0.2496 -0.0656  0.2350
15471W        W31280  11.173   2.392  15.279 -0.2062  0.2298  0.1749
15472W        W31281  17.022  13.665   4.312  0.1573  0.0706 -0.1962
15473W        W31282  14.756   2.200   4.853 -0.3554  0.0588 -0.0412
15474W        W31283   5.100   2.092  11.603 -0.0564  0.1367 -0.2681
15475W        W31284   5.730  11.129   4.382 -0.3472  0.0613 -0.2266
15476W        W31285   5.640   4.371  10.918  0.1837  0.0243  0.5879
15477W        W31286   8.389  13.272  10.263 -0.4868 -0.0571 -0.1734
15478W        W31287  14.783   2.771   2.228 -0.0458  0.1736 -0.0557
15479W        W31288   8.058  12.865  15.384 -0.1456  0.2226  0.2270
15480W        W31289  15.360   8.899  15.318  0.0881  0.0788 -0.0257
15481W        W31290   8.246  16.297   0.085  0.0934 -0.0093 -0.0670
15482W        W31291   0.573   1.375  12.810  0.0250 -0.0885 -0.1414
15483W        W31292  13.670   9.374  15.604 -0.2772 -0.0905 -0.0470
15484W        W31293   2.921   0.435   0.393 -0.0503  0.1692  0.2962
15485W        W31294   0.504   3.160   1.171 -0.0988  0.0769 -0.0640
15486W        W31295   8.194   3.816   2.899  0.0465 -0.0293  0.0358
15487W        W31296  16.449  17.707  11.737 -0.0597  0.1037 -0.0420
15488W        W31297   4.058  18.374   2.466 -0.3119  0.2799 -0.0553
15489W        W31298   9.258  14.106  11.376 -0.0438  0.0249 -0.2445
15490W        W31299  15.087   6.075   1.878 -0.2230 -0.1166 -0.2445
15491W        W31300  14.606  18.204  10.649  0.4481 -0.0923  0.0439
15492W        W31301  14.277  15.171  13.028  0.0241  0.2911  0.0272
15493W        W31302   0.704  15.598  13.313  0.1250 -0.4513 -0.1409
15494W        W31303   7.057   9.609  11.303 -0.1819  0.1458  0.1277
15495W        W31304  18.086   9.404   3.848 -0.0058 -0.1654  0.1359
15496W        W31305  13.427  16.641  14.066 -0.1639 -0.1560  0.0482
15497W        W31306  16.933  11.764  13.219 -0.0141  0.0210  0.0649
15498W        W31307  17.247   0.753   0.794  0.2193  0.2387 -0.3015
15499W        W31308   5.091  12.701   2.748  0.0225 -0.2075  0.0713
15500W        W31309   6.832  11.368  14.487 -0.2761  0.2190 -0.1075
15501W        W31310  15.962   1.831   3.878  0.1377  0.4054 -0.0335
15502W        W31311   3.952   8.962   0.855 -0.0794 -0.0788  0.2786
15503W        W31312   1.800   4.333  12.103 -0.1312  0.0038  0.1949
15504W        W31313  15.799  11.773   4.688  0.0456  0.2493  0.1464
15505W        W31314   3.395   7.341  10.756  0.0732 -0.2283 -0.0693
15506W        W31315  17.995   3.998   0.734  0.1570  0.2995  0.0300
15507W        W31316   4.409   9.874   1.298  0.2828  0.2501  0.2753
15508W        W31317   3.255   6.407   3.424  0.3073  0.2599  0.0435
15509W        W31318   1.862   5.648  11.884 -0.5780 -0.0763  0.0711
15510W        W31319   3.546   3.055   0.061  0.0264  0.0425  0.0751
15511W        W31320  12.338   2.204   5.090 -0.0210 -0.1731 -0.1757
15512W        W31321   2.215   6.169   2.332  0.0330  0.2886  0.0110
15513W        W31322  11.822   8.099  15.092  0.1000  0.0774  0.0977
15514W        W31323   2.102  16.062  10.106  0.0499  0.0833 -0.3965
15515W        W31324   1.877   0.987  13.029  0.1881  0.0363  0.0983
15516W        W31325   1.121  17.339  13.817  0.0696  0.3288 -0.0341
15517W        W31326  16.187   9.932   2.932  0.1330  0.1064  0.3084
15518W        W31327  17.866  11.565   2.332  0.0526  0.1600  0.1741
15519W        W31328   2.362  16.796  11.843  0.2408  0.1403 -0.2243
15520W        W31329   2.595  15.023  10.882  0.0978 -0.2261  0.0168
15521W        W31330  14.559  12.331  13.861 -0.2053  0.0391 -0.5219
15522W        W31331  10.121   5.510   3.839 -0.1133  0.2025 -0.2627
15523W        W31332   5.695   6.081   2.279  0.0529 -0.3938  0.3019
15524W        W31333   4.778   3.594   3.504  0.2714  0.1141  0.0094
15525W        W31334   2.072   2.216  10.845 -0.3639 -0.2253 -0.3473
15526W        W31335  15.091  18.347  11.184  0.2377 -0.0682 -0.0983
15527W        W31336  14.763  14.298  10.290 -0.1731 -0.0072  0.2256
15528W        W31337  11.015   7.893  12.889  0.2935  0.2537 -0.2684
15529W        W31338   0.897   4.013   0.007 -0.0278  0.2862 -0.0675
15530W        W31339   9.854   0.995   4.803  0.4145 -0.1107 -0.2647
15531W        W31340  13.173  16.851  14.872  0.0991 -0.0919  0.0574
15532W        W31341  12.672   0.587   1.894 -0.4478 -0.1244 -0.2836
15533W        W31342   8.932  14.954  10.734  0.1753  0.2144 -0.4133
15534W        W31343   8.422  16.336   0.770  0.0019  0.0221  0.0513
15535W        W31344  16.690  15.594  14.303 -0.0768 -0.0576  0.0471
15536W        W31345   0.596  11.053   2.440 -0.0139  0.1441 -0.0713
15537W        W31346  11.773  17.621   4.160  0.0231  0.0118 -0.0578
15538W        W31347  16.006   8.265  14.244 -0.0722 -0.0569 -0.2526
15539W        W31348   4.938   1.131  15.554 -0.0372 -0.0685  0.0981
15540W        W31349  15.653  12.638  14.321  0.0390  0.2368 -0.1211
15541W        W31350   6.343  12.931   1.542 -0.1931  0.1598 -0.1081
15542W        W31351  13.081  15.572  13.350 -0.1503  0.1593 -0.2765
15543W        W31352  17.904  16.423   1.196 -0.1340  0.5594 -0.1285
15544W        W31353  12.979  13.666   2.408  0.0318  0.1889  0.0505
15545W        W31354  12.199  16.376   0.691 -0.1107  0.0339  0.0064
15546W        W31355   8.274   2.497  13.042  0.3321 -0.2293 -0.0252
15547W        W31356   0.961  12.897  15.344 -0.0824 -0.0426 -0.1365
15548W        W31357   5.470  10.441   1.845 -0.0232  0.0867 -0.0118
15549W        W31358  13.583   3.362  10.832 -0.2068  0.1315 -0.0003
15550W        W31359   5.558   7.237  10.295  0.1968 -0.2785  0.0988
15551W        W31360   8.633  18.053  15.150 -0.2360  0.2911  0.3777
15552W        W31361  13.075   8.737   2.633 -0.0379  0.0074  0.0999
15553W        W31362  13.078   6.600  14.580  0.2830 -0.2497  0.2541
15554W        W31363   7.610   1.010   5.091 -0.2486 -0.2992 -0.0191
15555W        W31364   1.284   3.168  11.106  0.1251  0.1110 -0.0314
15556W        W31365  15.180  18.037  14.250  0.1406  0.0488  0.0586
15557W        W31366   8.915  11.437   3.765 -0.2696  0.1363  0.1149
15558W        W31367   4.535   8.073   1.041 -0.0110 -0.3353  0.2121
15559W        W31368   9.144   2.942  14.557  0.0669 -0.1954 -0.1382
15560W        W31369  15.409  15.789   2.151 -0.1553  0.0778  0.2035
15561W        W31370  16.922  11.095  11.061 -0.3604  0.0855  0.2093
15562W        W31371   7.687  15.025   0.363  0.0420  0.0427  0.0127
15563W        W31372  17.958   6.504   2.606 -0.1523 -0.0529  0.2509
15564W        W31373   1.026   8.610   9.644 -0.2465  0.1303  0.0789
15565W        W31374   8.275   5.440  14.880 -0.1002 -0.1686  0.0187
15566W        W31375  14.934  14.529   4.981  0.1237 -0.3300  0.2178
15567W        W31376  16.560  14.588   4.076 -0.2076  0.0570 -0.2072
15568W        W31377  12.564   6.336  13.001 -0.1697  0.4017  0.1431
15569W        W31378  18.241   0.358   3.822  0.1946 -0.1042  0.0800
15570W        W31379   6.687   4.413  13.972 -0.1692  0.2872  0.2453
15571W        W31380  10.332   6.465   1.764 -0.1651  0.1840  0.1901
15572W        W31381   8.452  11.390  11.301 -0.0819 -0.1212 -0.2337
15573W        W31382  14.986  12.045  12.572  0.2052 -0.3364  0.1455
15574W        W31383   9.632   0.165   4.260 -0.0806 -0.1536  0.0325
15575W        W31384  14.322  18.587   5.646 -0.0433 -0.0622  0.4079
15576W        W31385   7.852  11.858  10.689  0.0251 -0.0838 -0.1309
15577W        W31386   6.797  13.981  11.247 -0.1225  0.1856  0.4380
15578W        W31387  18.011   1.162   2.760  0.0502 -0.0747  0.2229
15579W        W31388  13.558  11.144   0.174 -0.0361  0.0648  0.0562
15580W        W31389  10.103  13.666   2.153 -0.3030  0.1572  0.1405
15581W        W31390  16.484  17.799   3.341  0.3151  0.0379 -0.0852
15582W        W31391  10.843  15.909   1.709  0.0794 -0.0957 -0.0202
15583W        W31392   2.112  14.682  11.630  0.1324  0.0807  0.0203
15584W        W31393  13.055   1.450   3.953 -0.1110  0.0634 -0.1257
15585W        W31394  16.458  11.646  11.424  0.1480  0.2264  0.0594
15586W        W31395   3.332   4.651  13.261 -0.0541  0.0372 -0.0836
15587W        W31396  10.363  15.028  14.879 -0.0181  0.2310  0.3802
15588W        W31397   3.663   4.016  12.543 -0.0760 -0.2436 -0.0277
15589W        W31398   3.034  15.841   3.643 -0.0177 -0.2083  0.2158
15590W        W31399   3.272   3.315  11.525 -0.0175  0.2336  0.0055
15591W        W31400   5.862   0.734   3.725  0.3517  0.0300 -0.4461
15592W        W31401  18.446   9.729   2.036 -0.3373  0.1246 -0.1697
15593W        W31402  15.290  16.596  14.323  0.0534  0.0707 -0.1541
15594W        W31403   9.471   6.777   5.408 -0.0389  0.1016  0.1769
15595W        W31404  14.130  17.707   4.391  0.0633  0.0853 -0.1770
15596W        W31405  12.343   2.781   4.437 -0.2709 -0.0148  0.2861
15597W        W31406  15.181  14.879  15.502  0.1790 -0.3699 -0.2752
15598W        W31407   0.816  15.773   0.365  0.1514 -0.0780 -0.0155
15599W        W31408  16.382  17.922  10.406 -0.0692 -0.0982 -0.3136
15600W        W31409   2.680   0.228  13.643 -0.1628  0.3362 -0.0578
15601W        W31410   8.906   4.942  12.253  0.0133 -0.2248 -0.1891
15602W        W31411  10.420   6.227  12.936  0.0897  0.1867  0.0849
15603W        W31412  12.043  11.238  13.164 -0.1066 -0.0804 -0.1155
15604W        W31413   0.987  10.073   5.051 -0.0454 -0.1896  0.1966
15605W        W31414   3.548  17.235   1.391 -0.0194 -0.2285 -0.0445
15606W        W31415  16.059  16.704   0.556  0.3141 -0.0823  0.0031
15607W        W31416  17.335  14.227  11.564  0.1578 -0.1605 -0.1481
15608W        W31417   2.464   6.679  13.252 -0.2172  0.1316 -0.2661
15609W        W31418   5.305   3.375  13.196 -0.0276 -0.3079 -0.2761
15610W        W31419   3.124   0.865   2.792 -0.0548  0.3159  0.0108
15611W        W31420  17.293   9.665  14.657 -0.3075 -0.0243 -0.1508
15612W        W31421   9.566   3.062  11.542  0.2236 -0.0689 -0.8019
15613W        W31422  11.399   8.512   2.144  0.1477  0.0550 -0.4536
15614W        W31423  13.914  10.170   1.371 -0.0750  0.2718 -0.0457
15615W        W31424  15.620  10.283  11.523 -0.0178 -0.1101  0.1888
15616W        W31425   6.166   4.085   0.111 -0.0529 -0.1332 -0.0915
15617W        W31426   8.404  16.240  12.001 -0.0417  0.0608 -0.3571
15618W        W31427  16.780   4.278   2.454 -0.2536 -0.1729 -0.2247
15619W        W31428  11.514  14.676  13.020 -0.0450  0.0280  0.1646
15620W        W31429  17.290  14.407  12.853 -0.4269 -0.0111  0.2439
15621W        W31430   5.510   5.698  11.357 -0.2091 -0.1174  0.2249
15622W        W31431  12.234   5.996  12.794  0.0610 -0.1654  0.0056
15623W        W31432   8.128  14.179  14.693 -0.2882 -0.1536 -0.2168
15624W        W31433   9.337  12.637  15.581  0.1784 -0.1794 -0.0844
15625W        W31434  10.650  10.319  14.204 -0.1999  0.0640 -0.0719
15626W        W31435  17.684   7.444  10.833 -0.2885 -0.0506 -0.1527
15627W        W31436   9.493  12.243   4.968 -0.1145 -0.0265  0.0649
15628W        W31437   9.790   2.162  14.457 -0.2246 -0.1614  0.3643
15629W        W31438  13.691  17.510   5.065  0.3899 -0.2479 -0.2641
15630W        W31439  12.716   7.113   2.468 -0.2954 -0.4078 -0.2139
15631W        W31440  13.933   9.395   3.139 -0.1005  0.0802  0.0972
15632W        W31441   5.082   8.031  13.323 -0.2967 -0.1027 -0.1174
15633W        W31442   7.653   8.021  10.780  0.1374 -0.1278  0.1795
15634W        W31443  13.122   4.730  12.276  0.2279 -0.0408 -0.1283
15635W        W31444  15.718  12.206   2.904  0.4354  0.1512  0.0180
15636W        W31445   1.342  10.212   4.638 -0.0189  0.0697  0.1646
15637W        W31446  15.078  13.470  14.605  0.1624 -0.2820 -0.2179
15638W        W31447  14.855  15.649   2.178  0.2387  0.2023  0.0039
15639W        W31448   7.035   8.695  13.533  0.2186 -0.3601 -0.0205
15640W        W31449  15.467   2.923   4.306  0.3220 -0.2795  0.0778
15641W        W31450   1.118   8.946  11.434 -0.2781  0.1206 -0.1191
15642W        W31451  17.543  12.931  14.904  0.4467 -0.1173  0.2232
15643W        W31452  14.517   5.557   3.968 -0.0707 -0.2353  0.3687
15644W        W31453   0.346  14.646  12.776 -0.1945  0.0191 -0.2605
15645W        W31454   3.983  17.027  14.414 -0.1248 -0.0822  0.3107
15646W        W31455  13.014   5.997  13.805 -0.0582  0.1527 -0.1755
15647W        W31456   6.778   3.281   2.658 -0.2692 -0.0491  0.0946
15648W        W31457   7.786   8.543  12.125  0.1212  0.0834 -0.3154
15649W        W31458   2.139   1.780   0.735  0.0708 -0.2425 -0.0577
15650W        W31459   7.132  15.060   0.459  0.1388  0.2438 -0.3060
15651W        W31460  15.408  15.966  11.976  0.2252  0.1024  0.1340
15652W        W31461   7.470   2.480  10.845  0.0117 -0.1108 -0.1993
15653W        W31462   3.772  11.870  15.420  0.2166 -0.0839 -0.0762
15654W        W31463   7.349   0.942   1.533  0.0177 -0.0767  0.0555
15655W        W31464   1.777  18.161   0.993  0.1846 -0.0086  0.1610
15656W        W31465  10.241  12.418   5.247 -0.0733 -0.1289  0.2875
15657W        W31466  11.444   5.285  10.211 -0.0388 -0.2021  0.0642
15658W        W31467  16.847  12.698  14.191  0.1148 -0.0171  0.0182
15659W        W31468  13.443  14.339  15.114 -0.0730 -0.1486 -0.1331
15660W        W31469  16.625  11.497   0.094 -0.0072 -0.1116 -0.0122
15661W        W31470  18.352   8.986   0.386 -0.1337 -0.1606  0.1871
15662W        W31471  17.321   2.753  14.065 -0.2390  0.1711  0.1562
15663W        W31472   3.534  11.732  10.750  0.1924  0.0210 -0.0491
15664W        W31473   6.823   7.157  13.906 -0.2667 -0.2848  0.1420
15665W        W31474  15.802  10.623   2.398 -0.0119  0.1475  0.0075
15666W        W31475  18.618  14.072   1.615  0.0845 -0.0348 -0.1480
15667W        W31476   5.160   9.233   1.251 -0.2728 -0.0771 -0.2413
15668W        W31477  13.125  17.104   0.730  0.0404 -0.0102  0.2876
15669W        W31478  13.852   5.260   3.260  0.0753  0.1731  0.0397
15670W        W31479   5.856   1.981  14.858 -0.0592  0.0848  0.0767
15671W        W31480  18.236   2.921  14.244 -0.1316 -0.1178  0.2610
15672W        W31481   5.476  18.581   3.416 -0.0144 -0.0134  0.0836
15673W        W31482  16.638   9.862   1.509 -0.2245  0.2017 -0.1877
15674W        W31483   8.800  17.642   0.259  0.2767 -0.3194 -0.3016
15675W        W31484   4.892  14.921  14.430 -0.1312  0.0105  0.0056
15676W        W31485   2.951   4.448   9.418 -0.2968 -0.1401  0.4367
15677W        W31486  11.490  12.441   1.316 -0.0253 -0.1479 -0.0133
15678W        W31487  18.664  10.657   1.739 -0.2689 -0.1322 -0.1704
15679W        W31488   2.500   4.958   3.323  0.1376 -0.1244  0.1999
15680W        W31489  18.413   6.654  14.945  0.1396  0.1276  0.0275
15681W        W31490  10.851  16.885  12.769 -0.1222 -0.1338  0.1542
15682W        W31491   9.367   2.809   1.837  0.1588  0.0125  0.1078
15683W        W31492   9.626   7.987   3.843 -0.0233  0.0264  0.1176
15684W        W31493  16.490   0.363   4.235  0.3165 -0.0656  0.0134
15685W        W31494  17.641   2.880  12.160  0.1189  0.3217 -0.2210
15686W        W31495   7.716  15.342   2.573  0.0896  0.1089 -0.1230
15687W        W31496  13.123   4.357  13.166  0.0313 -0.2159 -0.3522
15688W        W31497  17.818   9.792  13.879 -0.0249  0.4417 -0.1386
15689W        W31498  10.368   6.262   2.946  0.4904 -0.2128  0.2116
15690W        W31499  17.514   6.611  13.681 -0.0771  0.1086 -0.1027
15691W        W31500  15.041  13.018  13.592  0.1011 -0.1256  0.0285
15692W        W31501   5.279  18.583  13.594 -0.2665 -0.2060  0.1786
15693W        W31502  17.245   6.379   1.671 -0.0332 -0.4306 -0.2484
15694W        W31503   2.874  11.941  15.367  0.1527 -0.1046  0.3483
15695W        W31504   9.014   9.184   0.497 -0.3859  0.1558 -0.0982
15696W        W31505   1.551  11.746  10.837  0.0298 -0.0018 -0.2200
15697W        W31506   6.302  13.438   1.809 -0.1096 -0.0253 -0.0356
15698W        W31507   2.222  17.458  14.545  0.2137  0.0744 -0.0537
15699W        W31508   9.005   0.899   5.561 -0.0706 -0.0328  0.1722
15700W        W31509   5.380   8.117   0.070 -0.0323 -0.1705  0.1496
15701W        W31510   6.759  15.682   3.251 -0.2574 -0.0440 -0.1556
15702W        W31511   7.178   8.826   4.836 -0.0686 -0.1278 -0.2615
15703W        W31512  10.877  18.622  11.290 -0.1711 -0.0945 -0.1091
15704W        W31513   0.609   0.515  13.235 -0.1167  0.3062  0.1436
15705W        W31514   1.771   1.724  12.047 -0.0079 -0.0283 -0.0866
15706W        W31515  11.056   3.259  14.738  0.0068  0.0115 -0.0305
15707W        W31516  12.143   8.491   5.643  0.4474  0.2995 -0.1034
15708W        W31517   6.202   9.774   0.467 -0.1279 -0.1345  0.0116
15709W        W31518   0.667   8.842  11.352  0.0204  0.0065 -0.1078
15710W        W31519  12.554   2.362   6.621  0.1422  0.0709  0.0643
15711W        W31520   2.265   1.242   0.582  0.0377 -0.5599  0.0494
15712W        W31521   2.460   5.239   4.142 -0.3802  0.0585  0.0143
15713W        W31522  11.857   3.668   0.553 -0.0881  0.1277  0.1808
15714W        W31523   6.482   1.808   0.080 -0.1213  0.0588  0.2397
15715W        W31524  16.119   5.408   9.307  0.1500 -0.1459  0.4525
15716W        W31525   3.149  17.496   2.388  0.1772  0.2528 -0.0572
15717W        W31526  15.680  18.162   4.749  0.1551 -0.2328 -0.1574
15718W        W31527   8.921  13.031  15.049 -0.0508  0.2140  0.0256
15719W        W31528   8.971   7.511   0.755  0.1636  0.0031 -0.0133
15720W        W31529   3.279   4.721   0.202  0.0737 -0.3701  0.1428
15721W        W31530  17.917   6.674  12.277 -0.2948  0.1366  0.0994
15722W        W31531   4.980   7.074   3.321  0.0661  0.1267  0.0291
15723W        W31532  10.683   4.768  12.179 -0.1006  0.0596 -0.0833
15724W        W31533   0.095  12.867  11.915  0.0074  0.0311  0.3321
15725W        W31534   9.496  11.589  14.231 -0.0499 -0.0005  0.2089
15726W        W31535   1.407  17.801  15.110  0.1409  0.0787  0.1009
15727W        W31536  13.509   3.149  12.546  0.0596  0.2184  0.0829
15728W        W31537  14.164  16.700   5.277  0.2648  0.2642  0.0828
15729W        W31538  10.955  11.659   3.398 -0.0109 -0.0446 -0.0210
15730W        W31539  12.460   8.834   0.052 -0.1688  0.1458 -0.1478
15731W        W31540  16.933   0.991   2.822 -0.0362 -0.0515  0.0141
15732W        W31541   2.701   6.725  14.964  0.1321 -0.1019  0.0670
15733W        W31542   2.168   5.132  12.217 -0.0062  0.2733 -0.0913
15734W        W31543   6.373   1.425   3.126 -0.0955  0.0945 -0.1882
15735W        W31544  17.844  18.452  11.292 -0.1894 -0.2001 -0.2516
15736W        W31545  11.040  18.073   3.587  0.0799  0.3658  0.0615
15737W        W31546   4.558  16.898  14.441 -0.4455 -0.3558  0.0601
15738W        W31547  11.266  10.790  11.250  0.0575  0.3054 -0.1881
15739W        W31548  15.157  15.767  14.797  0.0652 -0.1703  0.0061
15740W        W31549  17.056  15.059   4.683 -0.0341 -0.0082  0.1111
15741W        W31550   6.247  14.503  11.160  0.1779  0.3611  0.3147
15742W        W31551   3.462   0.109  13.343 -0.3738 -0.0794  0.0588
15743W        W31552  14.871   1.709   4.726 -0.1672  0.3004 -0.0483
15744W        W31553  14.001   9.076  11.636 -0.2294 -0.0587  0.0085
15745W        W31554  11.188  13.874   6.214  0.2773 -0.0718 -0.2606
15746W        W31555  15.918   1.954   3.366  0.2409 -0.0546  0.1078
15747W        W31556   7.562   1.799   3.561 -0.1849 -0.0665  0.0553
15748W        W31557   0.243  17.033  12.864 -0.0457 -0.0447  0.3771
15749W        W31558   8.533   7.796   3.233  0.1206  0.3386 -0.3336
15750W        W31559   9.245  17.296  14.586  0.0857  0.1576  0.1736
15751W        W31560   5.182   9.941  13.302  0.0903 -0.2005 -0.0780
15752W        W31561  14.758  15.275   2.908  0.2916  0.2351 -0.1398
15753W        W31562  11.782   2.612   3.156 -0.0054  0.2233  0.0482
15754W        W31563   7.849  16.369   5.926 -0.0512  0.1708 -0.2799
15755W        W31564  13.803  13.682  11.679  0.1321 -0.1063  0.3624
15756W        W31565   2.081   3.945   2.404 -0.1328 -0.1199 -0.0297
15757W        W31566   9.493  14.221  11.855  0.0875 -0.0930  0.3901
15758W        W31567  11.110  15.853   0.006 -0.0018  0.2155  0.0810
15759W        W31568   1.153   1.962   6.082 -0.1370 -0.0214 -0.0049
15760W        W31569   5.443   8.701  12.045 -0.2125  0.3738  0.1301
15761W        W31570   2.366   5.802   5.053  0.0192 -0.1131  0.0665
15762W        W31571   0.650  13.020   4.550 -0.2308 -0.2519  0.0281
15763W        W31572  18.291  13.090   3.161 -0.2651 -0.2053  0.0104
15764W        W31573  12.916   2.558   5.688 -0.2094  0.2020  0.4072
15765W        W31574  18.057  16.530  11.955 -0.2674 -0.0103 -0.1714
15766W        W31575   6.574   2.499  14.031  0.0964 -0.0314  0.2364
15767W        W31576  13.612  10.360  13.030 -0.2264  0.1526 -0.2088
15768W        W31577   1.674   9.072  13.344  0.2482  0.3251 -0.0623
15769W        W31578   4.560   1.459   0.831 -0.1698 -0.0040 -0.0374
15770W        W31579  12.253  16.885   1.876 -0.1116  0.0695  0.0541
15771W        W31580  16.446  15.209   4.482 -0.3350 -0.2909  0.0335
15772W        W31581  18.157   3.694   4.237  0.0894  0.1539 -0.0514
15773W        W31582  14.847   0.614  10.910  0.1844  0.5027 -0.1184
15774W        W31583   6.965   6.703  14.213  0.0823  0.0224 -0.0747
15775W        W31584   0.590   0.668   2.859  0.0702  0.2627  0.0233
15776W        W31585  12.041   1.178  11.905  0.1933 -0.2288  0.3001
15777W        W31586   3.769  18.489  11.438  0.1042 -0.3438 -0.1001
15778W        W31587  17.081   3.512  12.734 -0.2562  0.1182 -0.4571
15779W        W31588  12.121  17.017  14.203  0.0850  0.0548  0.0335
15780W        W31589   1.171   2.952   9.939  0.0084 -0.1577 -0.2630
15781W        W31590  13.032   7.405   1.145  0.0280 -0.1837  0.0835
15782W        W31591  12.629  11.729   3.075  0.2809  0.0462 -0.0454
15783W        W31592  11.410   9.873   5.583 -0.1864 -0.1088 -0.1375
15784W        W31593   0.165  13.476  14.555 -0.0326 -0.2636 -0.1326
15785W        W31594  12.788   3.943  15.024 -0.1854  0.1287 -0.1189
15786W        W31595  12.236  18.075   2.532 -0.0918  0.0423  0.2293
15787W        W31596  14.379   6.366  12.836 -0.6101 -0.1859 -0.0604
15788W        W31597   3.017  16.993   4.188 -0.2049  0.0500 -0.1389
15789W        W31598  10.839   5.041  15.507  0.0731 -0.1547 -0.0910
15790W        W31599  10.171  18.287  12.282  0.0965 -0.0669  0.0590
15791W        W31600   1.505   2.953  13.881  0.1668 -0.1318  0.1007
15792W        W31601   5.615  18.373  11.177 -0.3177  0.1649 -0.2525
15793W        W31602  13.966   1.913   1.390 -0.3372  0.3008 -0.1140
15794W        W31603   5.667   6.541   2.989  0.2579 -0.3808  0.0447
15795W        W31604  15.272   9.727  11.218 -0.0506  0.1914  0.0778
15796W        W31605   8.905   2.534   4.707 -0.0491 -0.3186  0.1422
15797W        W31606   9.502   4.874   0.213  0.1308  0.1426  0.1982
15798W        W31607  17.744   4.299   3.300  0.1142 -0.4839 -0.0560
15799W        W31608   2.544   6.114   3.344 -0.0805 -0.0358  0.3582
15800W        W31609  15.643  13.139   1.040 -0.0180  0.1089 -0.1015
15801W        W31610  18.617   3.513  13.228 -0.2244  0.5047  0.1298
15802W        W31611   1.951   7.074   2.777  0.3923  0.2563 -0.0027
15803W        W31612  15.345   4.012   3.985  0.1323 -0.1460 -0.0376
15804W        W31613  14.084   2.107  15.132 -0.5134  0.0286  0.1556
15805W        W31614  13.141   3.889   3.125  0.3319 -0.1813  0.4728
15806W        W31615   8.128   0.320  12.691  0.0932  0.2042  0.0756
15807W        W31616   3.339  11.626  15.336 -0.1969  0.1510  0.0960
15808W        W31617  12.426   0.364   2.958 -0.0900 -0.0182  0.0442
15809W        W31618   9.150   8.113  14.743 -0.1298 -0.2231  0.2033
15810W        W31619  16.523   7.635  12.934  0.0483 -0.0960  0.0622
15811W        W31620   6.455  14.101   2.961  0.1330 -0.1020  0.0823
15812W        W31621  14.030  12.237   5.155  0.1347 -0.0221  0.0342
15813W        W31622   9.511  13.719   2.005  0.0779 -0.2065 -0.1501
15814W        W31623  16.094   6.655  12.008 -0.0208  0.0994 -0.0457
15815W        W31624  14.593   5.333   9.721 -0.1954  0.0492  0.0744
15816W        W31625  11.223   1.726  13.149  0.1587 -0.0075 -0.0112
15817W        W31626   0.110   4.177   0.318 -0.0714 -0.2734  0.0497
15818W        W31627   2.309  14.869   4.586  0.1022 -0.3145 -0.2265
15819W        W31628   6.128  13.146   0.279  0.4257 -0.4420 -0.1145
15820W        W31629   8.792  17.874  13.892  0.2094  0.1557  0.2664
15821W        W31630  16.787  18.346  11.937 -0.1354 -0.0518  0.0998
15822W        W31631   3.461  10.455  10.406  0.0602 -0.0534 -0.1247
15823W        W31632   7.727  16.072   5.447  0.0474  0.2095  0.0707
15824W        W31633  17.342  13.348   2.972 -0.1129  0.1021 -0.2034
15825W        W31634  17.841  14.926  12.133  0.0261  0.1303  0.2267
15826W        W31635   0.312  17.455   1.178 -0.1414 -0.2108  0.1961
15827W        W31636  17.200  18.454   1.718 -0.2735 -0.0799 -0.1820
15828W        W31637   9.577  16.537   1.933  0.0189  0.0578  0.0491
15829W        W31638  10.271  10.648  14.171 -0.0017 -0.0069 -0.0314
15830W        W31639   1.894  16.207  13.996  0.4288  0.0987 -0.0965
15831W        W31640  10.250  10.377   0.752 -0.0460  0.1487 -0.0183
15832W        W31641   0.092  17.064   5.460 -0.1966 -0.1429  0.2677
15833W        W31642  14.441  12.018   4.943 -0.0562 -0.2631  0.3858
15834W        W31643   6.958  11.124   2.720  0.1048 -0.0983  0.2510
15835W        W31644   8.484   6.490   2.260 -0.1721  0.4762 -0.0763
15836W        W31645  15.097   8.772   4.199 -0.0931  0.1113 -0.2108
15837W        W31646  14.246  11.438   3.193  0.1047 -0.2618  0.0859
15838W        W31647  15.716  17.294   5.748 -0.0879  0.1881 -0.1621
15839W        W31648  18.607   3.623   4.587 -0.1810  0.0373  0.0396
15840W        W31649  10.778   7.812   1.757 -0.1155 -0.0288 -0.0142
15841W        W31650  16.989   6.582  10.497  0.1777 -0.1541  0.1847
15842W        W31651   5.219  11.827  14.675  0.0420  0.1564  0.1591
15843W        W31652  17.928  18.203   1.043  0.1488  0.1442  0.1763
15844W        W31653   0.561   9.231  10.891 -0.1465  0.2812 -0.1987
15845W        W31654  15.563  15.457  13.022 -0.0546  0.1730  0.0001
15846W        W31655   7.273   3.120  11.545  0.3240 -0.2090  0.0407
15847W        W31656  13.759   5.088   4.499  0.3338 -0.2532  0.0413
15848W        W31657  11.273   6.514  14.179  0.0642  0.1210 -0.1135
15849W        W31658  10.440   4.279  14.394 -0.0988 -0.0102  0.1237
15850W        W31659   2.756   0.735  10.478  0.1366 -0.0679 -0.0772
15851W        W31660  12.423  18.506   1.265  0.0535 -0.1446  0.2557
15852W        W31661  12.819  11.004  13.975 -0.1195  0.0652  0.1163
15853W        W31662  13.227  18.606  12.015 -0.0837  0.0680  0.3006
15854W        W31663   5.723   3.073  13.106  0.4339 -0.2654  0.0936
15855W        W31664  12.905  10.949   3.122 -0.1236  0.0389  0.0224
15856W        W31665  10.591   1.929   4.175 -0.2339 -0.2175  0.0190
15857W        W31666  16.036   1.150   0.165 -0.1796 -0.0454  0.1259
15858W        W31667  15.338   9.465  12.409  0.1306 -0.0754 -0.1790
15859W        W31668  15.747  16.403  10.856 -0.0658 -0.3486  0.3843
15860W        W31669  14.399  11.028  14.914  0.0530  0.0314 -0.0133
15861W        W31670   0.741   3.014   2.524  0.3274 -0.0146 -0.2103
15862W        W31671   9.584  16.747   0.427 -0.0131  0.1095  0.0201
15863W        W31672   2.997   9.422  13.403 -0.0609  0.0846 -0.0250
15864W        W31673  14.618   0.348  12.331 -0.0932  0.2608 -0.1597
15865W        W31674  15.339   4.109  12.203 -0.0320 -0.2800  0.4277
15866W        W31675  16.348  14.563  12.206 -0.1065 -0.1542  0.1176
15867W        W31676   3.473   0.632  13.124 -0.1529 -0.0416  0.0575
15868W        W31677  14.351  10.802   2.067  0.2547  0.0607 -0.0577
15869W        W31678  17.549   3.861   2.464 -0.0906 -0.1764 -0.1623
15870W        W31679   8.362   9.087   1.790  0.5461  0.0256 -0.2616
15871W        W31680  10.379  18.522   2.866 -0.1956  0.0393  0.3338
15872W        W31681   5.592  13.278  10.980 -0.2140 -0.0088  0.0555
15873W        W31682   1.515   6.907  13.480  0.0549  0.0310 -0.0736
15874W        W31683  10.315  15.420  14.183  0.0839 -0.1479  0.0771
15875W        W31684   3.846   4.634  11.847 -0.0969  0.0091 -0.1359
15876W        W31685  18.445   7.887  10.439 -0.0573  0.0516 -0.0501
15877W        W31686   0.818  10.689   3.816 -0.6286  0.1072  0.0721
15878W        W31687  18.556  10.601   3.662  0.1988 -0.0200 -0.0849
15879W        W31688   6.777  17.869  14.940 -0.0993 -0.0913  0.3273
15880W        W31689   5.265  16.418  11.106  0.2806  0.1524 -0.0969
15881W        W31690  18.369   1.518  11.013 -0.0245  0.0680  0.2537
15882W        W31691  17.025   6.493   4.438 -0.1991  0.1004  0.0029
15883W        W31692  17.376  13.669  13.820  0.2130  0.0184 -0.2407
15884W        W31693  14.314   4.986   0.277  0.2527  0.2091  0.1867
15885W        W31694   0.581   9.907  12.241  0.0444  0.1970  0.0619
15886W        W31695   6.532   9.524   1.728 -0.3023 -0.2333  0.3421
15887W        W31696   8.860   9.373   1.971  0.1549 -0.1477  0.0574
15888W        W31697   7.511  16.951   1.643  0.0263 -0.0102 -0.0073
15889W        W31698  16.409  17.420   3.677 -0.1115  0.3251 -0.2067
15890W        W31699  13.583   8.872   0.994 -0.2573 -0.2438 -0.0665
15891W        W31700   8.183   3.042   3.327  0.2656  0.2013 -0.0813
15892W        W31701  15.012   3.049  11.767 -0.1592  0.0672  0.0945
15893W        W31702  14.392   9.534   2.033 -0.1590 -0.3241 -0.1681
15894W        W31703   2.205   7.535  10.655  0.0795  0.1384  0.1373
15895W        W31704   8.405  16.269   5.897 -0.2991  0.2233 -0.4047
15896W        W31705  11.340  10.874  14.242  0.3820 -0.2961  0.1243
15897W        W31706   9.953   8.178  14.260  0.0141  0.3585 -0.0271
15898W        W31707  12.048   0.157  15.246  0.2395  0.2443  0.0995
15899W        W31708   5.884   9.585   4.159 -0.1090 -0.0349 -0.3030
15900W        W31709   5.773  12.146  12.907 -0.0025  0.0483 -0.2761
15901W        W31710  16.477  14.643  12.650  0.2818 -0.1063 -0.0484
15902W        W31711  14.837  13.383  11.792  0.2392  0.1940  0.1177
15903W        W31712  12.328  17.339   0.976 -0.3087 -0.0599  0.0588
15904W        W31713  14.880  13.728  12.167 -0.2354 -0.1063  0.2282
15905W        W31714  17.048   7.453  12.891  0.1355 -0.0246 -0.0251
15906W        W31715   5.835   6.597   4.404 -0.0995  0.2863  0.0542
15907W        W31716  12.905   1.029   5.697 -0.2285  0.0167 -0.0905
15908W        W31717   7.094  13.190  15.108 -0.3907  0.0677  0.2613
15909W        W31718   5.043  17.373   0.021 -0.5804 -0.0829 -0.0734
15910W        W31719   8.978  10.111   2.471  0.1601 -0.2279 -0.0297
15911W        W31720   3.088   5.099   1.416 -0.2101  0.3104  0.3169
15912W        W31721  10.447  11.071  13.373  0.0358 -0.1926  0.0586
15913W        W31722   1.654   3.143  12.481  0.3590 -0.2071 -0.2741
15914W        W31723   0.714   9.749   2.424 -0.1620  0.1007 -0.0535
15915W        W31724   0.669  13.571   4.065  0.0433  0.0901  0.0151
15916W        W31725  11.960   3.838   6.064 -0.1820 -0.0283 -0.2121
15917W        W31726   4.282   2.951   3.233  0.2821 -0.0653 -0.3691
15918W        W31727  12.113   9.186  14.725 -0.0510  0.1878 -0.1209
15919W        W31728  12.650  12.667  11.165  0.0168  0.0674 -0.0425
15920W        W31729  10.787  12.628   3.987 -0.1832 -0.0912 -0.2491
15921W        W31730   7.738  11.181   3.133  0.0703 -0.1535  0.0617
15922W        W31731  16.105  10.058  11.667  0.1088 -0.0173  0.0805
15923W        W31732  13.860  14.122  14.259  0.0196 -0.1186  0.1803
15924W        W31733   3.643   8.365  12.467  0.3715  0.2946  0.1387
15925W        W31734   9.601  10.544  14.367 -0.1392  0.0240  0.0279
15926W        W31735  12.374  11.103   3.063 -0.1010  0.2475 -0.0256
15927W        W31736   8.620   4.925   1.661 -0.1370  0.3428 -0.2689
15928W        W31737  11.485  18.200  13.832 -0.1912  0.2020  0.0895
15929W        W31738   8.276   3.565   4.176  0.0354  0.1566  0.2070
15930W        W31739   0.962   0.517  13.726 -0.0587 -0.1127 -0.1560
15931W        W31740   2.934   7.301   3.535  0.0046 -0.0631  0.0467
15932W        W31741  14.583  16.228   3.995  0.5248  0.0250  0.1527
15933W        W31742   5.587  17.702  10.478 -0.0849  0.2679  0.3248
15934W        W31743   8.013   6.496  10.595 -0.0492 -0.2171  0.1703
15935W        W31744   6.182   9.293   0.287  0.0866 -0.1987  0.2157
15936W        W31745  18.637  16.409   3.327  0.2248  0.1110  0.3240
15937W        W31746   4.781  18.206   3.797  0.1284 -0.0709  0.0990
15938W        W31747   3.857  10.803   3.630  0.0755 -0.3389 -0.2368
15939W        W31748  17.840   7.060  11.372 -0.1887  0.1226 -0.4353
15940W        W31749  10.151  16.804  10.875  0.2783  0.0701  0.0174
15941W        W31750   3.988   7.080  14.705 -0.1114 -0.1430 -0.2060
15942W        W31751   8.360  10.150   3.605 -0.1911 -0.0440  0.0160
15943W        W31752  13.042   7.106  13.089  0.1357 -0.0197  0.2846
15944W        W31753  10.761  10.725  13.277  0.0654 -0.1797 -0.1127
15945W        W31754  12.516   9.771   4.076 -0.2437 -0.0071 -0.1926
15946W        W31755   1.989   8.188  11.200  0.1876  0.0123 -0.1294
15947W        W31756  13.118  15.970   2.697  0.0866  0.0165  0.0931
15948W        W31757  12.128  15.159   2.722 -0.2622 -0.0045 -0.2237
15949W        W31758   3.879  15.609  10.416  0.2044  0.0610  0.1759
15950W        W31759  16.043   8.962  13.765  0.1407  0.1328 -0.2657
15951W        W31760  14.441  10.806  12.026 -0.0028  0.0457 -0.3587
15952W        W31761  12.097  10.379  10.210  0.0833  0.0224  0.0286
15953W        W31762  12.376   9.290  13.180  0.0429 -0.2560  0.1097
15954W        W31763  13.325   9.312   1.211 -0.0322  0.0108 -0.1231
15955W        W31764  16.295  15.511   0.061  0.1092  0.0945 -0.0854
15956W        W31765  13.643   1.842  14.462  0.0628 -0.1479 -0.1490
15957W        W31766   3.352  13.667  13.561  0.1852 -0.1174  0.0598
15958W        W31767  16.988   6.813   1.819 -0.1466  0.1559  0.1576
15959W        W31768  10.992  17.157   5.539  0.1361  0.3679 -0.0539
15960W        W31769  11.072  15.369  14.460  0.1563  0.4488  0.3869
15961W        W31770   2.699  15.035   2.939  0.1563  0.0500  0.2799
15962W        W31771  12.302  11.712   4.664  0.0950 -0.1061 -0.1243
15963W        W31772   4.252   7.823  14.606  0.5578  0.0399  0.0649
15964W        W31773  17.695   5.888  12.518 -0.2665 -0.1017 -0.0347
15965W        W31774   9.770  11.055   3.770 -0.1446  0.0035 -0.0161
15966W        W31775   8.848  12.410   1.716  0.1019 -0.4469 -0.2551
15967W        W31776   2.074  17.634  12.409 -0.0089 -0.1801  0.0924
15968W        W31777  10.231   9.817   2.494  0.0348  0.1132 -0.1316
15969W        W31778   1.703  10.599   1.805  0.1812  0.2446 -0.0130
15970W        W31779  11.166  18.467   4.781  0.1281  0.0340 -0.3253
15971W        W31780  18.366  13.271   1.644 -0.0582  0.3819  0.1736
15972W        W31781  16.407  18.087   1.689  0.0859  0.2761 -0.1639
15973W        W31782   7.259  18.405  13.967  0.0527 -0.0122  0.4047
15974W        W31783  15.985   4.172   1.164 -0.0663 -0.1387 -0.1376
15975W        W31784   6.316  14.881   3.301  0.3129  0.3839 -0.1266
15976W        W31785  14.767   1.641  12.558  0.0079  0.0407  0.2871
15977W        W31786   5.720  14.594   4.244  0.0742  0.0639  0.0376
15978W        W31787   1.987  14.686   0.029  0.3611  0.1649 -0.1024
15979W        W31788   8.780  10.643  13.476 -0.0224  0.0985  0.0791
15980W        W31789   6.678   2.314   0.271  0.1003  0.2768 -0.0829
15981W        W31790   3.974   9.542   3.890 -0.0160 -0.5023 -0.0631
15982W        W31791   7.884   9.330   5.035 -0.2045 -0.0647  0.0366
15983W        W31792   3.004  15.423  12.393  0.1935 -0.2958  0.0657
15984W        W31793   2.638   9.950   4.440 -0.2029 -0.4273  0.1698
15985W        W31794  15.358  16.706   1.918 -0.1886  0.1831 -0.0659
15986W        W31795   4.066   5.480   4.087  0.1517  0.0787 -0.0984
15987W        W31796  12.350  16.695   0.316 -0.0368  0.0167 -0.5491
15988W        W31797   0.428  10.873  14.810 -0.1323  0.3752  0.1416
15989W        W31798   0.933   3.305   1.963  0.1128  0.3486  0.0077
15990W        W31799  17.280   7.716  13.310  0.0919 -0.1536  0.2702
15991W        W31800   7.022   4.443  14.356 -0.4222 -0.0138 -0.0850
15992W        W31801   6.580   5.127  14.474  0.3451 -0.1483  0.0736
15993W        W31802   7.526   0.870   4.378 -0.0366  0.1028  0.1621
15994W        W31803  15.584  18.019   1.376 -0.1981  0.0856  0.0617
15995W        W31804  18.311   5.691   1.278 -0.0581 -0.1402 -0.0793
15996W        W31805   8.188  11.946  11.120  0.1543  0.3909 -0.1877
15997W        W31806   4.199  11.985   5.000  0.0653  0.0466  0.1895
15998W        W31807  12.971   1.704  13.495 -0.0905 -0.0762 -0.0330
15999W        W31808   7.770  17.682  15.442  0.0033  0.0224  0.0696
16000W        W31809   9.112   1.716   4.427  0.1742 -0.1575 -0.0613
16001W        W31810  13.655   9.941   5.432 -0.0074  0.0162 -0.0312
16002W        W31811  16.477   8.508   1.049  0.1148  0.4656 -0.0158
16003W        W31812  11.402   3.861   4.764  0.0304 -0.2283 -0.1425
16004W        W31813  12.899   3.611   0.936 -0.1202  0.2474 -0.0275
16005W        W31814  10.769   7.561   5.558 -0.0403  0.2439 -0.1330
16006W        W31815  13.624   7.937   2.592  0.1295 -0.0480  0.0505
16007W        W31816  14.942  11.564  13.024  0.0827  0.0031 -0.2105
16008W        W31817   9.952  11.371  11.971  0.0683  0.1526 -0.0072
16009W        W31818   2.873  14.942  15.439 -0.1014 -0.0228  0.1073
16010W        W31819   0.313   5.262  14.380  0.4268 -0.3702 -0.1208
16011W        W31820  17.177  10.231   3.982  0.1328 -0.3090 -0.0717
16012W        W31821  10.222   1.741  11.410 -0.0319  0.0887 -0.1426
16013W        W31822  10.242  14.224   2.599  0.0601  0.0062  0.3098
16014W        W31823  18.027  16.576  15.235 -0.3240  0.1617  0.0043
16015W        W31824   7.155  14.825  15.613  0.4480  0.1360 -0.5572
16016W        W31825  14.739   4.990  11.080 -0.0582  0.0789 -0.0680
16017W        W31826  16.423   0.309   2.703 -0.1047  0.0501 -0.1222
16018W        W31827  10.182   8.573   5.988  0.2271 -0.0381 -0.1661
16019W        W31828  14.159  15.143   2.413  0.4492 -0.0320  0.6117
16020W        W31829   1.775  12.025   0.529 -0.2193 -0.2295  0.4439
16021W        W31830   3.874   3.506   4.431 -0.0375  0.0507  0.0164
16022W        W31831  14.898  14.974   0.335 -0.0245  0.1912 -0.1828
16023W        W31832   1.700  11.537  15.157 -0.3034  0.1189  0.1939
16024W        W31833  11.371  17.586   0.717 -0.0306 -0.1831 -0.1617
16025W        W31834  17.271   2.550   4.900  0.0006  0.0491 -0.1500
16026W        W31835   8.417   6.008   4.943  0.1188 -0.0186 -0.2560
16027W        W31836  10.044   6.807  13.986 -0.0182  0.0118  0.3854
16028W        W31837   7.677   8.083   2.667  0.0791  0.1751 -0.2438
16029W        W31838   3.962   4.800  11.065 -0.2858  0.1872 -0.1108
16030W        W31839  15.461   8.017   0.389 -0.0790  0.1335 -0.0724
16031W        W31840  12.426  18.442  14.529  0.0354  0.3360 -0.1683
16032W        W31841   8.712  14.268  10.884  0.0994  0.0265  0.2652
16033W        W31842   2.961  13.848   3.637  0.0728 -0.2428 -0.2114
16034W        W31843   9.656  15.303  11.034  0.0555  0.4810 -0.0351
16035W        W31844   0.570  16.211  13.159 -0.0677  0.1303 -0.4577
16036W        W31845   6.731   2.826   0.054 -0.1130 -0.2683  0.1800
16037W        W31846   9.842   8.324  13.538  0.2125  0.0314  0.0488
16038W        W31847   2.359  16.969   5.301 -0.2207 -0.4023  0.1046
16039W        W31848   1.769   3.080  14.730  0.0113  0.2551 -0.3524
16040W        W31849   9.802   0.407   5.000  0.0055 -0.1777 -0.3206
16041W        W31850  13.953  17.149  11.023  0.1412 -0.0950  0.2130
16042W        W31851  13.546  16.996  12.452 -0.1166 -0.0108  0.0430
16043W        W31852   3.589   5.678  15.059 -0.4053  0.0264  0.1763
16044W        W31853   7.307   1.537  15.491  0.1211  0.1345 -0.1524
16045W        W31854   7.170   6.512  15.493  0.0948 -0.1560 -0.0844
16046W        W31855  13.182  18.288   2.619  0.3138 -0.2388 -0.2850
16047W        W31856   3.021   6.844   1.147  0.3322 -0.0216  0.0834
16048W        W31857   8.502  10.795  15.256 -0.2339  0.0316  0.0044
16049W        W31858  16.782   2.757   0.498 -0.1782 -0.2118 -0.0203
16050W        W31859  13.924   8.787   2.316  0.0199  0.2292 -0.0732
16051W        W31860   8.612  14.085   5.609  0.0446 -0.0264  0.2298
16052W        W31861   1.450  18.068   5.625 -0.1840  0.0355  0.0536
16053W        W31862   8.373   0.340   3.454 -0.0850 -0.2353 -0.3480
16054W        W31863  10.574  15.225  13.282 -0.0366  0.1164  0.2243
16055W        W31864   3.709   5.352  12.442 -0.1971  0.0605 -0.1932
16056W        W31865  10.933   0.510  12.466 -0.3885  0.0230  0.2761
16057W        W31866  10.226  13.255  14.726  0.1003 -0.0235 -0.3515
16058W        W31867   1.233  13.607  14.051  0.1267 -0.1131 -0.3148
16059W        W31868  17.759  10.853   3.471 -0.4215 -0.0511 -0.0219
16060W        W31869   3.298  12.524   1.649  0.1011  0.0290 -0.0971
16061W        W31870   5.752   9.314   1.451  0.1271  0.2068  0.0988
16062W        W31871  11.293  17.027  11.974  0.2050  0.1355 -0.0159
16063W        W31872   9.666   6.301  15.229 -0.0837 -0.3280 -0.5466
16064W        W31873   8.151   9.797  12.275 -0.0006  0.0322 -0.0094
16065W        W31874   8.511  14.818  13.192 -0.4124 -0.1583 -0.0871
16066W        W31875  16.244   1.264   5.669  0.0251 -0.2222 -0.1439
16067W        W31876   8.522  15.663   0.474  0.2661 -0.1287 -0.1961
16068W        W31877   7.109  14.774   2.270  0.0193 -0.0566  0.2295
16069W        W31878  16.534   9.084  13.591 -0.1058  0.2883 -0.1780
16070W        W31879   9.842  16.802   5.292 -0.2334 -0.3715 -0.1663
16071W        W31880  12.460  10.403  12.260  0.0524  0.2726  0.1675
16072W        W31881  16.871   7.910  12.698  0.0475  0.0980 -0.4289
16073W        W31882   4.856   0.272   5.934 -0.0127 -0.0384  0.1182
16074W        W31883  17.408  10.458  12.232 -0.0999  0.0440 -0.2763
16075W        W31884  10.284  14.417   3.559 -0.2847  0.0916 -0.3863
16076W        W31885  15.642   6.422  15.301 -0.0831 -0.3913  0.5007
16077W        W31886   2.698  17.509   4.106  0.2330  0.1927  0.2269
16078W        W31887  11.571   7.466   3.606 -0.1312  0.0073  0.2421
16079W        W31888   0.060  15.420  12.674 -0.1114 -0.2185  0.2664
16080W        W31889   5.363  12.622  14.246  0.1810 -0.2827 -0.1389
16081W        W31890   4.701   1.505  14.560  0.0004 -0.3218  0.0517
16082W        W31891   1.256  11.895  10.351 -0.0480  0.4187  0.0180
16083W        W31892  15.028   1.651  13.071  0.0276 -0.0247 -0.2251
16084W        W31893   0.737  16.998  11.935  0.0844  0.3024  0.0023
16085W        W31894  13.821   6.428   0.708 -0.1966 -0.2458 -0.2068
16086W        W31895  12.956   9.985   2.365  0.1554  0.0065  0.1898
16087W        W31896   8.999   0.822   5.000 -0.0123 -0.1629  0.1205
16088W        W31897   8.259   2.223  10.616 -0.0948 -0.5940 -0.0690
16089W        W31898   5.235   2.822   4.883  0.0974  0.2727  0.3309
16090W        W31899  15.675  13.492  11.567  0.4009 -0.0183  0.0961
16091W        W31900   8.165   2.041  14.862  0.2710 -0.3827 -0.3132
16092W        W31901  11.617  12.067  14.898 -0.0874  0.0044 -0.2152
16093W        W31902   5.073  13.225   1.795  0.3450  0.1054 -0.0222
16094W        W31903  10.882   4.277   3.958  0.0267 -0.0764  0.1423
16095W        W31904   2.900   2.897  11.386  0.1757 -0.1421  0.0651
16096W        W31905  13.879  13.102   5.785 -0.1158  0.0300  0.2268
16097W        W31906  14.185   5.138  13.379  0.2167  0.3706  0.0749
16098W        W31907  12.861   1.388  11.454  0.1643  0.1637  0.1479
16099W        W31908   0.832  18.207  11.223  0.1546  0.4198 -0.2937
16100W        W31909   9.709  10.839  13.436 -0.1176 -0.0617 -0.1227
16101W        W31910  13.742   3.096   0.789  0.0471 -0.0724 -0.1602
16102W        W31911  11.691   5.271  15.083  0.0859 -0.0273 -0.4188
16103W        W31912  16.481   2.334   1.023  0.3574  0.0166 -0.1671
16104W        W31913  14.144   3.883  13.579 -0.2340 -0.1625 -0.0840
16105W        W31914  14.124  17.056   4.891  0.1323 -0.1906 -0.4302
16106W        W31915  12.454   0.941  12.208 -0.1499  0.2652 -0.0170
16107W        W31916  14.960  15.880   0.923  0.1504  0.2734 -0.2473
16108W        W31917   8.005  14.962   1.200 -0.1093 -0.2846  0.2523
16109W        W31918  13.066  18.208  12.280  0.0245  0.2454  0.3832
16110W        W31919   1.785  11.558   2.113 -0.0573 -0.0093 -0.0805
16111W        W31920   7.093  12.676  12.479 -0.2466 -0.2893 -0.1214
16112W        W31921  15.933   9.032  15.241  0.1652 -0.1432  0.0193
16113W        W31922  11.379  16.817   0.708  0.1719  0.0241  0.3161
16114W        W31923   5.132   3.714  11.750  0.1100  0.0019  0.0190
16115W        W31924  18.047   6.605  10.594  0.0095  0.1295  0.2855
16116W        W31925   1.248   1.739   0.089 -0.5800 -0.1880 -0.4775
16117W        W31926  16.318  18.386   5.705  0.2413 -0.3115  0.3173
16118W        W31927   8.609  10.605   1.800 -0.2631 -0.2193 -0.1538
16119W        W31928   2.766   2.586   3.311 -0.3105 -0.0671 -0.1219
16120W        W31929   2.366  18.126  13.702 -0.2027  0.0898  0.0921
16121W        W31930   1.703  15.972   4.179 -0.2980 -0.0225  0.5664
16122W        W31931   6.919  14.733   5.611  0.0591 -0.0846 -0.2282
16123W        W31932  11.579   1.842   2.248  0.1550 -0.1026 -0.0064
16124W        W31933   7.349   9.964  10.183 -0.0120 -0.0465 -0.2378
16125W        W31934  13.695   2.856   1.762  0.0112  0.1709 -0.0482
16126W        W31935   2.846  15.070   9.849 -0.0877  0.2698 -0.0010
16127W        W31936  13.062  16.063   5.091 -0.2467 -0.2611  0.1232
16128W        W31937  14.612   6.689  15.274 -0.1220  0.0181  0.1980
16129W        W31938   1.946   4.010  12.457 -0.1719 -0.1489 -0.1522
16130W        W31939   6.656  16.480   4.030 -0.1535 -0.4326 -0.0989
16131W        W31940  11.869   8.937   4.940  0.0331 -0.0374  0.1811
16132W        W31941   7.218   0.213  13.893 -0.1643 -0.0236 -0.1873
16133W        W31942   7.750  14.532  14.837 -0.2081 -0.2896 -0.0363
16134W        W31943   8.906   8.926   4.148  0.0289 -0.1079 -0.3977
16135W        W31944   5.249   8.715   9.768 -0.0938 -0.1584  0.1492
16136W        W31945   9.471  17.493   5.016 -0.0452  0.2037  0.0688
16137W        W31946   4.087  16.313  11.329 -0.1274 -0.3931 -0.1152
16138W        W31947  17.169   2.873  11.344 -0.0028 -0.0733  0.0018
16139W        W31948  10.544  13.840   2.227  0.0495 -0.0613  0.1274
16140W        W31949   0.484  11.113   1.575 -0.0901  0.1635 -0.3017
16141W        W31950   6.299   5.231   4.666 -0.1651  0.1687 -0.4226
16142W        W31951  11.330   9.541  12.730 -0.2409  0.0576  0.0547
16143W        W31952   1.046   3.469   5.123  0.0483 -0.3323  0.1653
16144W        W31953  18.146  14.642  14.212  0.2475  0.1974  0.0570
16145W        W31954  10.476  16.594  14.162 -0.0480  0.1398 -0.0373
16146W        W31955  16.419  14.177   1.722 -0.0661 -0.0405 -0.2074
16147W        W31956  12.961  13.554   5.930  0.2187 -0.1171  0.3393
16148W        W31957  16.457   2.753  10.812  0.0896  0.2407  0.0778
16149W        W31958   3.546   3.985   1.549  0.1123  0.4069  0.0334
16150W        W31959  15.305  17.019   1.068  0.1845 -0.1830  0.0305
16151W        W31960  11.999  14.473   5.550 -0.0231 -0.4514  0.1383
16152W        W31961  12.729  11.829  10.840  0.0113 -0.0126  0.4709
16153W        W31962   0.779  12.265   2.104 -0.0393  0.0837 -0.5251
16154W        W31963   9.868  15.644  15.166 -0.2378 -0.0707  0.0750
16155W        W31964  10.362  12.079  11.399 -0.4501  0.0434  0.1476
16156W        W31965   3.915  11.332  12.308  0.0120 -0.0934 -0.3161
16157W        W31966   3.252  13.764  14.266  0.0001 -0.0025  0.1189
16158W        W31967   7.911   6.734  12.792 -0.3631  0.0361 -0.0773
16159W        W31968   2.448   4.618  14.737  0.1239  0.0963 -0.0807
16160W        W31969  16.996  13.671  11.975 -0.0065 -0.2301  0.1022
16161W        W31970   2.244  10.038  10.621  0.0352 -0.1627  0.1531
16162W        W31971   1.785   1.962   2.088 -0.1282  0.2019  0.0764
16163W        W31972  15.570  15.711  15.119 -0.0572  0.0241 -0.1002
16164W        W31973  10.936  14.665  12.733  0.1331 -0.1768  0.0041
16165W        W31974  17.482  17.495   2.929 -0.0095 -0.2381  0.3781
16166W        W31975  16.353   1.547  13.983 -0.2726  0.0448  0.1631
16167W        W31976  16.776   3.224  12.388  0.0223  0.0368 -0.0389
16168W        W31977  16.355   4.261  12.885  0.1783 -0.3591  0.2521
16169W        W31978   2.539  11.294   4.576  0.0128  0.0695 -0.2307
16170W        W31979  16.502  14.806   5.286  0.2296  0.0811  0.1443
16171W        W31980  10.308   1.990   0.731 -0.1083  0.0146 -0.1773
16172W        W31981  17.620  16.643   0.707  0.0152 -0.2915  0.0429
16173W        W31982   4.282   0.115   4.014 -0.1455 -0.2262 -0.3335
16174W        W31983   6.194  10.277   5.246 -0.0839  0.2398 -0.1353
16175W        W31984   4.239  12.430  10.520  0.1661 -0.1131  0.1954
16176W        W31985   4.965  14.887   5.125 -0.3946  0.1556  0.2020
16177W        W31986   0.654   7.976  14.236  0.2357 -0.4937  0.2439
16178W        W31987  13.366   8.277   4.489  0.1179  0.1744 -0.2201
16179W        W31988  18.307   1.512   5.483  0.4932  0.2304  0.2039
16180W        W31989   3.944  17.981   3.355  0.1054 -0.0373 -0.1255
16181W        W31990  17.548   5.146   2.882 -0.2598  0.1413 -0.3534
16182W        W31991  12.617  15.204  14.280 -0.1445  0.2578 -0.2752
16183W        W31992  13.067  15.334  12.298 -0.1015 -0.2073  0.3737
16184W        W31993   6.867   5.124   2.830 -0.1469  0.2009 -0.1817
16185W        W31994   4.324   5.216  11.144 -0.1678  0.2750  0.1313
16186W        W31995  10.223   4.365  11.956  0.1908  0.0145 -0.2618
16187W        W31996  10.590   2.819   2.285 -0.2650  0.0558 -0.1389
16188W        W31997   9.517  11.121  14.459  0.2411 -0.2553 -0.0122
16189W        W31998   0.497   6.513  14.932 -0.0187 -0.0886  0.2515
16190W        W31999   7.869   8.261  11.225 -0.0467 -0.1728  0.1715
16191W        W32000   6.178   7.302   2.642 -0.1581 -0.2534 -0.0707
16192W        W32001   5.728   3.594  13.013  0.1218  0.0790 -0.2631
16193W        W32002  12.275   4.601  14.768  0.0348 -0.0166  0.4158
16194W        W32003   6.891   0.511   4.014  0.2087  0.0036  0.0334
16195W        W32004  15.990  10.546  11.806  0.2131  0.2046 -0.0592
16196W        W32005   2.379   6.326   4.657  0.0255 -0.2667  0.0533
16197W        W32006  12.474  13.968  11.333  0.1027 -0.0441 -0.0416
16198W        W32007  14.121   6.918  10.720  0.0474  0.2765  0.1115
16199W        W32008  16.234  16.705  14.911  0.1782  0.1621 -0.2367
16200W        W32009  10.192   0.607   0.138  0.1145  0.0703 -0.2668
16201W        W32010   9.365  17.707   5.487  0.3105  0.2618  0.5088
16202W        W32011  11.043   1.727   3.452 -0.0507  0.2732 -0.0980
16203W        W32012  18.184  14.752  11.778  0.1128  0.2014  0.1129
16204W        W32013   6.973   0.007  13.523  0.3072  0.1795 -0.1086
16205W        W32014   6.194  17.403   4.877  0.0261  0.1689 -0.0154
16206W        W32015   5.017  16.239   4.126 -0.0310  0.1685  0.1718
16207W        W32016  10.103   5.115   1.001  0.0787  0.1443  0.1022
16208W        W32017   4.627   6.373  12.815 -0.1948  0.1833  0.2471
16209W        W32018   7.369   3.849  11.099 -0.1394  0.1181  0.0196
16210W        W32019  18.579   6.779  13.603 -0.3082 -0.3431 -0.3969
16211W        W32020  16.588   9.550   4.389 -0.0979  0.0588 -0.0140
16212W        W32021   3.851   1.826   2.488 -0.0453  0.1114  0.3328
16213W        W32022  18.214   4.205   3.455 -0.1063  0.3248  0.5217
16214W        W32023   2.367   6.968  14.608  0.0168  0.3188 -0.0581
16215W        W32024  11.777   8.944   1.522 -0.1447  0.1653  0.1386
16216W        W32025   0.081   6.580   4.604  0.0022  0.1115  0.1294
16217W        W32026   9.373   6.377   4.958 -0.2432 -0.2413  0.0310
16218W        W32027  17.383  14.139   2.827 -0.0636  0.2469  0.0687
16219W        W32028   1.793  11.129   3.930  0.2567  0.0703  0.0881
16220W        W32029  13.298   1.668  13.131 -0.1225  0.0327 -0.2018
16221W        W32030   7.100  16.018  11.960  0.0804 -0.1517 -0.2182
16222W        W32031  15.065  13.761  12.612 -0.0906 -0.1939  0.0623
16223W        W32032   8.063   1.643   4.258  0.3053 -0.4233 -0.0474
16224W        W32033  10.554   8.645   3.549 -0.1908  0.1455 -0.0492
16225W        W32034   2.867  18.514   3.878 -0.1875 -0.2444 -0.1515
16226W        W32035   0.488  12.343  12.746  0.1219  0.0811  0.1384
16227W        W32036   2.561  13.333   5.307  0.1683  0.2012  0.2942
16228W        W32037  16.190  12.148  13.434  0.0891  0.0195 -0.1976
16229W        W32038  12.645   4.131  10.577 -0.0182  0.1909 -0.1377
16230W        W32039  10.525   4.674   0.206 -0.3760 -0.0681  0.1496
16231W        W32040  17.482  15.834  14.279 -0.2868  0.1208  0.0363
16232W        W32041  16.878   7.156   0.172  0.1249  0.0120  0.0556
16233W        W32042  12.540  13.118  11.379 -0.1099 -0.3955  0.0303
16234W        W32043  16.680   1.475   5.345 -0.2100 -0.0073 -0.2265
16235W        W32044   2.331  18.553   4.610 -0.0332 -0.0699  0.0450
16236W        W32045   7.180   0.683   1.120  0.1550 -0.2457  0.0500
16237W        W32046   0.885  15.640  10.789 -0.1257 -0.1607 -0.0828
16238W        W32047  15.207  12.383   1.729  0.0758  0.0774 -0.1142
16239W        W32048  14.185  15.317   1.414 -0.0631 -0.2679 -0.1798
16240W        W32049   5.347  14.703  12.698 -0.2296 -0.0848  0.0573
16241W        W32050   6.800  18.191   2.691  0.3176 -0.1574  0.2478
16242W        W32051  15.130  10.490  11.702 -0.1380 -0.1852  0.1145
16243W        W32052   5.985   1.300  13.130  0.0343 -0.0254 -0.0715
16244W        W32053   3.524  14.802   1.387 -0.3145  0.2384  0.1462
16245W        W32054  13.020   7.203   3.357  0.0022  0.2230  0.1249
16246W        W32055  14.805  11.177   4.044  0.1492 -0.2856  0.2923
16247W        W32056   4.539   1.848   4.172 -0.0851  0.1599 -0.0189
16248W        W32057  16.124  17.990   0.700  0.0279 -0.1568 -0.2875
16249W        W32058   6.177   6.499   4.002  0.0771  0.0749  0.1840
16250W        W32059  14.424  16.824  12.904 -0.0775  0.0779  0.1340
16251W        W32060   4.652   7.702  11.999  0.0546  0.1578 -0.0629
16252W        W32061  11.235   5.247  15.209 -0.3821  0.2689 -0.1697
16253W        W32062   0.994  10.409  10.475  0.0488  0.0895  0.2971
16254W        W32063  10.409   8.519  12.487 -0.1353 -0.3301 -0.2967
16255W        W32064   1.799  13.547   1.288  0.0264  0.0275  0.0893
16256W        W32065   2.688  11.563   1.893  0.2883  0.3149 -0.2761
16257W        W32066  15.854   2.493   0.297  0.0537 -0.3363 -0.0834
16258W        W32067   1.702  11.128   1.900 -0.0198  0.1391 -0.1528
16259W        W32068  12.769   7.592   2.574  0.0428 -0.3176  0.0057
16260W        W32069  11.195   1.518   2.131 -0.1099 -0.1755 -0.0438
16261W        W32070  17.739  16.457  13.653 -0.0334  0.0005  0.1447
16262W        W32071  12.131   7.130   0.211 -0.2608  0.0083  0.2359
16263W        W32072  11.262   6.171  13.306  0.3434  0.0927 -0.1255
16264W        W32073   8.079   8.337  13.281 -0.0350  0.2120  0.1226
16265W        W32074   9.155   1.102   0.107 -0.2256  0.3461  0.0292
16266W        W32075  14.165  16.420   4.770 -0.3669 -0.0052 -0.2315
16267W        W32076   7.406  13.675  10.116  0.3628 -0.0011 -0.4133
16268W        W32077  16.208   6.538   3.723  0.0100 -0.2118 -0.2405
16269W        W32078   2.063  11.897  15.140 -0.1457 -0.2727 -0.2786
16270W        W32079   2.582  11.364  13.242  0.3618  0.2151  0.0727
16271W        W32080   0.415   9.487  14.777  0.0092  0.0999  0.3225
16272W        W32081   0.202   8.051   2.612  0.1355  0.0705  0.0257
16273W        W32082  14.085  12.921   2.688  0.1831  0.0062  0.1744
16274W        W32083   5.389  13.226  12.826 -0.0830  0.0261  0.0025
16275W        W32084   2.521  18.125  10.467  0.2612 -0.0360  0.0382
16276W        W32085   4.079   8.676   0.327  0.2368 -0.1913  0.2388
16277W        W32086   6.663   2.400  10.313  0.0762  0.1841  0.0672
16278W        W32087   3.745   4.202   0.312  0.1197 -0.2606 -0.2609
16279W        W32088  11.727   1.502   2.974 -0.1985 -0.1320  0.0250
16280W        W32089  18.654   1.563  15.261 -0.0079 -0.2057  0.0660
16281W        W32090  16.163  12.538   4.566  0.1970  0.1349  0.2178
16282W        W32091  10.474  17.140  13.026 -0.1136 -0.2663 -0.2574
16283W        W32092  14.375   0.762   0.937 -0.2007 -0.1012 -0.1508
16284W        W32093  13.569   8.051  13.318 -0.0874  0.1177 -0.1054
16285W        W32094  11.998   4.521  15.508 -0.1901  0.0739  0.1773
16286W        W32095  15.368  15.446  14.337  0.2026  0.2799 -0.0365
16287W        W32096   2.501   7.532   0.100  0.0313  0.1106  0.0281
16288W        W32097   5.682   7.912   4.357  0.1072 -0.1272 -0.0640
16289W        W32098  13.922  12.439   3.419 -0.2746  0.4909 -0.0146
16290W        W32099   6.946   3.919  14.907 -0.3195  0.1065  0.0220
16291W        W32100  12.348   8.999  15.137 -0.1939 -0.0357  0.0820
16292W        W32101  13.014   0.391  13.045  0.2291 -0.2221 -0.3405
16293W        W32102   5.564  15.146   4.470  0.1051  0.0972  0.0370
16294W        W32103  17.237   5.896  13.910 -0.4221  0.1265 -0.2330
16295W        W32104   1.032   7.910   1.180 -0.1395 -0.0910  0.1297
16296W        W32105   5.201  18.469   5.027  0.1383  0.1194  0.3295
16297W        W32106  11.087   3.795   1.016 -0.2188  0.0646  0.3206
16298W        W32107   6.813  16.502   0.847  0.0415  0.2099 -0.2813
16299W        W32108   5.669   1.163  14.284  0.1183  0.1558 -0.1567
16300W        W32109   2.239   1.550  12.194 -0.0233  0.0001  0.1599
16301W        W32110  12.679   2.139   4.040 -0.2193  0.0655  0.1434
16302W        W32111   9.808  10.925   5.163  0.0409 -0.0908 -0.0886
16303W        W32112   1.487   6.254  11.593  0.0574 -0.0718  0.2144
16304W        W32113   5.663  18.652   1.590  0.0489  0.1521 -0.2335
16305W        W32114   0.479   4.133  11.610  0.3016 -0.1381 -0.0451
16306W        W32115  14.793   0.234  11.541  0.1629  0.0463  0.0451
16307W        W32116  15.015   5.056  13.704  0.1219 -0.0358  0.0183
16308W        W32117   3.114  11.570   2.719 -0.0896  0.2385 -0.0650
16309W        W32118  15.679   4.283   0.785 -0.0797  0.2127  0.0633
16310W        W32119   9.405   8.734  15.329 -0.0745 -0.0263  0.0375
16311W        W32120   6.384  13.165  13.115 -0.0287 -0.1298 -0.0663
16312W        W32121  18.371   7.053   9.334  0.1695  0.2256  0.0429
16313W        W32122   8.060   8.131   2.311 -0.0258 -0.0274 -0.2140
16314W        W32123   3.168  15.189  10.765 -0.0203 -0.2553  0.4607
16315W        W32124  10.587   9.354   1.911  0.0971 -0.3680  0.5187
16316W        W32125   4.391  14.345   2.328  0.2494 -0.0978  0.0781
16317W        W32126  12.568   3.956   0.905  0.0578  0.0086 -0.0521
16318W        W32127  14.910  11.919   5.355 -0.1406 -0.1500 -0.1116
16319W        W32128  11.183   0.964   2.582 -0.0658  0.0115  0.1358
16320W        W32129   2.055   5.155   3.375  0.2459 -0.2097 -0.0469
16321W        W32130  10.691  11.234   3.131 -0.0928 -0.1693  0.1370
16322W        W32131   6.181   5.891   2.027  0.0458 -0.0281 -0.3375
16323W        W32132   6.201   7.907   4.238  0.4078 -0.2503 -0.2322
16324W        W32133   2.349   9.799  14.582 -0.0199  0.0065  0.3292
16325W        W32134  16.854   9.230  13.128  0.1918  0.1407  0.1803
16326W        W32135  14.000   1.716   5.913  0.0946 -0.0177 -0.2261
16327W        W32136   5.979   1.580  12.504  0.2016 -0.1053  0.0719
16328W        W32137  13.567  16.874  10.887  0.0072  0.2316 -0.1594
16329W        W32138   2.423   3.763  11.485 -0.2469 -0.1592 -0.1937
16330W        W32139   2.613  10.911   5.198  0.1979  0.1113 -0.0619
16331W        W32140  12.148  17.245  13.572  0.0847 -0.1318 -0.1839
16332W        W32141  18.045  18.531  14.415  0.2435 -0.0389 -0.1540
16333W        W32142   7.725  15.566   4.111  0.0847 -0.0476  0.1493
16334W        W32143  15.391  12.799  12.162 -0.0118  0.0312 -0.2945
16335W        W32144  13.729   3.505   1.110  0.1808  0.2147 -0.0953
16336W        W32145  15.014   6.679   4.757  0.2267  0.0737  0.0798
16337W        W32146   1.804  16.171   1.016 -0.0911  0.0101  0.1431
16338W        W32147   4.339  13.120   4.550 -0.1435 -0.0374  0.5007
16339W        W32148   1.941  10.905   2.826  0.0838 -0.0038  0.2479
16340W        W32149   1.654  14.309   3.366 -0.0621 -0.1388  0.1655
16341W        W32150  15.810   4.923  15.124  0.0707  0.0000 -0.1167
16342W        W32151  15.688   8.389  11.385  0.0246 -0.1323 -0.1707
16343W        W32152   5.493   1.781  11.442 -0.2197  0.1696  0.0501
16344W        W32153   9.146   9.382   4.089  0.0806  0.1635 -0.0404
16345W        W32154   1.295   2.842   3.983 -0.1346  0.2972 -0.2455
16346W        W32155  11.947  10.229   5.075  0.1705 -0.1457 -0.0382
16347W        W32156   5.817  12.998   2.270 -0.0426  0.2213 -0.0010
16348W        W32157   2.434   1.915   1.371  0.1337  0.2309  0.2526
16349W        W32158   5.805   7.462   4.072  0.1376  0.2734 -0.2670
16350W        W32159  18.236  17.580  14.626 -0.1793  0.0025 -0.1871
16351W        W32160   7.539  17.345   0.693  0.4453  0.0672 -0.0559
16352W        W32161  15.477  14.714  15.075 -0.0000  0.0548  0.1567
16353W        W32162  11.664  13.291  14.143 -0.0906 -0.2837 -0.2024
16354W        W32163   1.305  17.267  10.430  0.0423 -0.0771 -0.0093
16355W        W32164   7.203   8.918   4.295  0.2487 -0.3039 -0.1351
16356W        W32165   2.292   3.509   4.641 -0.1597 -0.0842 -0.2375
16357W        W32166   9.824  13.325  11.574 -0.1018 -0.0071 -0.0352
16358W        W32167   7.922  16.043   1.784  0.0673  0.1826 -0.0222
16359W        W32168   1.450   8.541  11.682 -0.1027  0.0505  0.0304
16360W        W32169   7.996  15.143  13.240 -0.0617  0.0384 -0.1338
16361W        W32170   7.891  18.280   4.954  0.3954  0.0799  0.1960
16362W        W32171   9.961   2.347   1.863 -0.0742 -0.0502  0.1193
16363W        W32172  16.340   6.368  12.403  0.2314 -0.4472  0.2851
16364W        W32173  12.239   5.922  12.261  0.1945  0.2387  0.2388
16365W        W32174  12.612   7.035  15.359  0.1434 -0.1442  0.1645
16366W        W32175  17.811  11.348  11.468 -0.1449  0.0861  0.4166
16367W        W32176   8.658  11.520  11.696 -0.0880  0.3316 -0.1888
16368W        W32177   9.311   1.401   5.650 -0.1408  0.2172 -0.0700
16369W        W32178   1.867   7.879   0.687 -0.0589 -0.0783  0.0629
16370W        W32179  10.199   6.569  10.018  0.4270 -0.0274 -0.2909
16371W        W32180   0.715   4.240   9.053 -0.0753  0.0773 -0.0300
16372W        W32181  10.527  14.262  13.354  0.1110  0.0250  0.1134
16373W        W32182  13.170   0.323   3.611  0.3355 -0.0750  0.3137
16374W        W32183  16.965   9.970   9.291 -0.0213 -0.2314  0.3067
16375W        W32184   2.039   9.459  14.666 -0.1862 -0.2410  0.0814
16376W        W32185   9.058   0.608   1.854 -0.0530 -0.2146  0.1430
16377W        W32186   0.806  17.145   0.416  0.2723  0.2071  0.2026
16378W        W32187   4.198   4.024  15.449  0.0223  0.1537  0.0463
16379W        W32188  14.342  14.605   4.155  0.1418  0.2730 -0.0545
16380W        W32189   3.742   3.216   1.400 -0.2473  0.0931 -0.4025
16381W        W32190   9.199   4.356  13.155 -0.3897 -0.0217  0.0785
16382W        W32191   2.459   6.631   1.053 -0.0596  0.0726 -0.0029
16383W        W32192   3.352  10.848   0.708 -0.2691  0.3409  0.1985
16384W        W32193  12.754  15.838   0.217  0.0579  0.0861 -0.2947
16385W        W32194  12.932   0.980  12.985  0.0516  0.1542  0.0556
16386W        W32195   3.531   8.344   2.389 -0.2515 -0.2164  0.0706
16387W        W32196   6.490   0.326   2.184 -0.0478  0.0661 -0.1049
16388W        W32197  17.536  15.755  10.518 -0.1569  0.3785  0.0616
16389W        W32198   9.808  18.002   3.023 -0.1604 -0.0669  0.0913
16390W        W32199   5.223  17.841  14.577  0.0791 -0.0528 -0.0657
16391W        W32200  15.058   6.480   1.533  0.0303  0.1238 -0.1047
16392W        W32201   8.501   5.655  13.945 -0.0545  0.0455 -0.2639
16393W        W32202  17.277  17.307  14.130 -0.0811 -0.0338 -0.1383
16394W        W32203   0.483  17.140  12.371 -0.1447  0.3073 -0.0860
16395W        W32204   5.835   8.369  11.187  0.3903 -0.0474  0.0920
16396W        W32205   4.050  17.395   1.326 -0.0673 -0.1366 -0.0383
16397W        W32206  15.882   6.083  11.137 -0.0416  0.0118 -0.0356
16398W        W32207  13.571  10.148   5.011  0.1264  0.1430 -0.1701
16399W        W32208  13.294   5.273   6.226  0.3851 -0.0717  0.1510
16400W        W32209  11.090  15.919  13.840  0.0560  0.0065  0.1025
16401W        W32210  14.013  16.726   2.395 -0.2424 -0.0696 -0.0147
16402W        W32211  11.046  13.620   2.939 -0.0484  0.0520  0.1868
16403W        W32212   8.092   6.280   3.043 -0.0574  0.5130  0.0217
16404W        W32213   9.993  11.209  13.694 -0.2210  0.0253  0.0661
16405W        W32214   1.489   1.473  15.229 -0.1686  0.2614 -0.0004
16406W        W32215   6.224  10.481  12.670 -0.3463 -0.0970  0.1159
16407W        W32216   4.763  17.666   1.409 -0.0394  0.1216  0.0810
16408W        W32217   8.063  10.997  15.261  0.1053  0.1480 -0.1448
16409W        W32218  18.066   8.333   4.399 -0.0664 -0.0066 -0.0626
16410W        W32219  10.113   5.462   4.845 -0.0980 -0.1991  0.0686
16411W        W32220  14.187   9.497  11.021 -0.2505  0.2211 -0.4485
16412W        W32221   0.376   3.434  14.524 -0.3437 -0.2352  0.0377
16413W        W32222   4.923   1.405   3.000 -0.2785 -0.1575 -0.2457
16414W        W32223   4.345  18.163  12.381  0.0618 -0.0927 -0.1084
16415W        W32224  13.810   3.192   4.920 -0.2174 -0.5067 -0.0067
16416W        W32225  18.264   0.928   0.334  0.0600 -0.1469 -0.1805
16417W        W32226   4.546   8.838  11.009 -0.1844  0.2813  0.1887
16418W        W32227   4.662   0.835   3.490 -0.0281  0.3298  0.2327
16419W        W32228   6.939   5.367  13.168 -0.1379  0.0077  0.0517
16420W        W32229  10.049   4.437   3.923  0.3548  0.2551 -0.3249
16421W        W32230   7.760  12.495  15.335 -0.0161  0.5007  0.0149
16422W        W32231  16.828  14.357   9.789  0.1363  0.3419  0.2887
16423W        W32232   0.471   3.457   0.708 -0.0423  0.2405 -0.1547
16424W        W32233   0.977  15.723  14.595  0.1142 -0.1967 -0.3010
16425W        W32234   1.678   3.546  11.135  0.1086 -0.0660 -0.0696
16426W        W32235   9.513  11.941  12.522  0.1573 -0.0399 -0.1554
16427W        W32236  14.469  13.664   5.287  0.1681  0.1994  0.0095
16428W        W32237   8.171  16.719   2.401 -0.3147 -0.1381 -0.4205
16429W        W32238  12.014   6.469  10.992 -0.0140  0.0295 -0.0006
16430W        W32239   9.891   6.845   2.450  0.0347 -0.1806  0.0023
16431W        W32240  11.066   5.049   2.501  0.0713 -0.0334 -0.0317
16432W        W32241   9.258   0.802  12.963 -0.0209  0.4705  0.0722
16433W        W32242  11.686  11.980  11.020 -0.1321 -0.1661  0.2332
16434W        W32243   4.177   8.858   4.683  0.0255 -0.0446 -0.1231
16435W        W32244   7.971  11.709  13.954 -0.1106  0.1608  0.1727
16436W        W32245  11.762  11.115  14.572 -0.4783 -0.1097 -0.0563
16437W        W32246  12.444  10.193  14.450  0.3792  0.0071 -0.0654
16438W        W32247  13.110   2.709   4.589 -0.0223  0.1678  0.1557
16439W        W32248  12.410   9.848  13.451 -0.2864  0.6659 -0.0167
16440W        W32249  16.339  10.808  11.502 -0.3138  0.1292 -0.4827
16441W        W32250  15.278   1.418  14.753  0.0013  0.1404 -0.0411
16442W        W32251  16.161   8.721  14.380  0.1175 -0.0657 -0.0478
16443W        W32252   2.148  14.359  12.529  0.0387  0.3332 -0.2318
16444W        W32253  13.421   6.980   2.872 -0.0879  0.0770 -0.4286
16445W        W32254  10.027  15.424  11.415  0.0690 -0.3354 -0.1148
16446W        W32255   8.416   4.015  14.324 -0.0186 -0.0923  0.0138
16447W        W32256   8.152  13.499  13.211 -0.2563  0.0826 -0.0593
16448W        W32257   9.718  15.661  11.845 -0.1267  0.1228 -0.1294
16449W        W32258   5.529   9.712   2.230 -0.1729 -0.1252 -0.0911
16450W        W32259   1.946   1.181  10.738  0.0215  0.1575 -0.0869
16451W        W32260   5.046   4.380  11.629  0.0577  0.2066  0.1376
16452W        W32261  13.142  18.575  13.186  0.1411 -0.0636 -0.0086
16453W        W32262   2.004  12.754   0.780 -0.0841 -0.2046 -0.1466
16454W        W32263   3.359  13.707   3.047  0.2296 -0.0813  0.0948
16455W        W32264   2.478  12.258  11.148 -0.3247 -0.2924 -0.2718
16456W        W32265   1.675  17.696   2.683 -0.1783 -0.1087  0.1839
16457W        W32266  11.369   4.721   2.928  0.0261  0.1857  0.1654
16458W        W32267   3.044   7.515   4.235 -0.1591 -0.1143 -0.0052
16459W        W32268   3.929  13.308  12.046 -0.2946  0.0997  0.0555
16460W        W32269  10.618   2.334   0.289 -0.1117 -0.2598  0.0499
16461W        W32270   2.868  16.806  12.201  0.2302  0.0987 -0.0165
16462W        W32271  17.499  13.439   0.434 -0.0329 -0.0049 -0.2749
16463W        W32272   4.413   4.021   3.492  0.1537  0.0596  0.2772
16464W        W32273  15.296   2.991  14.117 -0.0497 -0.0811 -0.1682
16465W        W32274   3.006   4.707   1.682  0.0328  0.2388 -0.1119
16466W        W32275   3.868  11.405  11.816 -0.1523  0.1224  0.1584
16467W        W32276  12.030  18.194  12.388 -0.1796  0.0877  0.3753
16468W        W32277  17.899   3.901  12.470 -0.0545 -0.0014 -0.1539
16469W        W32278  10.710   7.105  11.844  0.2642  0.1970 -0.0316
16470W        W32279   3.970   5.543   0.952 -0.1961  0.1105 -0.1915
16471W        W32280   2.748  10.926  10.845  0.1588 -0.3883 -0.0822
16472W        W32281   4.107   8.739  12.564 -0.2965 -0.1346  0.3381
16473W        W32282   0.233  16.526  11.442 -0.2578 -0.1914 -0.1309
16474W        W32283   5.967   5.252   2.642 -0.1292 -0.1352 -0.1337
16475W        W32284  12.510  13.635   0.331  0.3397  0.0080  0.2607
16476W        W32285   4.051  14.991  13.136 -0.2269 -0.0109 -0.0617
16477W        W32286   4.162   1.803   4.793 -0.1747  0.0231  0.1504
16478W        W32287   9.279   3.520  13.456  0.1407  0.0905 -0.0755
16479W        W32288   0.045   0.879  14.353 -0.4046 -0.0666  0.0008
16480W        W32289   7.514   3.750  13.405 -0.1059 -0.1063  0.2517
16481W        W32290  14.632   7.675  10.597  0.1877 -0.0404 -0.1093
16482W        W32291  15.891   7.544   1.760 -0.0523 -0.0052 -0.2359
16483W        W32292  10.414  13.846   0.705  0.0442 -0.0898 -0.0381
16484W        W32293   1.323   9.290   4.699 -0.2514  0.2030  0.1301
16485W        W32294   2.428  11.066   4.129 -0.0290 -0.0304  0.1668
16486W        W32295   1.195  16.929   3.559 -0.1900 -0.1491 -0.1262
16487W        W32296  14.759  17.939  15.115 -0.1524 -0.1126  0.1362
16488W        W32297   1.622   8.997   3.428 -0.1132  0.0694 -0.0843
16489W        W32298  12.136  14.147   4.779  0.2547 -0.0911  0.0144
16490W        W32299  11.853  11.307  12.234 -0.1943 -0.0923 -0.0826
16491W        W32300   0.238   3.331  11.255 -0.1167  0.1948 -0.0970
16492W        W32301   0.501   6.159   1.897 -0.2103  0.1011 -0.3714
16493W        W32302   0.909   5.769  14.466  0.1034  0.4616 -0.1027
16494W        W32303  16.229   0.630  12.073  0.0716  0.3812 -0.1360
16495W        W32304  17.314   8.998  12.772  0.0185  0.0134  0.1064
16496W        W32305   8.956   8.451  14.334 -0.3416 -0.1587  0.0963
16497W        W32306  12.144   8.016  13.252  0.0293 -0.0241  0.1463
16498W        W32307   1.589  15.133   3.894  0.4086  0.0569  0.1009
16499W        W32308  13.075   7.562  14.688  0.1870 -0.1803  0.0877
16500W        W32309  12.290  18.541   2.474  0.0425  0.0275 -0.2840
16501W        W32310   7.410   4.675   0.454 -0.2236  0.2038 -0.2247
16502W        W32311   1.446   8.544   1.963  0.0333  0.1208 -0.0926
16503W        W32312   3.717  10.911   2.752 -0.0197  0.1248  0.0161
16504W        W32313   0.711  10.663   5.619 -0.0049  0.2878  0.0548
16505W        W32314  12.150  16.739   2.770  0.0230  0.1187  0.1931
16506W        W32315   0.320   3.016   0.258 -0.0711  0.2852 -0.1291
16507W        W32316  16.217  12.067   2.263 -0.1320  0.0140  0.0535
16508W        W32317  17.472  13.309   3.897 -0.0772  0.1935  0.0753
16509W        W32318  12.504  14.519  15.030  0.0129  0.0045 -0.1191
16510W        W32319   1.656  17.953   4.595  0.0302 -0.1174  0.0908
16511W        W32320   8.044  12.921  13.041 -0.3498 -0.1242 -0.0485
16512W        W32321  14.051  11.556   4.409 -0.1308 -0.2033 -0.1166
16513W        W32322   5.107   0.282  11.191 -0.1273  0.1128  0.1935
16514W        W32323  12.487   3.292  14.300  0.0050 -0.0182 -0.0178
16515W        W32324  12.427   0.147   2.056  0.0186 -0.1904  0.1693
16516W        W32325   2.905   1.685   0.372  0.0309 -0.0135  0.1802
16517W        W32326  10.273  16.020  13.099  0.1321  0.1272  0.2188
16518W        W32327   7.328   0.331  11.832  0.0461  0.0216 -0.1137
16519W        W32328  17.208   0.848   3.771  0.0099  0.2673  0.2799
16520W        W32329   3.700  13.662  12.440 -0.3124 -0.2204  0.1667
16521W        W32330   7.065  18.169   4.208  0.1786 -0.4459 -0.0357
16522W        W32331   3.926   0.545   0.702  0.0665  0.0612 -0.1428
16523W        W32332   3.753   1.895   1.122 -0.0490  0.3804 -0.0934
16524W        W32333   0.590   9.096  12.804 -0.0732  0.0392  0.0661
16525W        W32334   0.569   4.088   1.504 -0.0638  0.0490 -0.0411
16526W        W32335   9.015  13.957   1.849  0.2767  0.0384 -0.1320
16527W        W32336   8.978   5.604   3.846  0.1651  0.0599  0.0934
16528W        W32337  15.266   0.825   4.889 -0.0924  0.4662 -0.2675
16529W        W32338   8.280   8.637  14.055 -0.0924  0.1297  0.2564
16530W        W32339   3.595   2.803   2.578 -0.2450 -0.0843 -0.2124
16531W        W32340  13.338   3.416   0.806 -0.3863 -0.2436  0.0004
16532W        W32341   9.465  10.603  11.569 -0.0202  0.1290 -0.2411
16533W        W32342   7.436   2.782   3.897  0.0267 -0.0855  0.2838
16534W        W32343  11.779  17.334   5.013  0.1712  0.0037 -0.1967
16535W        W32344   7.364   8.320   1.146  0.3705 -0.2440 -0.0432
16536W        W32345   0.872   9.699  10.665  0.0088 -0.0114 -0.0252
16537W        W32346  15.890  16.028   1.907  0.0723 -0.1662 -0.3755
16538W        W32347   8.708  17.276  14.420  0.3679  0.2970  0.0400
16539W        W32348  14.812   4.701  14.963  0.3865 -0.1833 -0.1389
16540W        W32349   1.400   1.194  14.401  0.0390 -0.0036 -0.3045
16541W        W32350   1.193  12.881   9.395  0.2510 -0.1981  0.1279
16542W        W32351   7.494  14.957   4.067  0.2062  0.0794 -0.0288
16543W        W32352  15.668   0.783   1.327 -0.1115 -0.2995 -0.1839
16544W        W32353   2.480  17.551   4.735 -0.0401 -0.3995 -0.2056
16545W        W32354  10.498   0.314  14.289 -0.0564  0.1260  0.0690
16546W        W32355   6.374   5.830  15.191  0.3272 -0.0471 -0.1343
16547W        W32356  12.048   5.562  11.055 -0.2185 -0.2129  0.2143
16548W        W32357  10.594  13.112  15.110  0.0187  0.1376 -0.1467
16549W        W32358  10.399   5.399   1.348  0.0064 -0.2383 -0.2543
16550W        W32359   8.402   1.817   3.848 -0.1656  0.2911 -0.4299
16551W        W32360  11.210  14.184  12.033 -0.0325  0.0893  0.3060
16552W        W32361  10.141  13.892   4.440 -0.3581  0.1069  0.1671
16553W        W32362   1.941   9.797   1.128  0.0766  0.2205  0.2711
16554W        W32363  17.923  12.557  11.108  0.3036 -0.2262 -0.2388
16555W        W32364  12.934   2.678   2.041  0.0354  0.2529  0.0655
16556W        W32365   5.928  17.469   2.685 -0.3155  0.1913 -0.4981
16557W        W32366   5.674  10.205   0.442  0.1043 -0.1116  0.1361
16558W        W32367   8.005  16.316   5.081 -0.1230 -0.2471  0.2612
16559W        W32368  14.076  13.830  13.310  0.0030  0.3268  0.0690
16560W        W32369   2.459  12.922  11.958  0.0856 -0.0232  0.1009
16561W        W32370  17.274   3.780  11.214 -0.1968  0.4322 -0.3419
16562W        W32371  16.285  15.642   0.795  0.2564  0.1437 -0.2294
16563W        W32372   4.810   6.412   0.518  0.0692  0.1833  0.0329
16564W        W32373  12.141  11.779   0.460  0.3035  0.2929 -0.0513
16565W        W32374   1.134  15.072   3.661  0.1959  0.0891 -0.2828
16566W        W32375   7.137   7.296  13.369  0.0176  0.0418  0.0789
16567W        W32376  13.493   7.571   1.222  0.0528  0.2408  0.2850
16568W        W32377   0.021   2.318   1.858 -0.2029 -0.0579  0.0103
16569W        W32378  18.403   7.961   1.814  0.1487  0.0337  0.2400
16570W        W32379   9.823   0.846   0.444  0.0217 -0.0860 -0.0163
16571W        W32380   8.465  18.084  12.661 -0.0641  0.0645  0.0681
16572W        W32381  18.621   4.677   2.404 -0.1432  0.1057  0.2683
16573W        W32382   1.407  11.057   3.008  0.0401 -0.1258  0.1476
16574W        W32383  14.808   5.467  11.980  0.2283  0.3654 -0.1992
16575W        W32384   6.302   0.056   3.057 -0.2549 -0.0456  0.0291
16576W        W32385   0.500   8.716  10.887  0.1234  0.1049  0.0341
16577W        W32386  18.122  12.530  10.170 -0.0309 -0.1146  0.0266
16578W        W32387   9.577   5.053  13.419  0.0725  0.1182  0.1203
16579W        W32388  14.863   7.850   4.083 -0.0304  0.2509 -0.0670
16580W        W32389   9.837  12.487   1.580  0.2639  0.1742  0.0832
16581W        W32390  15.182   0.340  12.660  0.1299  0.1324 -0.3049
16582W        W32391  11.490  17.171  13.200 -0.4285 -0.2194 -0.0663
16583W        W32392   9.391   7.091  13.869  0.0743  0.1082  0.0573
16584W        W32393  13.203   0.753   1.693  0.0995  0.3527  0.0842
16585W        W32394   8.653  14.425  12.403 -0.1101  0.0962  0.0339
16586W        W32395  13.721   0.420  12.744 -0.0391  0.0604 -0.1394
16587W        W32396  16.767  11.898  11.692 -0.0784 -0.0954 -0.1071
16588W        W32397   8.586  10.607  11.336 -0.0911  0.0702 -0.3815
16589W        W32398   4.721   1.466   2.061 -0.0878 -0.0904 -0.0435
16590W        W32399   3.069  12.070   2.548 -0.0039  0.0345 -0.1066
16591W        W32400   7.112  15.100  13.477  0.3658 -0.0160 -0.0033
16592W        W32401   9.881  16.648  13.380 -0.2334  0.3527 -0.0548
16593W        W32402   7.259   4.898   3.084 -0.1793 -0.1127 -0.0659
16594W        W32403  13.800  13.320   2.643 -0.0753 -0.0153 -0.1813
16595W        W32404   4.294  13.106  10.539 -0.0569  0.2562 -0.2939
16596W        W32405   9.361  18.350  12.765 -0.1170  0.2594  0.0928
16597W        W32406  16.512   5.878   3.549 -0.2876  0.0626 -0.2979
16598W        W32407  12.654  12.635  11.641  0.1164  0.0808 -0.1410
16599W        W32408  15.498   8.010   3.253 -0.0855 -0.0570 -0.1492
16600W        W32409  16.025   5.541  11.253  0.0733 -0.0401 -0.0359
16601W        W32410   1.753  14.214  11.721  0.3454  0.1042  0.1765
16602W        W32411   3.590   0.472  12.645  0.0418  0.1587  0.0099
16603W        W32412   6.897   0.552  15.277  0.0893  0.0288 -0.1689
16604W        W32413  17.486   5.261   2.364  0.1660  0.1675 -0.2301
16605W        W32414   1.088  17.667  15.488  0.0455  0.1739  0.2133
16606W        W32415  12.318  16.458  12.846  0.3845  0.1153  0.0090
16607W        W32416  15.720   1.047   0.646 -0.1399 -0.2283 -0.2587
16608W        W32417  14.104  17.392   2.291  0.0660  0.1297 -0.1458
16609W        W32418  17.988  18.011  12.783 -0.1308 -0.1855  0.2063
16610W        W32419  17.714  15.220   4.014 -0.1161 -0.0462  0.0951
16611W        W32420   4.753   7.991   0.592  0.1566  0.0929 -0.0879
16612W        W32421   0.004  14.152  15.381  0.1938 -0.3291  0.3903
16613W        W32422   0.077  18.088  14.309  0.4210 -0.2965 -0.1055
16614W        W32423   3.320  18.395  12.371 -0.0784 -0.2428  0.3104
16615W        W32424   8.024   8.799  12.571  0.1820 -0.3556  0.1165
16616W        W32425  11.845  15.615   4.469  0.1262  0.0526 -0.1486
16617W        W32426  14.533   7.142  11.482  0.0305 -0.2425  0.1325
16618W        W32427   2.493   0.151  15.138  0.1957  0.0135  0.0053
16619W        W32428  13.764   6.414   0.210  0.2918 -0.0448 -0.0188
16620W        W32429   1.480  13.109   4.088  0.1976 -0.3122  0.0238
16621W        W32430   9.182  15.663   1.733 -0.0430 -0.2383  0.5598
16622W        W32431  16.651   3.839  15.225 -0.1078 -0.1887  0.2030
16623W        W32432   0.735  18.129   0.050 -0.2672 -0.1621  0.1464
16624W        W32433   5.828  18.078  14.742 -0.1025 -0.1019 -0.0265
16625W        W32434  17.336   9.865   3.717 -0.1205 -0.1160 -0.1693
16626W        W32435  12.503  18.170  13.561 -0.1319 -0.0986  0.0059
16627W        W32436   4.869  10.439  15.435  0.0375 -0.1603 -0.1813
16628W        W32437   3.411  17.282  14.525 -0.2975  0.0760 -0.1046
16629W        W32438  11.023   3.153   0.675 -0.0246  0.1856 -0.1116
16630W        W32439  16.791  17.385   5.155  0.3795 -0.3108  0.4239
16631W        W32440   8.337   5.332  12.359 -0.1699 -0.1251 -0.2096
16632W        W32441   7.020  16.605   5.584  0.0880 -0.1121 -0.1014
16633W        W32442   7.587  10.849  14.105  0.2307  0.2278  0.1355
16634W        W32443  16.023  17.260  10.962 -0.2434 -0.3734 -0.0259
16635W        W32444  12.932  14.216   2.314 -0.1953  0.2371 -0.0604
16636W        W32445  15.381   5.906   5.608  0.1592  0.2058 -0.1130
16637W        W32446  15.049   3.156  10.754  0.0189  0.1878 -0.1653
16638W        W32447  15.303   0.261   4.730  0.3150 -0.1080 -0.4409
16639W        W32448   1.417   7.383  15.327  0.0829 -0.1692 -0.0525
16640W        W32449  18.655  13.187  12.266 -0.0053 -0.0364 -0.2016
16641W        W32450  11.833   4.366  15.029  0.2526 -0.0152  0.0387
16642W        W32451  12.813  18.557  14.816 -0.0203 -0.3585  0.1011
16643W        W32452  10.268   2.813  15.275  0.1618  0.0644  0.1809
16644W        W32453   1.632   2.101  11.578 -0.1928  0.0199 -0.1239
16645W        W32454   3.169   9.326   0.871 -0.0464  0.0376  0.1504
16646W        W32455  18.445  12.159   2.915 -0.0755 -0.0510 -0.4148
16647W        W32456  10.428   1.259  11.302  0.0432 -0.1352 -0.1794
16648W        W32457   3.731  16.005  11.197 -0.0999 -0.0826 -0.0760
16649W        W32458   3.972  13.899   3.887 -0.3258 -0.2055 -0.1734
16650W        W32459  12.388  12.175  11.632  0.1688  0.0348  0.3995
16651W        W32460   2.112  10.032  13.630 -0.0678  0.3293 -0.4007
16652W        W32461   8.624  10.034  14.165 -0.1426 -0.0477  0.0915
16653W        W32462   2.151   5.294   0.343 -0.0069 -0.1020  0.0765
16654W        W32463   3.777   1.354   2.314  0.2373 -0.0069  0.0753
16655W        W32464  13.802   4.388   5.507 -0.0815  0.0818 -0.3228
16656W        W32465  15.526  18.210  12.594  0.1048 -0.0443  0.2168
16657W        W32466   8.772   2.139  15.397 -0.3528  0.0509  0.0183
16658W        W32467   0.724   3.494   4.758  0.0499 -0.1868 -0.0108
16659W        W32468   2.442   7.634   3.557 -0.0788  0.0695 -0.1532
16660W        W32469   9.571   1.588  12.950 -0.0573 -0.2069 -0.2197
16661W        W32470   6.779  15.773  13.870 -0.0660  0.4140 -0.0554
16662W        W32471  18.069   5.918   0.145 -0.0535 -0.2441 -0.2263
16663W        W32472   1.538  12.229   9.964 -0.2106  0.2299 -0.2138
16664W        W32473  10.571   9.509   4.724 -0.1146  0.0052  0.1165
16665W        W32474   5.346  12.834  12.496 -0.0582  0.1766 -0.2301
16666W        W32475  13.539  15.528   4.397 -0.0045  0.3857 -0.1020
16667W        W32476   0.291  10.633   1.341  0.1828 -0.0308  0.0007
16668W        W32477   6.652  14.429  13.195  0.2472 -0.1325  0.0884
16669W        W32478  13.894   7.631  12.375 -0.0613  0.0585  0.0453
16670W        W32479  11.424  18.014  14.353  0.0251  0.0814 -0.2877
16671W        W32480  12.775   6.519   1.803 -0.1946 -0.0230  0.2361
16672W        W32481   4.371  14.420   1.059 -0.0700 -0.1716 -0.3530
16673W        W32482   7.485   3.548   3.516 -0.1660  0.0571  0.1586
16674W        W32483   8.781   8.167  13.456 -0.0753 -0.1590 -0.1763
16675W        W32484   2.364  11.809  15.493  0.0045 -0.1114 -0.1615
16676W        W32485   4.381  12.089  14.251  0.0112 -0.1198 -0.1917
16677W        W32486  14.686   7.098  12.254  0.1596  0.1822  0.1970
16678W        W32487   8.489  18.165   2.375  0.0115 -0.0721  0.1036
16679W        W32488   6.723  18.239  13.518  0.0834 -0.0615  0.1618
16680W        W32489  17.875  11.233   1.042 -0.3287 -0.1092 -0.0300
16681W        W32490  14.400  15.116  14.494 -0.4468 -0.1074 -0.4468
16682W        W32491  16.770  15.206   5.070 -0.1716 -0.0022  0.0449
16683W        W32492  16.456  15.150  12.630  0.1972 -0.0146 -0.2124
16684W        W32493  14.935   8.276   0.991  0.1173  0.1221  0.0937
16685W        W32494  13.826   7.792  15.437  0.1100 -0.1293 -0.1583
16686W        W32495   5.451  17.643  15.551  0.2547  0.4949 -0.0572
16687W        W32496   3.711   8.540   0.859  0.3581  0.0222  0.1007
16688W        W32497  18.664   7.232  15.467 -0.0058 -0.1165 -0.0841
16689W        W32498   4.063   7.143   0.487 -0.1804 -0.2546  0.2718
16690W        W32499  14.703  17.873  13.996 -0.3680 -0.0869  0.2281
16691W        W32500   7.966   3.765  14.013  0.0612  0.0662  0.1765
16692W        W32501  14.414  16.837   3.985 -0.1736  0.1539 -0.0954
16693W        W32502  11.195   3.851   5.199 -0.0943  0.2628 -0.0571
16694W        W32503  18.167  10.953   0.067  0.1362 -0.2197  0.1120
16695W        W32504  12.399  10.764   4.377  0.0551 -0.0663 -0.1222
16696W        W32505  12.372   1.644   4.780 -0.0697 -0.0592  0.1732
16697W        W32506   2.577   5.690   2.156  0.1358 -0.0809  0.1263
16698W        W32507  16.251   2.272  15.559 -0.0738 -0.2485 -0.2078
16699W        W32508  13.746  18.278   6.140 -0.0216 -0.2251  0.0335
16700W        W32509   8.329   5.511  13.221 -0.2852 -0.1115 -0.0119
16701W        W32510  12.685  17.881  11.655 -0.0297 -0.1429  0.0654
16702W        W32511  11.807   6.797  15.092 -0.1078  0.1026 -0.2194
16703W        W32512  15.227   4.435   2.606 -0.1384 -0.0029  0.3001
16704W        W32513  16.081  14.413   4.196 -0.0300 -0.0382 -0.6412
16705W        W32514   1.254   2.902  14.789  0.0446 -0.1341 -0.3427
16706W        W32515  10.316   4.846   1.431  0.1556 -0.0239 -0.2025
16707W        W32516   7.515   0.237  15.257 -0.5106 -0.0750 -0.3933
16708W        W32517   2.276  12.681   5.082 -0.2458 -0.0822 -0.0605
16709W        W32518  12.308   1.413   1.675 -0.0255 -0.2666  0.2637
16710W        W32519   2.051   4.350  12.968 -0.2057 -0.1124  0.0085
16711W        W32520   1.015   9.356   2.214  0.1038  0.0567 -0.1953
16712W        W32521   8.289   3.954  11.899 -0.3013  0.0353 -0.2928
16713W        W32522   2.590  13.877  13.219  0.0695  0.1204 -0.0888
16714W        W32523   8.636   3.517   2.001 -0.0171  0.0426  0.0868
16715W        W32524   3.836  13.805  11.906 -0.2602 -0.2372  0.2764
16716W        W32525   2.894   8.522   4.797  0.4712  0.0657 -0.1932
16717W        W32526  12.053  15.855   1.857  0.1296  0.1225 -0.2990
16718W        W32527   1.815  17.130   0.172  0.0559  0.0277  0.0615
16719W        W32528   7.771  18.042  14.928  0.1467 -0.1469 -0.0772
16720W        W32529   7.227   7.660   3.458 -0.0402  0.0565 -0.0096
16721W        W32530   0.678   2.898  12.939 -0.0900  0.1681  0.0176
16722W        W32531   5.774  17.002   3.010 -0.0188 -0.0460 -0.1870
16723W        W32532   6.539   6.314   0.604 -0.1996  0.0754  0.3218
16724W        W32533   1.519  12.443  14.617 -0.0663 -0.0805 -0.0622
16725W        W32534  11.674  15.988   2.124  0.2344 -0.2161 -0.3579
16726W        W32535   5.287  12.007   9.880  0.4748 -0.0449  0.0445
16727W        W32536  16.366   3.842   1.091 -0.1411  0.0397 -0.2081
16728W        W32537   7.121  17.481  14.904 -0.0321  0.1033 -0.1481
16729W        W32538  14.782   9.659  14.505  0.3615  0.0069  0.1878
16730W        W32539  18.011  13.483  10.682 -0.3976  0.0429  0.2127
16731W        W32540   9.250  15.983   0.094  0.1121 -0.3743 -0.2450
16732W        W32541   8.713  12.981   3.671  0.3590 -0.0600  0.1557
16733W        W32542  15.242   6.344   0.368  0.1032 -0.3439  0.2143
16734W        W32543   8.074  15.505   0.348  0.0026 -0.1566 -0.1956
16735W        W32544   1.877   0.740  15.518  0.3569  0.2551  0.1194
16736W        W32545  18.563   2.258  11.986 -0.1808  0.1453 -0.2824
16737W        W32546   4.745  17.524   3.001 -0.1026  0.1465 -0.1070
16738W        W32547  18.453   4.172   2.220 -0.1605 -0.3465 -0.0495
16739W        W32548   0.183  13.804  13.546  0.0780 -0.1364  0.1187
16740W        W32549   5.807  15.686  12.624  0.0489 -0.1485  0.4418
16741W        W32550  15.798   6.166  10.401 -0.0712 -0.0640  0.0230
16742W        W32551  11.353  11.766   0.236 -0.0547  0.1100 -0.1050
16743W        W32552   1.314  17.569   1.170 -0.0824 -0.3079 -0.1515
16744W        W32553  11.551   7.675  12.161 -0.2020 -0.2792  0.0662
16745W        W32554  10.280   7.485  13.544  0.2572 -0.1381 -0.0941
16746W        W32555   9.972  13.450  12.923  0.3173 -0.0022 -0.1895
16747W        W32556   3.074  18.247   5.420 -0.0501  0.1808 -0.3235
16748W        W32557   6.974  11.592   2.484 -0.3266 -0.0169 -0.0587
16749W        W32558   0.451  13.022  13.839  0.1981 -0.0181 -0.2219
16750W        W32559  17.268   8.249  13.512  0.2829  0.2470 -0.1381
16751W        W32560  10.901  14.506  14.408  0.0671  0.3358 -0.0982
16752W        W32561   4.757  12.149  13.230  0.0307  0.0357  0.0701
16753W        W32562   3.346  17.370   5.404 -0.0847 -0.5342 -0.0935
16754W        W32563  15.142  12.206  11.730 -0.4341 -0.1322  0.1511
16755W        W32564   5.593   3.794   0.085  0.4012 -0.0290 -0.0515
16756W        W32565  16.764   2.687   5.727 -0.0749 -0.2502  0.1722
16757W        W32566  15.476   3.029  11.995  0.3517 -0.0587 -0.3762
16758W        W32567   0.988   2.653  13.217  0.1961  0.0044 -0.1353
16759W        W32568   9.584  12.242  13.465 -0.0122 -0.2561 -0.0610
16760W        W32569  18.122   7.827   1.147 -0.2816 -0.4639  0.1258
16761W        W32570  12.425   0.877   2.835 -0.0069 -0.2888  0.1177
16762W        W32571   8.305  17.095  12.271  0.1812 -0.3470 -0.0665
16763W        W32572   9.123   4.676   4.041  0.0312  0.1722 -0.0780
16764W        W32573   4.692   3.465   1.962  0.2196 -0.1445 -0.1926
16765W        W32574  10.201  16.069   0.695  0.1225  0.0754 -0.0715
16766W        W32575   7.115   5.696   0.175  0.0853  0.0475 -0.0608
16767W        W32576  14.203  17.214  15.025  0.1854  0.0256 -0.3276
16768W        W32577  10.376   5.501   0.555  0.2809 -0.4313 -0.1411
16769W        W32578   5.225   5.757  13.364  0.0251  0.2877 -0.1011
16770W        W32579  13.649   0.086   0.122 -0.0102  0.3788 -0.0865
16771W        W32580   2.502  12.060   3.294 -0.0525  0.0919 -0.1989
16772W        W32581  11.610  16.561   5.254  0.2124 -0.1809 -0.0639
16773W        W32582   6.140  15.917  14.767 -0.2231  0.2911 -0.2027
16774W        W32583   2.679  13.779   1.604  0.0257  0.2892 -0.0499
16775W        W32584   5.901  13.173   3.666 -0.0755 -0.1417  0.0512
16776W        W32585   5.801  16.446  14.872 -0.0434 -0.0024 -0.0197
16777W        W32586   0.205  16.038  15.328  0.0113  0.0758  0.0996
16778W        W32587   8.364   9.360  13.346 -0.0818 -0.1769  0.1664
16779W        W32588  14.378  14.606   0.946  0.0677 -0.2304  0.1160
16780W        W32589   8.579  13.534   1.132 -0.0018  0.0793 -0.1401
16781W        W32590  11.651  12.292   5.324  0.0675  0.1786 -0.0230
16782W        W32591   9.936  11.056   4.300  0.1345 -0.0834 -0.1904
16783W        W32592  13.458  15.016   2.599  0.3222 -0.0518  0.1124
16784W        W32593  17.320  15.390   0.293 -0.1172 -0.0071 -0.0684
16785W        W32594   1.514  10.831   4.245 -0.0003  0.0953  0.0242
16786W        W32595   1.297  13.670  10.274  0.2763  0.0436  0.0048
16787W        W32596   3.669   9.006  10.377  0.2996  0.1968 -0.0872
16788W        W32597   6.929   5.618  11.652  0.1034 -0.3259  0.0365
16789W        W32598  16.633   7.574   1.180 -0.2967 -0.2114 -0.0342
16790W        W32599  18.006  15.881   2.909  0.0789 -0.0700  0.2164
16791W        W32600   8.636  13.222  13.348 -0.0078  0.2636 -0.0813
16792W        W32601   0.214   6.058  14.901  0.2105  0.0358 -0.1833
16793W        W32602  11.629   8.337   2.530 -0.0063  0.3142 -0.0535
16794W        W32603  14.438  12.675  14.380  0.1518 -0.3079 -0.1656
16795W        W32604   6.016  15.192  11.663 -0.2506  0.0228  0.1043
16796W        W32605  12.272   7.675  13.566 -0.2483  0.2250 -0.1164
16797W        W32606  18.557  16.479  15.205 -0.1922  0.0300  0.1940
16798W        W32607  17.624   3.450   2.120 -0.1388  0.1258 -0.0612
16799W        W32608   4.232  15.703   0.566 -0.0144 -0.2020 -0.0562
16800W        W32609  13.330   2.815   3.092 -0.1202  0.1825  0.1324
16801W        W32610  13.539   9.306  11.766 -0.1076  0.1120 -0.0377
16802W        W32611  16.164  12.994  11.118 -0.0305 -0.0764  0.3337
16803W        W32612  17.119   2.476   4.161  0.2438 -0.0539 -0.0798
16804W        W32613  14.476   7.382   1.191  0.0265 -0.1241  0.2959
16805W        W32614  13.164  14.711  13.640  0.1120  0.0914  0.3768
16806W        W32615  15.442   0.422  15.228  0.0069  0.1631  0.0099
16807W        W32616   9.226  18.145   4.288  0.0558  0.2042  0.0448
16808W        W32617  15.852   4.099  12.818  0.0988 -0.0252 -0.3008
16809W        W32618  11.175  11.812   5.578  0.0399  0.3256 -0.0221
16810W        W32619   4.709   2.475   5.058 -0.2413 -0.2133  0.0945
16811W        W32620  10.947  13.951   4.207 -0.1081 -0.2442 -0.1701
16812W        W32621  15.862  14.875   0.595 -0.0375 -0.2872  0.1200
16813W        W32622  16.263  11.721   5.117  0.4099  0.0146 -0.0005
16814W        W32623   7.857  10.290   3.425 -0.0124  0.0956 -0.2518
16815W        W32624  13.111  15.509  14.174  0.3149 -0.0463 -0.1081
16816W        W32625  10.640   1.644  13.808  0.2319  0.3464  0.1756
16817W        W32626  14.103  13.394   3.057 -0.0417 -0.0012 -0.0262
16818W        W32627   4.938  12.624  15.050 -0.0941 -0.1184 -0.1808
16819W        W32628   7.898  15.496   4.628  0.1797 -0.1952  0.2285
16820W        W32629  13.754   5.430   1.371  0.3551  0.1732 -0.1170
16821W        W32630  13.800   0.760   2.960  0.1250  0.0800 -0.1485
16822W        W32631   7.926   9.792   4.258 -0.3110  0.0577 -0.1747
16823W        W32632   7.671   3.547  15.261 -0.0841 -0.1013  0.2081
16824W        W32633   2.637  11.201   1.561 -0.1965 -0.4300 -0.0538
16825W        W32634  17.330   1.710  15.156 -0.0548  0.0451 -0.0225
16826W        W32635  10.815   8.316  15.511 -0.2712 -0.2609 -0.1393
16827W        W32636  11.772  14.264   1.949  0.0187  0.2515  0.2508
16828W        W32637  16.688  14.017   0.081  0.0247 -0.0571 -0.1668
16829W        W32638  14.277   9.763  11.547  0.0544 -0.1260 -0.0156
16830W        W32639   1.864  16.391  13.534  0.1488  0.1399 -0.0485
16831W        W32640  11.101   4.549   9.931 -0.2025  0.1415 -0.1187
16832W        W32641  11.459   7.146   3.199 -0.2541 -0.0208  0.0187
16833W        W32642   5.962   7.537  12.859 -0.1576 -0.1985  0.2513
16834W        W32643  15.056  12.473  13.632  0.0545 -0.1142 -0.0182
16835W        W32644  13.193  11.058  14.936  0.3026 -0.0595  0.3228
16836W        W32645  13.495   2.179   3.328  0.0415  0.4552 -0.3324
16837W        W32646  18.042   3.321   1.298 -0.0143 -0.1227 -0.0514
16838W        W32647   1.438   1.665   0.575  0.2382 -0.1239 -0.1338
16839W        W32648  15.085   5.063   4.311 -0.0277  0.3090 -0.1033
16840W        W32649   6.772  17.809  12.323  0.0047 -0.0331  0.0724
16841W        W32650  16.110   3.902   0.278  0.2682  0.0336  0.0907
16842W        W32651  13.987  18.414   4.580 -0.0254  0.2171  0.1441
16843W        W32652   6.843   8.419   2.931 -0.0451 -0.2857 -0.0374
16844W        W32653   9.084  13.725   9.938 -0.2409  0.0779  0.0767
16845W        W32654   1.523  10.669   0.283  0.1742  0.0786  0.1292
16846W        W32655  18.073   4.716  12.963  0.0135  0.0716 -0.0005
16847W        W32656  16.810  16.024  12.727 -0.0546 -0.2185 -0.3756
16848W        W32657  14.155  15.771   5.689  0.2516  0.1192  0.1118
16849W        W32658   1.692  12.638  15.529 -0.1661 -0.0064 -0.0357
16850W        W32659   2.726  12.927  13.228 -0.0276 -0.2497 -0.0627
16851W        W32660  16.071  15.606   1.559  0.1549 -0.0510 -0.3290
16852W        W32661   6.874  17.850   5.104 -0.2670  0.0426 -0.1283
16853W        W32662  12.802   5.161   3.633 -0.1156 -0.2869 -0.3967
16854W        W32663   7.079   8.440  12.672 -0.0819 -0.1892 -0.4689
16855W        W32664  18.306   3.318  10.418  0.0245 -0.1570  0.0236
16856W        W32665  17.606   0.904   5.239  0.0436  0.0482  0.0910
16857W        W32666  14.269   6.345  13.569 -0.0527 -0.1153  0.1963
16858W        W32667   4.350   5.483  13.067  0.0880 -0.0618  0.0372
16859W        W32668   1.878   3.573  12.601 -0.1326  0.1740 -0.1160
16860W        W32669  11.256   3.254  14.243 -0.2126  0.0663  0.0489
16861W        W32670   7.389  12.647   3.548 -0.0132 -0.0876 -0.2073
16862W        W32671   4.322   3.624  14.972 -0.2646  0.1056  0.2023
16863W        W32672   8.843   0.374   3.075 -0.0003  0.0462 -0.3467
16864W        W32673  11.120  10.288   1.942  0.0370  0.0609  0.0754
16865W        W32674  12.440   6.478   0.399  0.2166 -0.2660 -0.0419
16866W        W32675   9.661   3.845   3.643 -0.1760 -0.1389 -0.0148
16867W        W32676   2.353   8.173  14.563  0.0952 -0.1043  0.0740
16868W        W32677  14.128  16.852   3.488 -0.1062 -0.3170  0.2026
16869W        W32678   3.698   0.704   4.647  0.1027 -0.2118  0.1143
16870W        W32679  15.563  17.285   2.310  0.0581 -0.1177  0.1896
16871W        W32680   0.841  16.158   1.232 -0.0792 -0.2901  0.0236
16872W        W32681  13.947   6.473  12.199  0.1064  0.0679  0.0973
16873W        W32682   8.849  10.849   3.331 -0.2091  0.2301 -0.3528
16874W        W32683  17.148   3.707   1.485 -0.3173 -0.0505 -0.0815
16875W        W32684   3.789   7.567  13.833 -0.1232  0.0687 -0.0196
16876W        W32685  15.541   7.785  12.579  0.2602  0.0751  0.1874
16877W        W32686   1.648  13.578  13.721  0.1258  0.2616 -0.4124
16878W        W32687  15.799  16.945   1.166 -0.2741  0.0733  0.0209
16879W        W32688   3.597   7.790  10.560 -0.2063 -0.1584 -0.2177
16880W        W32689   9.064  14.850  10.147 -0.0370 -0.1575 -0.0724
16881W        W32690  15.034   2.537  14.212 -0.1278 -0.2340 -0.2390
16882W        W32691   8.281   0.365   0.678 -0.0524  0.0267 -0.1461
16883W        W32692   6.261   7.658   1.332 -0.2060 -0.0364  0.1879
16884W        W32693  10.193   6.255  10.471  0.2260  0.0511  0.2119
16885W        W32694   9.065  10.371   3.508 -0.2552 -0.0552  0.1916
16886W        W32695   2.299  13.557  14.054  0.1194  0.0771 -0.0146
16887W        W32696  17.817   5.299  11.260  0.0741  0.0523  0.2146
16888W        W32697  10.912  14.296  12.444  0.0296  0.1158 -0.1576
16889W        W32698   2.997   8.723  12.049 -0.1354 -0.0323 -0.1021
16890W        W32699   9.668  12.793  13.414 -0.0452 -0.1431  0.0056
16891W        W32700   1.776  16.440   2.178  0.1869 -0.0063 -0.0986
16892W        W32701  16.631  17.362   4.177  0.0067 -0.0038 -0.0105
16893W        W32702  17.253   7.511   4.783  0.1561  0.0671  0.2327
16894W        W32703  16.046  15.782  11.414  0.1475  0.4489 -0.0848
16895W        W32704  14.240   8.916  11.161 -0.2534 -0.2950  0.1932
16896W        W32705   3.907   7.592  14.925 -0.1994  0.3960  0.2819
16897W        W32706   3.838   5.904  15.436 -0.1348  0.1884 -0.1449
16898W        W32707   6.494   6.297   1.156 -0.1012 -0.0134 -0.1256
16899W        W32708   5.522  10.943   3.243  0.0989  0.1265  0.0278
16900W        W32709   4.815  16.487   3.762 -0.2047 -0.1369  0.2069
16901W        W32710  13.492   3.998   5.301  0.1723  0.1638  0.0727
16902W        W32711   1.625   4.890  15.329 -0.0788  0.3305  0.0694
16903W        W32712   9.800   6.266   4.216  0.0420  0.1383 -0.0811
16904W        W32713  16.270   6.254  10.508 -0.1636  0.0080 -0.0777
16905W        W32714   4.223   0.097  14.212  0.2383  0.0564  0.2024
16906W        W32715   0.225   6.901   4.183 -0.1330 -0.0952  0.2968
16907W        W32716   0.166   1.749   3.949  0.0015 -0.1585 -0.1509
16908W        W32717   2.398  13.695   4.886  0.0241 -0.1253 -0.1829
16909W        W32718   1.342  12.190   1.849 -0.0292 -0.0270 -0.1783
16910W        W32719  15.542   3.333   0.554  0.1631 -0.1950 -0.0452
16911W        W32720  17.539   6.555  10.622  0.3619 -0.1975  0.0220
16912W        W32721   4.741   4.336  14.830  0.0496  0.1441 -0.0739
16913W        W32722   3.818  14.452  11.994  0.3149  0.0327  0.1009
16914W        W32723  13.495   2.773   1.283  0.1697 -0.1838  0.2360
16915W        W32724   2.621  12.461  12.006 -0.1838 -0.3103  0.0850
16916W        W32725   4.233  16.924   4.596 -0.1928  0.1459 -0.1627
16917W        W32726   1.389  12.591  14.153  0.3331  0.3137  0.0315
16918W        W32727   5.120  17.293  13.800 -0.0554  0.4650 -0.0748
16919W        W32728  12.907  18.549  10.974  0.0204  0.1133 -0.1697
16920W        W32729  17.573   9.954   3.246  0.2442  0.1283  0.3812
16921W        W32730  16.703  10.217  11.132 -0.0904 -0.2481 -0.0158
16922W        W32731  18.237  12.514   5.470 -0.0356 -0.1700 -0.0057
16923W        W32732  11.811   4.866  14.672 -0.0417  0.2611  0.2271
16924W        W32733   3.316   6.980   4.339  0.0922  0.0664 -0.0568
16925W        W32734   5.152  10.603  11.797 -0.0968  0.3834 -0.3847
16926W        W32735   4.574  13.826  14.781 -0.0342 -0.0305  0.1320
16927W        W32736  18.143  13.292  11.263  0.0294  0.0081 -0.0765
16928W        W32737   4.896   3.359  12.567  0.0269  0.2347 -0.0551
16929W        W32738   6.570   7.715   0.228  0.0288 -0.2361 -0.1821
16930W        W32739   6.705   3.204  12.782 -0.0248 -0.2267  0.0581
16931W        W32740   2.971   6.983  12.220 -0.3236 -0.4410  0.0011
16932W        W32741   1.976  13.034  15.319 -0.0256  0.0033  0.0630
16933W        W32742   6.347  14.258   2.401 -0.0782  0.0263 -0.2134
16934W        W32743  17.832   8.010   1.915  0.2026  0.0644  0.1498
16935W        W32744   2.172   8.206   5.160 -0.3797 -0.2627  0.2936
16936W        W32745  15.464  16.728   3.070  0.1077  0.2485  0.3594
16937W        W32746  17.992   6.701   9.267 -0.5027 -0.0102 -0.4614
16938W        W32747   7.488  12.263   4.107  0.0749  0.1879 -0.1457
16939W        W32748   2.688  11.575   2.988  0.1334  0.2107  0.0041
16940W        W32749   2.526  16.999   2.479 -0.0872  0.2001  0.4750
16941W        W32750  16.748  12.972  10.731  0.0000  0.2741 -0.2500
16942W        W32751  18.293   0.128  12.559 -0.1340 -0.1533  0.0043
16943W        W32752  13.536  18.519   3.930 -0.0620 -0.1431  0.0650
16944W        W32753   3.852   4.909   2.087 -0.0798 -0.0315 -0.0119
16945W        W32754  15.807  16.234  12.824 -0.1950 -0.1871  0.2262
16946W        W32755   4.317  13.543   2.975  0.0382 -0.2004 -0.1263
16947W        W32756   1.305  15.729  13.434  0.0326 -0.2065  0.0271
16948W        W32757  15.092   4.796   1.432 -0.2421  0.1396 -0.0032
16949W        W32758   7.471  15.991  12.393  0.1647 -0.0642  0.1273
16950W        W32759   4.722   8.420  12.812  0.1009 -0.1979  0.1335
16951W        W32760  14.579  12.593   2.300  0.1001 -0.3735 -0.2763
16952W        W32761   7.076  10.262  12.474 -0.0072 -0.2241 -0.1786
16953W        W32762   2.046   2.868   3.118  0.0454  0.2615 -0.2015
16954W        W32763   8.241   6.055   1.187  0.1570 -0.2624 -0.2851
16955W        W32764   1.883  18.264   2.956  0.0344 -0.2192  0.0379
16956W        W32765  14.758  10.116  11.658  0.0330  0.2522 -0.1485
16957W        W32766   6.192   7.136   0.533  0.1688 -0.1820 -0.3086
16958W        W32767  11.542   2.994  10.671  0.1766 -0.2549  0.0776
16959W        W32768   2.399  11.761  14.381 -0.1464  0.0593 -0.0772
16960W        W32769  16.826   2.022  13.118  0.1148  0.1204  0.3011
16961W        W32770   1.506  11.778   9.778 -0.1656  0.3922  0.0186
16962W        W32771   1.188   7.196  14.843 -0.2715  0.3330 -0.1640
16963W        W32772   5.092  14.114   2.015  0.0489 -0.1947 -0.0348
16964W        W32773   9.139   8.773   5.131  0.0204  0.0631 -0.3820
16965W        W32774   1.573  12.327   0.891  0.0683 -0.2230 -0.0278
16966W        W32775   5.033  16.829   2.490 -0.3222  0.1014  0.0787
16967W        W32776  10.803   7.451   1.425 -0.1446  0.0117 -0.1864
16968W        W32777   1.308  13.017  11.000 -0.0521 -0.3638 -0.1124
16969W        W32778   5.179  12.863  11.468 -0.0829 -0.0998  0.0765
16970W        W32779  18.334  15.005  10.851 -0.0217 -0.2113 -0.3235
16971W        W32780  17.981   3.049  10.697 -0.2728 -0.1226 -0.0277
16972W        W32781   5.395  15.646  14.925 -0.1761  0.2203 -0.2148
16973W        W32782  17.614   0.010   3.238  0.0573 -0.0941 -0.0193
16974W        W32783   8.594   1.072   2.444  0.0574  0.0320  0.3527
16975W        W32784  11.503   5.930  15.223  0.3292  0.0162 -0.1020
16976W        W32785   6.552  16.484  12.839  0.1786 -0.0086  0.1754
16977W        W32786  12.669   0.662   3.342 -0.0700 -0.0132 -0.2671
16978W        W32787  12.348  11.493   2.638 -0.1169 -0.0828  0.1665
16979W        W32788  15.292  14.094  12.127  0.0598 -0.0231  0.1095
16980W        W32789   0.402  17.670   4.554 -0.0652  0.2548 -0.0036
16981W        W32790   8.216  12.853   4.185 -0.0702  0.3502  0.4406
16982W        W32791   2.800  12.389   4.278  0.0284 -0.0979  0.0475
16983W        W32792  17.914  17.086   0.637 -0.0571  0.1393  0.2071
16984W        W32793   3.566   9.260  13.624  0.1099  0.0727  0.1093
16985W        W32794  14.983   3.722  12.498 -0.0459 -0.0812 -0.1221
16986W        W32795  13.152  10.494  15.164 -0.0361  0.2421 -0.2229
16987W        W32796   7.139   1.788   4.519  0.3387 -0.1230 -0.1837
16988W        W32797   7.776   0.805  12.903 -0.1917 -0.1583 -0.2138
16989W        W32798   7.519   0.582  13.664 -0.0100 -0.1353  0.0173
16990W        W32799   7.538   2.624   4.627  0.0662  0.3970 -0.2437
16991W        W32800   3.456   9.455  10.468 -0.3208  0.3701 -0.1042
16992W        W32801   4.129   6.361   0.445 -0.2105  0.0673 -0.0964
16993W        W32802   3.192  16.239  13.111  0.4886 -0.0859  0.0033
16994W        W32803  12.492   2.944   1.111 -0.1307  0.3715  0.1994
16995W        W32804   0.765   5.237   1.803 -0.3905 -0.4567 -0.0351
16996W        W32805   0.961  13.507  14.961 -0.3310  0.3060  0.0133
16997W        W32806   3.549   2.628   2.135  0.0874  0.4691 -0.1684
16998W        W32807   8.212   6.877  11.514  0.0401 -0.0586 -0.0616
16999W        W32808  10.174   1.382  14.684 -0.0371  0.0178 -0.1999
17000W        W32809   3.241   3.859   2.032  0.0765  0.1047  0.3353
17001W        W32810   3.340   6.713  10.949 -0.2231 -0.0490  0.0078
17002W        W32811   8.400   6.049  13.626 -0.2048 -0.1684 -0.1431
17003W        W32812   0.027  13.864  13.047  0.0269 -0.2093  0.1249
17004W        W32813   2.092   6.259  11.116  0.0357 -0.0735  0.0141
17005W        W32814   4.838  14.105   1.162 -0.0290  0.0200 -0.0119
17006W        W32815  16.190  17.928  13.043 -0.3042  0.1810  0.1725
17007W        W32816   4.667   0.977   0.583  0.1066  0.1016  0.0999
17008W        W32817  13.204   8.305   2.958  0.0342  0.1827  0.2773
17009W        W32818   0.021   4.064   3.416 -0.1398  0.1566  0.0886
17010W        W32819   9.109  10.343  10.665  0.1337 -0.3036 -0.0225
17011W        W32820   0.868   0.881  15.191 -0.2248  0.1124 -0.0744
17012W        W32821   6.306   2.086  11.453  0.2834  0.1335 -0.0538
17013W        W32822  13.197  15.442   0.909 -0.0434 -0.1119 -0.3003
17014W        W32823  11.512   2.560   1.251  0.0124 -0.0481  0.1287
17015W        W32824  14.120  17.607  10.961  0.0767  0.1898  0.0665
17016W        W32825   0.977  15.062   3.003  0.0335  0.0909 -0.0782
17017W        W32826   5.746   5.635   3.896 -0.1992 -0.1381 -0.6068
17018W        W32827  13.817  11.779   1.244 -0.2381  0.2497 -0.2618
17019W        W32828  17.516   7.631   1.930 -0.0014 -0.0740 -0.2292
17020W        W32829  18.653  11.789  13.032 -0.0227  0.4344 -0.1374
17021W        W32830   1.960  17.088   0.639  0.3778 -0.2765  0.1504
17022W        W32831   9.042   9.769  11.270 -0.1218  0.0867 -0.5187
17023W        W32832  10.110  12.310  14.652  0.1396  0.2060 -0.4737
17024W        W32833   6.081   0.775  11.445  0.2727  0.1189 -0.1711
17025W        W32834   3.641  10.963  14.496  0.2453 -0.2265 -0.0954
17026W        W32835   9.500   4.382   2.825 -0.1197  0.0839 -0.0228
17027W        W32836   0.862   1.634  11.198  0.0767  0.0509  0.2441
17028W        W32837  10.642  12.341   3.603  0.1382  0.1740 -0.1265
17029W        W32838   4.558   7.455   5.361  0.0556 -0.0425 -0.2133
17030W        W32839   0.812   1.345  14.080 -0.2256 -0.0630  0.0127
17031W        W32840  16.409   9.126  15.079 -0.0086  0.2101 -0.1098
17032W        W32841  13.072  17.037   1.892 -0.0988  0.1833  0.0468
17033W        W32842   1.769   0.920  11.503 -0.0216  0.4860 -0.3371
17034W        W32843  16.852  18.268   3.981 -0.0627 -0.0376 -0.0379
17035W        W32844   1.001   6.240  11.399 -0.2303  0.0319  0.0077
17036W        W32845   1.064  10.671   0.860 -0.0222 -0.0183  0.0365
17037W        W32846   1.571  17.617  13.181  0.1205 -0.0228 -0.0154
17038W        W32847   9.275   3.746   1.522  0.4228  0.2345 -0.1537
17039W        W32848  10.886   9.930  14.480 -0.3433 -0.0054  0.1721
17040W        W32849  14.894  11.893  10.011 -0.1568 -0.0403  0.0754
17041W        W32850  14.543  12.872  12.798 -0.3101 -0.1394 -0.2475
17042W        W32851   8.462  13.335  10.964 -0.0440  0.0473  0.3724
17043W        W32852  16.537  12.421   3.399  0.0081  0.0570 -0.1374
17044W        W32853   4.850   6.047  13.643 -0.0417 -0.0181  0.1733
17045W        W32854  16.228  10.565  14.723 -0.1901 -0.1933  0.0802
17046W        W32855  14.695  15.748   5.615  0.0485 -0.0760  0.2521
17047W        W32856   6.536  16.893  14.523  0.3894  0.3839  0.1411
17048W        W32857  15.307   7.281  14.635 -0.6025 -0.1610 -0.0444
17049W        W32858  15.113  12.190  13.106  0.0913  0.0497  0.2290
17050W        W32859   9.935  13.161   4.758  0.2906 -0.1844 -0.1205
17051W        W32860  12.064   9.276   4.501 -0.4013  0.4162 -0.1188
17052W        W32861  10.855   1.041  13.162  0.1007 -0.0371  0.2150
17053W        W32862   7.710  11.626   0.946  0.2037 -0.0859 -0.0288
17054W        W32863   3.390   3.251  12.024  0.1153 -0.4334  0.0441
17055W        W32864  11.400  17.953   3.940 -0.2045 -0.0824  0.2872
17056W        W32865   6.228   2.534  13.629  0.3096 -0.3476  0.0143
17057W        W32866   2.719  16.629   2.843 -0.0102 -0.2071  0.2144
17058W        W32867   2.829  12.268   5.418  0.3056  0.0865 -0.1949
17059W        W32868   7.216   1.658   3.075 -0.1992 -0.1001 -0.3782
17060W        W32869   7.065   8.119  11.817 -0.0415  0.2310 -0.1506
17061W        W32870   9.940  10.201   0.460 -0.0022  0.0230 -0.2702
17062W        W32871   1.597   2.490   0.870  0.1578  0.2776  0.3643
17063W        W32872   2.747   4.972   3.810 -0.5586 -0.1680  0.0248
17064W        W32873  13.181   9.978  14.867  0.1460 -0.0792  0.3591
17065W        W32874  17.225   1.559  10.077  0.1656 -0.1605  0.1953
17066W        W32875   7.255   6.512   2.602  0.1009 -0.0101 -0.0027
17067W        W32876   9.031  11.912   4.608  0.1566  0.2656  0.2593
17068W        W32877  12.850  18.312   3.567 -0.4004 -0.0780 -0.0789
17069W        W32878   6.371  11.874  11.854  0.0297 -0.0263 -0.2407
17070W        W32879   8.204   2.963   0.883  0.1901 -0.1210  0.2775
17071W        W32880  12.045   5.159  12.805 -0.0913 -0.1218  0.1198
17072W        W32881   3.367  14.620  15.442 -0.2323  0.2222  0.1569
17073W        W32882  14.073   1.112  14.937 -0.0775  0.1317 -0.0408
17074W        W32883   9.947  14.255  15.322 -0.2793 -0.2964  0.0612
17075W        W32884   3.997   8.479   2.563  0.3000  0.0096  0.0242
17076W        W32885   9.171   9.010   4.662  0.0059  0.0595  0.2014
17077W        W32886  17.221  13.402   1.081  0.0441  0.0752  0.1750
17078W        W32887   7.252   9.833  12.693  0.1276  0.3746  0.1556
17079W        W32888  17.758   7.974   1.423 -0.3239  0.1042  0.2086
17080W        W32889  17.961  15.444   0.509  0.0958 -0.2052  0.1788
17081W        W32890   4.280  14.705   1.768  0.1284  0.0447  0.4505
17082W        W32891   1.445  15.451  12.369  0.0242  0.1000  0.0294
17083W        W32892   0.847  15.196   1.037 -0.2723  0.1255  0.1009
17084W        W32893  12.014   0.313   2.390  0.1075  0.2700 -0.0980
17085W        W32894   4.393   0.129  15.152  0.0461  0.2941  0.4600
17086W        W32895   0.208  17.248  13.664  0.0623  0.1520  0.3039
17087W        W32896   9.319  14.950  10.998  0.0285 -0.0214 -0.0567
17088W        W32897   1.630  15.951  10.174 -0.0105 -0.0516 -0.0342
17089W        W32898  12.734  15.992  14.809 -0.1034  0.3452 -0.1593
17090W        W32899   2.057  11.374   4.350  0.0790 -0.0625 -0.2037
17091W        W32900  13.548   4.236  11.671 -0.1215 -0.0962 -0.1678
17092W        W32901  10.297   0.917  14.546 -0.0162  0.0004  0.0597
17093W        W32902   0.407  16.336  13.772 -0.1865  0.2479 -0.0585
17094W        W32903  18.078   7.497   4.829 -0.1571  0.1270 -0.1086
17095W        W32904   2.674   8.482   0.338 -0.2745 -0.0182  0.0524
17096W        W32905  15.144  13.618  13.114 -0.2378 -0.2129 -0.1522
17097W        W32906  17.065   1.586  13.328 -0.2000 -0.4211  0.0336
17098W        W32907  16.869  18.640   2.751 -0.3347  0.1311 -0.1030
17099W        W32908  14.852   6.734   3.289  0.0942  0.1140 -0.0302
17100W        W32909   6.931   8.629  11.576  0.1953 -0.0318 -0.1251
17101W        W32910  15.805   2.237   2.435  0.0450 -0.1394  0.1975
17102W        W32911  15.915   2.254  12.982 -0.2206 -0.2704 -0.2900
17103W        W32912  17.487  15.505  13.745 -0.1108  0.0853  0.0127
17104W        W32913   9.085   3.338   5.761 -0.0394 -0.1497 -0.0257
17105W        W32914  10.159   3.769   3.193  0.0309  0.1383 -0.1153
17106W        W32915   6.422   3.009  13.912  0.0591  0.0971  0.1639
17107W        W32916   8.181   6.729  14.780  0.2078  0.0965  0.1468
17108W        W32917   5.297   7.956  14.443  0.0547 -0.1602  0.3089
17109W        W32918  10.278   8.544   0.570 -0.1254  0.2630  0.1680
17110W        W32919   6.042   9.312  14.143  0.4442  0.0731 -0.2118
17111W        W32920  14.441   3.210  12.241 -0.1152 -0.1194 -0.1325
17112W        W32921   8.395  17.263  13.290  0.1976 -0.1926 -0.3111
17113W        W32922   8.288  14.254   3.554 -0.0573 -0.2719  0.0161
17114W        W32923  13.809   4.829   1.994  0.1082 -0.0244  0.2183
17115W        W32924  15.104  15.434  11.036  0.0514  0.3987  0.0237
17116W        W32925   9.693   2.156  14.960 -0.0987  0.0594  0.1392
17117W        W32926  10.814  17.351   5.150 -0.1601  0.1216 -0.2005
17118W        W32927  10.633  12.186  11.915  0.0727  0.1541  0.2657
17119W        W32928  10.603  10.865   2.796 -0.0309 -0.2182 -0.2299
17120W        W32929   5.647   3.418  13.623 -0.0007  0.1080  0.0639
17121W        W32930   2.159  15.528   1.865 -0.2159 -0.1282  0.2931
17122W        W32931   3.811  10.279   5.617  0.0645 -0.4466 -0.2170
17123W        W32932   1.095  10.969   2.507 -0.0075 -0.1063 -0.2886
17124W        W32933   0.632   2.193  15.024 -0.0896  0.2381  0.0242
17125W        W32934   3.401   0.864   0.836  0.1288  0.0936  0.1011
17126W        W32935  14.782   3.262  15.535 -0.0562 -0.1823 -0.0460
17127W        W32936   2.966   6.505   2.908  0.2573 -0.3774 -0.1890
17128W        W32937  13.694  13.434  14.106  0.0002 -0.0946  0.0862
17129W        W32938  10.579  13.860  15.523  0.0079  0.0941 -0.3859
17130W        W32939  14.437  10.789   2.593  0.2001 -0.0647  0.1842
17131W        W32940   9.125   1.660  12.672  0.1616 -0.0785 -0.1779
17132W        W32941   6.917  10.803   0.696 -0.0193 -0.1808  0.1669
17133W        W32942   4.647   6.711   4.567  0.1526 -0.4415  0.1162
17134W        W32943  11.808  16.517   6.217  0.0079 -0.3745 -0.2656
17135W        W32944  16.227  15.031  10.791  0.1214  0.1293  0.0506
17136W        W32945   2.082  18.352  12.617  0.2335 -0.0241 -0.2484
17137W        W32946  11.891  15.351   6.516 -0.4767  0.0332 -0.0011
17138W        W32947   8.943  12.401  14.232 -0.1003  0.1527  0.1752
17139W        W32948   4.296   1.630  11.718 -0.0182  0.0982  0.3635
17140W        W32949   0.430   9.002   0.663 -0.1024 -0.1274 -0.2019
17141W        W32950  14.393  11.075   0.338  0.0470 -0.0337 -0.0786
17142W        W32951   7.001  10.599   2.788  0.1994  0.1023  0.2918
17143W        W32952   5.278  11.304  12.138 -0.0079 -0.1347 -0.2545
17144W        W32953   4.843   2.830   4.362  0.1618 -0.3076 -0.2350
17145W        W32954  16.959   1.090  13.143  0.1672 -0.1885 -0.3870
17146W        W32955  12.960   5.564  13.959  0.1735 -0.0100 -0.2392
17147W        W32956  17.114  11.539   0.139  0.1648 -0.2966 -0.3111
17148W        W32957   7.388   4.007  11.907 -0.0810 -0.0040  0.0266
17149W        W32958   0.714   2.704   9.918  0.3268 -0.0238 -0.0218
17150W        W32959   8.332  18.459   3.409 -0.0914 -0.2702 -0.0942
17151W        W32960   9.181  17.299  12.440 -0.1019  0.2742 -0.1447
17152W        W32961   0.094   0.647  10.856 -0.1055 -0.1812 -0.2014
17153W        W32962  14.308   3.385  14.830 -0.0082  0.2263 -0.1473
17154W        W32963   9.342  17.461   3.692 -0.1941  0.0561 -0.1559
17155W        W32964  11.428  13.917   2.752 -0.1661 -0.0265 -0.1083
17156W        W32965   3.318  12.103  15.339  0.0082 -0.2500 -0.3508
17157W        W32966   5.029   2.826   3.861 -0.2128  0.1437  0.1467
17158W        W32967  17.990  11.564   1.486  0.1090  0.3008 -0.2394
17159W        W32968   5.831  15.337  12.950  0.1764 -0.0576 -0.1110
17160W        W32969  14.954   1.382   5.367  0.0133  0.1070 -0.0681
17161W        W32970  11.925   5.389   1.472 -0.0139 -0.2339  0.0763
17162W        W32971  10.941  12.499   1.108 -0.2765  0.2258 -0.1529
17163W        W32972   1.323   1.598  11.784  0.2244  0.2085 -0.0202
17164W        W32973   5.103   5.356   4.709 -0.1716 -0.2988 -0.1465
17165W        W32974   4.858  16.360   1.149 -0.2400 -0.0371 -0.1094
17166W        W32975  15.906  17.046   3.865  0.0610 -0.0132  0.2539
17167W        W32976  13.071  17.632  15.008 -0.1019  0.2450  0.0153
17168W        W32977  13.535   8.290   5.669  0.0820  0.1970 -0.2084
17169W        W32978   2.583   1.163  14.731  0.4853 -0.0648 -0.2379
17170W        W32979   7.029   4.344   9.885  0.3025 -0.1891  0.1975
17171W        W32980   7.350   0.630  15.075  0.0235 -0.0551 -0.1002
17172W        W32981  15.526  16.289   3.285 -0.3485 -0.2220 -0.0760
17173W        W32982  10.114   6.291  13.763  0.2620 -0.0657 -0.1411
17174W        W32983   3.263  17.209   3.463  0.0020 -0.0587 -0.0815
17175W        W32984   2.939  15.663   4.965 -0.1473  0.1776  0.3028
17176W        W32985  15.994  16.399   3.404  0.1438 -0.0047  0.0302
17177W        W32986  12.530  10.069   2.588 -0.0188  0.3190  0.3357
17178W        W32987   8.823   4.848  14.454 -0.1351 -0.2955 -0.0718
17179W        W32988  10.840  17.289   0.130  0.0223  0.0321  0.2346
17180W        W32989  16.497  10.175   0.005  0.0479 -0.0975 -0.2443
17181W        W32990   1.338  15.848   4.475  0.2095 -0.1284 -0.0338
17182W        W32991   2.953  11.170  10.322 -0.0218 -0.1258 -0.0840
17183W        W32992  13.465   4.813  15.417  0.2893  0.0274  0.1729
17184W        W32993  17.572   2.230   4.348  0.4127 -0.0940  0.2649
17185W        W32994   1.646   4.266   4.796  0.2338 -0.0166  0.0450
17186W        W32995   2.018   0.563  10.836  0.1799 -0.3444  0.1263
17187W        W32996   6.880  15.196  11.402 -0.0935 -0.1523 -0.0794
17188W        W32997  17.671  11.364  14.235 -0.2624  0.2556 -0.3465
17189W        W32998  15.887  12.985  15.328  0.0122  0.2279 -0.1964
17190W        W32999   6.550   3.237  11.435 -0.1316  0.5583 -0.0469
17191W        W33000   6.017   3.395  14.023  0.3428  0.0060  0.3577
17192W        W33001  17.701  17.619  12.870  0.2552 -0.1265 -0.3534
17193W        W33002   8.792  17.364  12.812  0.1251 -0.3131 -0.1774
17194W        W33003   2.887  16.709   0.097 -0.1927 -0.2589  0.3577
17195W        W33004   8.543  12.466  12.494  0.0334 -0.0659 -0.0575
17196W        W33005   5.434   5.688   1.498  0.0077 -0.0099 -0.3227
17197W        W33006  10.573  15.447   4.566 -0.0119  0.0617  0.1796
17198W        W33007  13.345  16.225  14.410  0.1258 -0.1239  0.3745
17199W        W33008  10.900  17.841  11.236 -0.0578  0.0452 -0.0191
17200W        W33009  15.145   9.160   4.576  0.1068 -0.2329  0.1833
17201W        W33010   9.469   0.758  11.739 -0.0192 -0.1858  0.1168
17202W        W33011  16.031  17.495  13.283 -0.1057  0.0276 -0.0821
17203W        W33012  11.723  14.325  12.133 -0.1310  0.0706  0.1042
17204W        W33013  16.148   3.401   5.247  0.4349 -0.1950  0.3497
17205W        W33014   9.925  15.926  14.523  0.1070 -0.0427 -0.0800
17206W        W33015   6.818  16.919  12.648  0.1166 -0.3436 -0.2188
17207W        W33016   2.907   0.787   0.798 -0.3741 -0.0764  0.0793
17208W        W33017   9.751  11.788  11.717  0.1305  0.1063  0.0644
17209W        W33018  16.697   9.106   2.264 -0.0833  0.3148  0.2555
17210W        W33019   2.085   3.426   2.235  0.0512 -0.0910  0.1310
17211W        W33020   8.520  12.209   1.384  0.2724 -0.1588  0.4717
17212W        W33021  17.050   0.280   0.084 -0.0427 -0.0278 -0.0055
17213W        W33022   9.936   5.845   2.903 -0.0974  0.1093 -0.4127
17214W        W33023   5.572  13.554  15.318  0.3326 -0.2298 -0.0290
17215W        W33024  13.448   9.431   3.787 -0.0820 -0.0692  0.1303
17216W        W33025  14.671  14.610  11.113  0.1842  0.0420 -0.2758
17217W        W33026   7.206  17.118   4.308  0.2223  0.1504  0.1624
17218W        W33027   3.343   0.450  15.093 -0.2981  0.2648 -0.2170
17219W        W33028   8.122   6.258  14.591  0.0957 -0.0300  0.1099
17220W        W33029   4.859   8.925   2.801 -0.1619  0.1119 -0.2318
17221W        W33030   0.980   5.402  10.818 -0.0986  0.1104  0.3131
17222W        W33031  17.691   8.904  13.227 -0.0931  0.0419  0.1500
17223W        W33032   8.971  13.162  14.150 -0.3251  0.3169 -0.0665
17224W        W33033   0.065  12.833  14.832 -0.1685 -0.3737  0.0104
17225W        W33034   4.176  15.801   4.257  0.0467  0.0535 -0.1226
17226W        W33035   4.670  15.347  12.521 -0.0262 -0.2563  0.0202
17227W        W33036  11.945   5.111   4.916 -0.1849 -0.0783  0.1847
17228W        W33037  15.235  18.205  15.252  0.1259  0.2495  0.0804
17229W        W33038   5.116  15.453   2.531  0.0700 -0.0624  0.1730
17230W        W33039  10.522   6.628  13.896  0.0535  0.0403  0.1391
17231W        W33040   4.752  17.656  11.131 -0.1391  0.4249  0.0550
17232W        W33041   9.950   5.252   0.460  0.0453  0.1942  0.0876
17233W        W33042   6.449   4.959   0.573 -0.1317  0.0915 -0.2734
17234W        W33043   3.954   9.700   1.195  0.0749  0.0672  0.3484
17235W        W33044  18.664  11.777   2.304 -0.0174  0.0696 -0.6918
17236W        W33045   9.424   4.994   4.323  0.2326  0.2025 -0.4190
17237W        W33046   8.273   1.379   4.828  0.3418  0.0532 -0.0389
17238W        W33047   8.947  18.260   2.511 -0.4473 -0.1126 -0.1682
17239W        W33048  14.425  15.511   0.693 -0.1547 -0.1202 -0.3260
17240W        W33049  13.438  13.356  12.008  0.0346  0.0088 -0.0715
17241W        W33050   6.080   8.380   1.767 -0.1262 -0.2820 -0.1510
17242W        W33051   7.389   5.275   5.820  0.0592 -0.2628  0.0538
17243W        W33052  18.044  14.349  13.743  0.2473  0.0642  0.0712
17244W        W33053   2.134   0.555  12.972 -0.0962 -0.0396 -0.0512
17245W        W33054   6.823   0.020   1.055 -0.0361  0.3175 -0.0895
17246W        W33055  11.000  16.018  12.527 -0.1999  0.0331 -0.0311
17247W        W33056  10.320   0.504   1.499 -0.3355  0.2308 -0.1176
17248W        W33057  18.595  10.766   4.176 -0.0749  0.2414 -0.0143
17249W        W33058  13.755  16.199  14.869 -0.0963  0.2234  0.1669
17250W        W33059   2.429  13.065  12.819 -0.0462  0.0477 -0.2035
17251W        W33060  15.320   3.798   0.723 -0.2027  0.1325 -0.1768
17252W        W33061  14.048   8.332  13.751 -0.0929 -0.2387 -0.2019
17253W        W33062  17.994  11.689  14.551  0.1741  0.1576  0.1159
17254W        W33063   7.383  15.252  14.429  0.0196 -0.2862  0.2689
17255W        W33064  12.048   5.939   6.285 -0.1682 -0.0772 -0.0365
17256W        W33065  15.468  10.677  13.473  0.2867  0.2153  0.2445
17257W        W33066  16.699   4.868   1.747  0.0543 -0.1260 -0.1978
17258W        W33067  16.420   9.564  12.282 -0.1307  0.2897  0.0412
17259W        W33068  13.728   1.813   6.342  0.4569 -0.3147  0.0489
17260W        W33069   1.864  17.431   1.772  0.0683 -0.0087 -0.1055
17261W        W33070   1.677  16.616  14.976 -0.2100 -0.0553 -0.1659
17262W        W33071  13.260   4.454   0.068 -0.0624 -0.0762  0.1130
17263W        W33072  12.749  10.678   6.006  0.0840 -0.1385 -0.0347
17264W        W33073   5.085   4.597   4.483 -0.1112 -0.2517 -0.0915
17265W        W33074  13.349  15.409  11.303 -0.2559  0.0971 -0.2509
17266W        W33075  17.015   9.995   4.762  0.0773 -0.0678  0.2004
17267W        W33076  17.093  14.170  11.953  0.1850  0.2618 -0.2225
17268W        W33077  15.525  15.033  14.638 -0.1421 -0.0110  0.1379
17269W        W33078   0.032   8.746   4.997 -0.0549  0.0202  0.3069
17270W        W33079  12.004   4.658   3.166 -0.1062  0.1081  0.1612
17271W        W33080  16.412  14.025   2.661 -0.2371  0.2163 -0.0241
17272W        W33081  13.043  16.464  13.584  0.0644  0.0345  0.1349
17273W        W33082   9.863  17.393   1.621 -0.2284 -0.2802  0.1406
17274W        W33083  11.655   0.327  15.518  0.2135 -0.0880  0.0157
17275W        W33084   5.326   2.136  11.108 -0.2815 -0.2121 -0.1898
17276W        W33085  10.151  12.757  11.520  0.0036  0.0024  0.3355
17277W        W33086   5.426  13.191  10.470 -0.2213  0.1156 -0.2086
17278W        W33087   1.523  16.031  10.650 -0.0731  0.3106  0.0589
17279W        W33088  10.433  11.077  14.405  0.1637  0.2823 -0.1536
17280W        W33089  12.699   2.542   4.838  0.0388  0.0472  0.3149
17281W        W33090   7.116   2.985   3.045  0.1266 -0.4346 -0.0874
17282W        W33091   6.172   1.102   3.674  0.0550 -0.2040 -0.0137
17283W        W33092  12.369   3.250  14.849 -0.0225 -0.0836 -0.4644
17284W        W33093   3.875   8.071   0.631  0.0171  0.4083  0.2565
17285W        W33094  17.865  15.969   4.632  0.0487  0.1626  0.3114
17286W        W33095   0.801   0.986  12.057  0.1427 -0.0950  0.3654
17287W        W33096  17.134   2.183  10.977  0.1513 -0.1577  0.1265
17288W        W33097   6.690  13.755  15.170 -0.0684  0.3567 -0.1704
17289W        W33098   1.714  10.330  15.428  0.3092  0.1312 -0.4721
17290W        W33099   0.545  13.525   4.567 -0.0218 -0.0489 -0.0003
17291W        W33100  11.462  10.160   4.934 -0.2122  0.2778 -0.0792
17292W        W33101   0.792   2.816   3.785 -0.0181 -0.1616  0.0234
17293W        W33102  14.170  17.428   0.394  0.0834 -0.0022  0.1221
17294W        W33103  18.157   7.404   3.133  0.2143 -0.1590  0.5667
17295W        W33104   4.839  18.517   0.288 -0.1701 -0.3939  0.0259
17296W        W33105   0.867   4.626  10.309  0.2591 -0.3733 -0.2652
17297W        W33106   2.909  17.580  12.727  0.2317  0.0987  0.0309
17298W        W33107   6.528  18.067   0.556  0.1115 -0.0496  0.0087
17299W        W33108  15.211   5.662  15.270  0.3737 -0.0261  0.1493
17300W        W33109  15.126  18.441  13.532 -0.1382 -0.0828  0.2880
17301W        W33110  14.613   2.383  14.404 -0.2110 -0.0411  0.2062
17302W        W33111  15.285   7.020  14.149 -0.0012 -0.1964  0.1090
17303W        W33112  13.143   3.622   5.299  0.0711 -0.3372 -0.0427
17304W        W33113  12.770  12.424  13.450  0.0450  0.1116  0.0973
17305W        W33114  16.716  13.092   0.523  0.0887  0.0426  0.1785
17306W        W33115  16.231   5.952  11.440 -0.2083  0.0641 -0.2905
17307W        W33116   4.879   3.397   2.692 -0.4699 -0.1324 -0.0737
17308W        W33117   6.470   5.574   4.387 -0.2244 -0.0566 -0.3557
17309W        W33118   1.619   6.123  12.557 -0.1720 -0.1174 -0.1069
17310W        W33119   6.064   0.852   4.164 -0.2155 -0.0486  0.1202
17311W        W33120  15.186   8.654   0.821  0.1556  0.2497  0.0996
17312W        W33121  17.913   4.209  12.845 -0.2510 -0.0840  0.0444
17313W        W33122  12.227  15.017   3.278  0.0634  0.3421 -0.1388
17314W        W33123  18.200   5.609  12.639 -0.0500 -0.0716  0.1511
17315W        W33124   1.954   5.072  13.560  0.3796 -0.2976 -0.1019
17316W        W33125   9.562  15.336   0.555 -0.1277 -0.0876 -0.2241
17317W        W33126  13.029  18.227   1.548  0.1345  0.1369 -0.1479
17318W        W33127   8.299   1.035  12.000 -0.0771 -0.1056 -0.2284
17319W        W33128  14.246   2.161   0.250  0.1306  0.1303 -0.0060
17320W        W33129   0.211  13.674  12.312 -0.0456  0.2648 -0.4133
17321W        W33130   2.168  15.805   4.501 -0.2214 -0.2793 -0.1259
17322W        W33131   8.012  18.399   6.422 -0.1904 -0.1330 -0.2455
17323W        W33132   9.503   8.917   0.848  0.1650  0.1675  0.0894
17324W        W33133  17.616  14.633   0.794  0.2755 -0.0105  0.3443
17325W        W33134   2.692  14.669  13.823 -0.1550  0.1319 -0.2437
17326W        W33135   5.810   1.744   3.993 -0.0383 -0.2406  0.3922
17327W        W33136   0.760  14.115   0.555 -0.0220  0.2750 -0.0442
17328W        W33137   1.782   9.501   4.573 -0.2406  0.0240 -0.1902
17329W        W33138  15.763   0.615   0.288 -0.1073 -0.2154  0.1934
17330W        W33139   5.006   8.995  10.934  0.3725  0.0232  0.0245
17331W        W33140  14.278   7.409   3.205  0.1058  0.0961 -0.0077
17332W        W33141   9.730   6.242   0.532  0.0878 -0.0983  0.0973
17333W        W33142  13.459  15.931  12.438  0.0361  0.1930  0.1225
17334W        W33143   5.477   9.161   0.256  0.1558 -0.0170  0.1753
17335W        W33144   5.195  15.835   4.400 -0.0527 -0.3913 -0.0802
17336W        W33145  17.320  11.483  13.916  0.2389  0.0486  0.0831
17337W        W33146  17.622   9.225   1.983  0.1770  0.1546  0.1811
17338W        W33147  17.649   9.611  14.323  0.2627 -0.0961  0.0365
17339W        W33148  16.369   2.087   2.992  0.0700 -0.3224 -0.2750
17340W        W33149  10.699   8.520   5.686 -0.1367  0.1853  0.1012
17341W        W33150  12.681  16.644   2.916  0.1325 -0.0710 -0.1144
17342W        W33151  10.951   3.646  15.027  0.2420  0.2218 -0.1664
17343W        W33152   8.044   8.481  11.690  0.1292  0.0430 -0.1796
17344W        W33153  12.985  13.827  10.775  0.1265  0.0901 -0.0424
17345W        W33154  10.575  12.817   3.529  0.2072  0.1518 -0.2116
17346W        W33155   1.401  16.245  12.862 -0.0817  0.4692  0.0067
17347W        W33156  10.247  12.243   0.718  0.0374 -0.0322  0.3453
17348W        W33157   2.521   6.154   0.963 -0.0477 -0.2139  0.1044
17349W        W33158  13.002  15.473  12.766  0.0142 -0.0308  0.0535
17350W        W33159   1.633  18.448  14.465 -0.1456 -0.0969 -0.1099
17351W        W33160  12.918  14.987  11.330  0.0299 -0.2029  0.1657
17352W        W33161   0.454  18.032  10.874  0.1192 -0.2728 -0.3043
17353W        W33162  13.817   4.410  11.177 -0.0266  0.0197 -0.0990
17354W        W33163   1.331   1.295   2.280  0.0025  0.1688 -0.0289
17355W        W33164  16.735  13.264   4.844  0.2735  0.1140  0.1370
17356W        W33165  14.491   6.422  11.813 -0.3077  0.3167 -0.0415
17357W        W33166  10.358   4.731  12.835 -0.0983  0.2457  0.0263
17358W        W33167  12.948   3.816   2.242 -0.0518  0.0541 -0.0327
17359W        W33168   7.023   6.124   3.422  0.0404 -0.2201  0.1472
17360W        W33169   9.768  17.320  11.439 -0.0771 -0.0881  0.0526
17361W        W33170  13.060  13.254  11.177  0.0402  0.2477 -0.0576
17362W        W33171   8.095  12.361   3.565  0.1286  0.0838  0.1068
17363W        W33172   8.762   8.788  13.873 -0.1844 -0.0841  0.2010
17364W        W33173  17.311  16.286   0.340  0.3517  0.1550  0.3205
17365W        W33174   3.386   6.655   2.707  0.0609  0.0451  0.2958
17366W        W33175  18.522  11.584   4.410 -0.0066  0.3983 -0.3924
17367W        W33176  15.722   5.877  15.057 -0.1567 -0.2183 -0.0421
17368W        W33177  10.338   5.753   1.017 -0.1025 -0.1582  0.0091
17369W        W33178  14.937   0.061  12.026  0.2105 -0.0216  0.1378
17370W        W33179   7.366   8.956  14.436  0.1422  0.0392 -0.0091
17371W        W33180   9.645   8.212   2.525  0.1998  0.0011  0.1781
17372W        W33181  10.330  17.043  15.006 -0.0499  0.0752  0.2533
17373W        W33182   6.037  14.811  14.755  0.2906 -0.1306  0.0389
17374W        W33183  14.430  18.623  12.066  0.1806 -0.2638  0.1410
17375W        W33184  15.355  15.909  12.820 -0.2620 -0.3836  0.0553
17376W        W33185  14.407   7.945  11.629  0.2505  0.0492  0.0362
17377W        W33186  17.913  15.547  15.130  0.0840  0.0950 -0.1491
17378W        W33187   6.018  11.268   5.303  0.0128 -0.1273  0.1478
17379W        W33188  11.815  15.398   3.977 -0.1950  0.4196  0.1835
17380W        W33189  16.602   6.282   4.450  0.0940  0.0794 -0.2124
17381W        W33190   7.245   2.804  13.688  0.1385 -0.0095 -0.0380
17382W        W33191   3.895  13.378   3.766 -0.2234  0.1467 -0.1615
17383W        W33192   9.358   7.930  12.582 -0.1079  0.1464  0.0029
17384W        W33193   3.219   8.752  10.443  0.1383 -0.0141 -0.2426
17385W        W33194   6.124   5.709   2.494  0.1301  0.0072  0.0295
17386W        W33195   7.021  17.321  13.078 -0.2340  0.3796 -0.2039
17387W        W33196  14.376  12.700   0.960 -0.2919 -0.4146 -0.0337
17388W        W33197  16.065  17.212   0.481  0.0753  0.2516 -0.2762
17389W        W33198   9.970  12.264  11.671  0.0155  0.0933 -0.1055
17390W        W33199   1.593  16.553  11.710  0.0924  0.0059  0.1311
17391W        W33200   0.100   0.688   4.363  0.0393  0.0186 -0.1154
17392W        W33201  11.987  15.449  13.620  0.2747 -0.0776  0.0180
17393W        W33202   4.490   4.760  12.063 -0.0405  0.0313  0.0864
17394W        W33203   2.812  17.142   0.564 -0.1837 -0.0102 -0.0199
17395W        W33204  14.571  13.927   0.370  0.1586  0.2734 -0.1137
17396W        W33205  11.667   5.911   3.123  0.1076 -0.1041 -0.0498
17397W        W33206  12.582  15.302   5.719  0.4597 -0.1720 -0.0042
17398W        W33207   5.447  12.009   0.340 -0.3729  0.1973 -0.2985
17399W        W33208   4.443   0.176   3.093  0.0050  0.0354 -0.1185
17400W        W33209   5.886  11.247  12.847 -0.0164 -0.1545  0.1039
17401W        W33210   2.126   6.489  12.063 -0.0002 -0.2311 -0.2276
17402W        W33211  17.087  12.640   4.712 -0.1653  0.0904  0.2119
17403W        W33212  12.997  13.959  13.307 -0.0595  0.0870 -0.1980
17404W        W33213  18.527   7.480  12.832  0.1442 -0.1029 -0.1976
17405W        W33214   1.524   3.206   3.562 -0.0003  0.0370  0.0800
17406W        W33215   1.199  17.645  11.312  0.1985  0.2050  0.1362
17407W        W33216   6.189  10.820  15.101 -0.0753 -0.1057  0.2618
17408W        W33217  16.518  13.602  14.378 -0.0518 -0.0916 -0.3816
17409W        W33218  15.017  15.956   2.516  0.1121 -0.0095 -0.1976
17410W        W33219   1.218   2.500  12.222 -0.1809  0.1749  0.1282
17411W        W33220  11.930   2.697  11.802 -0.0236 -0.0087  0.2474
17412W        W33221   3.766   8.067  13.232 -0.0133  0.0787 -0.2133
17413W        W33222   0.494   7.110   1.189  0.1780 -0.0137 -0.0523
17414W        W33223   0.854  16.715   2.095  0.0818 -0.2683  0.0499
17415W        W33224   4.558   8.481   2.515 -0.0219  0.1812  0.1703
17416W        W33225   4.011  18.128  11.996  0.0229 -0.2786 -0.0270
17417W        W33226   0.748   1.445   3.981  0.0037 -0.0950  0.0945
17418W        W33227   0.809   6.806  11.286  0.2934  0.0494 -0.2212
17419W        W33228   8.186  16.640  15.004 -0.2815  0.0699 -0.1943
17420W        W33229   8.486  17.663  13.015 -0.0803  0.0730 -0.0082
17421W        W33230   1.120  13.001  14.857 -0.1219  0.0327 -0.0749
17422W        W33231   0.265  14.357   1.922 -0.1054 -0.0922  0.2359
17423W        W33232   6.898  12.123   2.179  0.3071  0.0895  0.2287
17424W        W33233   8.098   4.692  11.815  0.2454  0.0338  0.1176
17425W        W33234   0.827  18.317   3.204 -0.2809  0.0394 -0.0144
17426W        W33235   9.406   1.979   2.652 -0.0797 -0.1377 -0.1454
17427W        W33236   3.454   3.759  12.093 -0.2591 -0.1077 -0.2788
17428W        W33237  11.382  13.662   5.805  0.4882  0.3405  0.2918
17429W        W33238   1.107  10.892  13.984 -0.0409 -0.1164  0.1806
17430W        W33239  18.436   0.766  13.900 -0.3701 -0.0301 -0.2462
17431W        W33240  18.644   1.455  14.297 -0.0510  0.0417  0.0680
17432W        W33241  14.109   8.986  13.950 -0.0367  0.0581  0.1118
17433W        W33242  17.259  11.095   4.247  0.0649  0.2156 -0.3864
17434W        W33243  17.501   5.118   4.401 -0.4845  0.0996  0.0703
17435W        W33244   2.318   7.723  14.912 -0.0019 -0.0151 -0.2446
17436W        W33245   0.320  17.899   0.233 -0.2021 -0.1392  0.0654
17437W        W33246  14.450  13.019  11.923 -0.2649  0.3038  0.3419
17438W        W33247   7.757   3.955   3.247 -0.2074 -0.1071 -0.3648
17439W        W33248   6.460  10.716  14.549  0.0065  0.2335  0.1051
17440W        W33249   8.774  15.245   0.528 -0.0697  0.2053  0.0265
17441W        W33250  13.434   0.987  13.818  0.0189  0.0025  0.1252
17442W        W33251   1.265   3.726   2.704  0.0864  0.1703 -0.2714
17443W        W33252   3.532   7.073  12.009  0.0829 -0.2394  0.0800
17444W        W33253   8.285   7.496  11.789 -0.2890 -0.1515  0.2748
17445W        W33254   4.531  13.583   4.404 -0.2154  0.2983 -0.1809
17446W        W33255   5.157   5.014  14.308 -0.1252 -0.2699 -0.0842
17447W        W33256   0.231  17.836  13.469  0.0255 -0.4199 -0.2172
17448W        W33257   6.436  12.996   2.639  0.1899 -0.2576  0.2250
17449W        W33258   4.273  18.332  15.045  0.1554  0.3036 -0.3300
17450W        W33259   6.955   3.277   4.355  0.0828  0.3885  0.2417
17451W        W33260  15.299  15.069   2.195 -0.0171 -0.0746  0.0175
17452W        W33261   7.921   7.056  10.534 -0.0577  0.3308 -0.0274
17453W        W33262   3.931   5.343  11.773  0.1000 -0.0479  0.3082
17454W        W33263  16.772   7.312   9.569  0.0196 -0.1200  0.1273
17455W        W33264   2.684   6.500  10.992  0.0161  0.1073  0.0741
17456W        W33265   3.491   0.160  11.234 -0.1411 -0.3040  0.1076
17457W        W33266   6.786   7.395  11.546 -0.3925  0.3033 -0.0818
17458W        W33267   6.549  13.281  14.989 -0.1948 -0.4978  0.2034
17459W        W33268   4.990  10.014   0.632  0.1673 -0.1166 -0.0302
17460W        W33269  16.559   8.437  11.299  0.2863 -0.0160  0.2717
17461W        W33270   7.441  16.074   2.696  0.1714  0.0975 -0.1000
17462W        W33271   5.629  14.678  15.201 -0.0108  0.1186 -0.1362
17463W        W33272  15.779   0.358   4.923  0.2151 -0.1098  0.2431
17464W        W33273   4.387   7.308   4.884 -0.1085  0.0108  0.0414
17465W        W33274   1.618  13.233   0.102  0.2513 -0.0796  0.0996
17466W        W33275   0.407   9.272   2.265  0.0645  0.2032 -0.1328
17467W        W33276   1.955   4.443  14.836  0.0879 -0.2478  0.1616
17468W        W33277   9.582  11.792  13.106  0.0561  0.1006 -0.0831
17469W        W33278   3.750  14.985  15.608  0.2403 -0.1056  0.4825
17470W        W33279  18.185   8.358   2.016 -0.1499  0.0066 -0.1175
17471W        W33280   9.728   6.666  13.660  0.1681  0.2551 -0.0967
17472W        W33281   1.119   2.668   2.931  0.4390 -0.0511  0.0356
17473W        W33282  12.848   2.176   1.085 -0.1704  0.0530 -0.2271
17474W        W33283   2.337   0.859  11.760 -0.1908  0.4154  0.0259
17475W        W33284  17.508  15.941   2.723  0.2256  0.1071  0.0519
17476W        W33285   9.607  15.113   3.575 -0.1131  0.1486  0.0825
17477W        W33286  10.786   1.527   3.885 -0.3143 -0.1170 -0.4214
17478W        W33287   7.631  14.120  12.858  0.1197  0.1186 -0.1121
17479W        W33288   4.132  17.227   0.015  0.1120 -0.1822 -0.0938
17480W        W33289   6.188  12.335   3.772  0.2486 -0.1120  0.2300
17481W        W33290   2.445   0.375  10.576  0.1536 -0.2829 -0.1717
17482W        W33291   7.824  13.156   3.911 -0.1769  0.2735 -0.0041
17483W        W33292  15.249  18.224   1.977 -0.1267 -0.3203 -0.1065
17484W        W33293   2.236  15.063   5.042 -0.3344  0.1363  0.2591
17485W        W33294  10.288   9.248   1.478  0.1597  0.0015  0.2331
17486W        W33295  12.571   3.044  12.511 -0.1269 -0.3922 -0.0347
17487W        W33296  18.289  10.812   4.784 -0.0648 -0.1052  0.0877
17488W        W33297  15.929   2.967   0.067 -0.0005  0.1866  0.5990
17489W        W33298  18.140  10.504  12.822  0.1091  0.3664  0.0325
17490W        W33299  10.504  12.235  13.375 -0.0150 -0.0645  0.0149
17491W        W33300   8.041  14.677   4.869 -0.3544 -0.4691 -0.0101
17492W        W33301   1.729  12.589  12.377 -0.0679 -0.0080 -0.2191
17493W        W33302   2.004  11.139  15.042 -0.0787  0.3813  0.3769
17494W        W33303  17.567   2.592   2.782  0.1158  0.2303  0.1207
17495W        W33304  17.362  12.463   2.706  0.1461 -0.0078  0.0975
17496W        W33305  17.664  10.867   4.804  0.2185 -0.2851  0.1127
17497W        W33306   5.052  13.399   0.481 -0.0669 -0.2362 -0.0597
17498W        W33307  13.786   7.847  12.812  0.1249  0.0891 -0.0374
17499W        W33308  10.183   8.932   3.466  0.1967  0.0441  0.0373
17500W        W33309   1.253  13.805  15.198  0.1095 -0.0829 -0.1160
17501W        W33310   9.963  14.227  12.022  0.0555 -0.1097 -0.2910
17502W        W33311   1.629   8.263  14.136  0.2672  0.2243 -0.0753
17503W        W33312   7.887  15.831   5.020  0.2109 -0.1033 -0.4290
17504W        W33313  16.676   3.334   3.434 -0.2269  0.1633  0.2253
17505W        W33314   2.638   8.157  11.466 -0.0818 -0.0683  0.0800
17506W        W33315  12.070   2.289   1.336  0.4225  0.0060  0.0872
17507W        W33316   2.921   9.643  14.728 -0.0417 -0.0103 -0.0872
17508W        W33317  16.129   9.932  11.136 -0.0192  0.0467  0.3068
17509W        W33318  11.906  13.760  12.985  0.1981  0.1850 -0.1411
17510W        W33319   3.858  18.555   4.219 -0.1997  0.0522  0.0908
17511W        W33320  14.546   0.294   0.476 -0.0957 -0.2038  0.1031
17512W        W33321  13.432  15.800   0.090 -0.0312 -0.0042 -0.0318
17513W        W33322   1.081   0.162  14.033 -0.3802 -0.0396 -0.3526
17514W        W33323  16.070   1.707   5.752 -0.0489 -0.1716 -0.0036
17515W        W33324   3.818  18.436  14.398 -0.0354  0.0931 -0.2139
17516W        W33325   6.293  15.143   0.444 -0.0510 -0.0754 -0.1412
17517W        W33326   4.875   1.099   5.458  0.3084 -0.3416  0.0133
17518W        W33327  12.055   0.080  14.767 -0.1999  0.1114  0.2807
17519W        W33328  15.562  12.841  11.233  0.2508  0.0091  0.0606
17520W        W33329   0.256   7.915  10.494  0.0650  0.1766 -0.1564
17521W        W33330  14.848   7.922  13.966  0.0998  0.4991  0.0648
17522W        W33331  11.407  16.538  14.992  0.3763  0.1512  0.0315
17523W        W33332   7.251  17.390   0.175 -0.1323 -0.2831 -0.0905
17524W        W33333  10.962   9.778  13.383 -0.0759  0.0570  0.0745
17525W        W33334   6.718   8.024  12.291 -0.0519  0.0759 -0.1881
17526W        W33335  12.905   3.081   5.725 -0.0318  0.0355  0.0468
17527W        W33336  11.039  18.381   2.207 -0.0336 -0.0283  0.1907
17528W        W33337   4.206  16.220   0.336  0.2743  0.0077  0.0147
17529W        W33338   2.948  12.763  12.226  0.0913 -0.2163 -0.1374
17530W        W33339  17.687  16.724   4.054  0.1669 -0.1181 -0.0356
17531W        W33340   3.418   6.698  12.990  0.0727  0.0077  0.1609
17532W        W33341  16.657   8.894  12.739 -0.0628  0.2143  0.0284
17533W        W33342   4.499   9.291  12.750  0.3458  0.1433  0.3186
17534W        W33343   1.133  14.329   5.362 -0.0309  0.1318  0.2782
17535W        W33344   8.051  14.593   1.508 -0.2137 -0.0892  0.3662
17536W        W33345   4.689  10.275  12.364 -0.0078  0.0842  0.0305
17537W        W33346  11.165   6.073   5.648  0.2402  0.1539 -0.1399
17538W        W33347   0.596  14.027  11.664 -0.1768  0.1666 -0.0582
17539W        W33348   0.551  14.143   2.750  0.0414  0.1084 -0.0445
17540W        W33349   8.101   1.044  14.623  0.0527  0.2260 -0.0945
17541W        W33350  16.870  15.207   0.583 -0.0902  0.0574  0.1172
17542W        W33351   1.684   5.905   3.182 -0.0915  0.1194 -0.0661
17543W        W33352  10.527  16.096   3.175  0.2445 -0.2159  0.1051
17544W        W33353  14.964   6.623  12.986  0.0717 -0.3482  0.0282
17545W        W33354   1.582  14.151   3.824 -0.2650  0.1727  0.2012
17546W        W33355  15.334   0.367   0.105  0.2049  0.1308  0.0791
17547W        W33356  18.656   4.590   4.940 -0.1849 -0.1409  0.1369
17548W        W33357   5.634   6.216  10.980  0.0196 -0.0109  0.0460
17549W        W33358  12.629  15.714  13.014 -0.1263  0.0396  0.1392
17550W        W33359   0.048   3.193  12.153 -0.0747  0.2966 -0.0519
17551W        W33360   7.982   0.074   3.698  0.2787  0.3244 -0.2598
17552W        W33361  18.399   4.620  10.670  0.0942 -0.0274  0.3751
17553W        W33362  17.919  17.870  13.257 -0.1911  0.2461 -0.1036
17554W        W33363   3.950  18.562  15.340  0.3709  0.0541  0.0252
17555W        W33364  17.140  14.552   2.854  0.1279  0.2194 -0.2197
17556W        W33365  12.976  14.466   3.062 -0.3562  0.0097  0.2058
17557W        W33366   5.660   3.551  11.885 -0.0271  0.0558 -0.4505
17558W        W33367   7.279   7.838   2.481  0.1045  0.2399 -0.2747
17559W        W33368  18.056   8.937  12.201  0.1331 -0.5547  0.1583
17560W        W33369  13.424   6.909   3.366  0.0593  0.3035 -0.1717
17561W        W33370   1.765  15.932   4.754  0.1699  0.2369 -0.3373
17562W        W33371  16.608   9.613   0.166 -0.0908 -0.0656 -0.0321
17563W        W33372  10.647  10.982   3.556 -0.0797 -0.1639 -0.1289
17564W        W33373   0.940   0.875  13.394  0.1234 -0.0340  0.1166
17565W        W33374   8.719  13.414   4.994  0.1920 -0.0767 -0.1200
17566W        W33375  14.242   5.175  11.312  0.0430  0.1607 -0.0624
17567W        W33376   5.332   3.727   3.496  0.0632 -0.0251  0.1985
17568W        W33377  14.796  10.532   1.334 -0.0493  0.0555  0.2013
17569W        W33378   7.112  12.718   2.011 -0.1021  0.0962  0.0710
17570W        W33379   9.614  15.205  11.631  0.0381  0.0658 -0.0941
17571W        W33380  12.348  17.243   5.436  0.1371 -0.3310  0.3769
17572W        W33381  15.940  15.348   0.387 -0.3803  0.0682 -0.2491
17573W        W33382   5.889   3.969  12.040  0.1658 -0.1431  0.2189
17574W        W33383  10.839   6.777  13.524 -0.0361  0.2112 -0.2212
17575W        W33384   1.832   7.188  11.951 -0.2088 -0.1475  0.1302
17576W        W33385  14.006  17.508   0.935 -0.0625 -0.2376  0.2625
17577W        W33386   0.413   6.362   3.388  0.0230  0.0037 -0.2049
17578W        W33387  13.352  17.715   0.752 -0.0614 -0.0842 -0.4629
17579W        W33388   4.235  17.587   3.333  0.0948  0.0570 -0.0157
17580W        W33389  15.719  11.280  10.301 -0.0022  0.2550  0.4303
17581W        W33390  10.350   3.891   5.084  0.1538  0.1065  0.0682
17582W        W33391  18.370   9.540   2.459 -0.0745  0.1455 -0.0267
17583W        W33392  14.248   3.024   5.202 -0.2669  0.0697  0.2817
17584W        W33393   9.498  11.138  14.973 -0.1577  0.1950 -0.2655
17585W        W33394   4.368  11.848  15.185 -0.0345  0.0821  0.0762
17586W        W33395  10.664  15.704  13.973  0.1867 -0.1746  0.0586
17587W        W33396  18.026  11.643   4.277 -0.1640 -0.3035  0.2506
17588W        W33397   6.246   0.305  15.158 -0.0574 -0.1693  0.4257
17589W        W33398   1.474   7.157   4.434  0.0863  0.3171  0.0011
17590W        W33399  16.333   1.306  13.491  0.2673  0.1606  0.0671
17591W        W33400  17.026  14.003  10.732 -0.0612  0.2535 -0.0729
17592W        W33401  12.092   0.048   5.828  0.1714 -0.1542  0.1747
17593W        W33402  12.314   2.881  12.124  0.1511  0.2067 -0.1437
17594W        W33403  15.348  18.461  12.121  0.1193  0.2314 -0.1421
17595W        W33404   3.805   0.832   5.195 -0.3297  0.1614  0.0123
17596W        W33405   4.816   7.572   4.183  0.2866 -0.0924  0.2821
17597W        W33406   3.872   5.288  11.290 -0.0219 -0.1052  0.1469
17598W        W33407  12.699  16.713   1.943 -0.1075  0.1147 -0.0288
17599W        W33408   3.846   9.209   2.905  0.1357 -0.0208 -0.2430
17600W        W33409  15.291   5.441  11.397 -0.0555  0.2135  0.0039
17601W        W33410  13.822  16.152   3.872  0.1984 -0.2356 -0.4279
17602W        W33411   9.240   1.963   6.204  0.0915  0.0002 -0.3501
17603W        W33412   9.839  11.667  13.519  0.0170 -0.2051  0.0712
17604W        W33413  14.987   1.227  12.736 -0.0163  0.1142  0.1088
17605W        W33414   3.325   4.712  11.820 -0.2259 -0.0880  0.0679
17606W        W33415  12.261   7.152  13.549 -0.1749  0.1135 -0.2614
17607W        W33416  18.439   3.951   9.940 -0.0090  0.2515 -0.0253
17608W        W33417  16.216   7.223  12.861 -0.0719 -0.0671 -0.2369
17609W        W33418   5.506   7.675  11.970  0.1875  0.1276  0.0136
17610W        W33419  13.154   5.404   3.910 -0.0687 -0.4673 -0.4517
17611W        W33420   4.554   5.764   4.322  0.0947 -0.1290 -0.0075
17612W        W33421  10.917   5.718   0.950 -0.1570 -0.0722  0.2450
17613W        W33422  12.099   6.797   1.131  0.2609  0.0837 -0.0307
17614W        W33423   5.059   7.806   2.644  0.1567 -0.2535 -0.0193
17615W        W33424  17.341   0.232  12.092  0.1943 -0.0937  0.0497
17616W        W33425  13.824   2.992   2.257 -0.0560  0.0257  0.3210
17617W        W33426  14.524   9.351  14.820  0.1385  0.0176  0.2271
17618W        W33427   4.442  13.670   1.129 -0.1883 -0.0243 -0.0306
17619W        W33428  14.715   1.262  12.154  0.0256 -0.0344 -0.0546
17620W        W33429   9.718   8.667   2.800  0.1883 -0.2355  0.0384
17621W        W33430   6.393   6.475  11.933 -0.0843 -0.0190  0.2127
17622W        W33431   3.457  13.674   3.521  0.2693  0.0160  0.0742
17623W        W33432   8.067   1.253   5.876 -0.0562 -0.1528  0.0706
17624W        W33433   3.247   1.792   3.303  0.1435 -0.4024 -0.0434
17625W        W33434  12.966   5.091  14.133  0.1584  0.1032  0.0808
17626W        W33435   7.769   6.707  13.827 -0.3017  0.1429 -0.0737
17627W        W33436   2.657   2.929   1.590  0.0160 -0.2475 -0.1803
17628W        W33437   8.834   2.024   4.690 -0.0735 -0.0368  0.0684
17629W        W33438   4.319  14.284   0.305  0.2903 -0.1581  0.0527
17630W        W33439   1.913  16.734   0.955  0.2506  0.3241 -0.1230
17631W        W33440  12.961  17.149   6.154 -0.0319 -0.0570 -0.0314
17632W        W33441  17.224  13.070  10.910 -0.2406 -0.3498  0.2096
17633W        W33442  14.344   7.940   1.346 -0.1181 -0.0371  0.2957
17634W        W33443  16.786  13.918   4.703 -0.0585  0.0730 -0.1056
17635W        W33444  14.044  16.169   0.652  0.0608 -0.1274  0.0346
17636W        W33445   6.201  15.265   5.377  0.0455  0.2672  0.1408
17637W        W33446  16.056  15.279  13.696  0.1582  0.1929  0.1570
17638W        W33447   7.805   4.015  11.379 -0.1027  0.0698 -0.1097
17639W        W33448  16.327  13.261  11.830  0.1340 -0.0654  0.1991
17640W        W33449  17.955  14.482  15.172  0.0131  0.0748 -0.0619
17641W        W33450  16.580  12.787  13.720 -0.1310 -0.1496 -0.1910
17642W        W33451  18.511   3.469  12.646  0.1769 -0.1066 -0.0365
17643W        W33452   5.422   7.609  14.076 -0.1991  0.0759 -0.1252
17644W        W33453  15.009  16.993  13.988 -0.1107 -0.0469  0.0152
17645W        W33454  11.923   8.985  13.312 -0.1348  0.1848 -0.0843
17646W        W33455   7.336   1.403  12.310 -0.3651 -0.2311 -0.2656
17647W        W33456   7.098  15.332  13.906 -0.0612  0.4046 -0.3575
17648W        W33457   4.253  17.717   5.388  0.0807 -0.3161  0.1576
17649W        W33458   6.077  10.920  12.526 -0.1742 -0.1299 -0.0628
17650W        W33459  15.221  15.958  13.535 -0.4411  0.0216  0.3304
17651W        W33460  13.311  11.055  13.944  0.0691  0.0078 -0.3847
17652W        W33461   4.245   1.122  11.021  0.0113  0.0794  0.3384
17653W        W33462  13.567  13.123  11.103 -0.3175  0.1033 -0.0949
17654W        W33463   7.633  14.766   2.558  0.2836  0.0246  0.0482
17655W        W33464  15.633   3.100   3.286 -0.1390  0.0522 -0.0181
17656W        W33465   9.924  16.740  14.866 -0.1505 -0.0348 -0.1196
17657W        W33466   5.160  12.393   4.624  0.1686  0.1029  0.0590
17658W        W33467  10.736  15.537   0.213  0.2078  0.0454 -0.0009
17659W        W33468   4.883   9.882   2.786 -0.0557 -0.0588  0.3022
17660W        W33469  12.970   9.626   3.345  0.2953 -0.0702  0.1573
17661W        W33470  17.452   4.646  12.123 -0.1022  0.2369  0.0409
17662W        W33471   4.338  17.925   3.812  0.0195 -0.2167 -0.3659
17663W        W33472  18.506   2.047  10.619 -0.0285  0.1318  0.0745
17664W        W33473  13.754  13.330  13.166  0.0470  0.1357  0.1589
17665W        W33474  15.918  18.121   0.087  0.2619 -0.0914 -0.0351
17666W        W33475   5.536   7.022   4.159 -0.1908 -0.0560  0.0595
17667W        W33476  15.813   6.861  13.968  0.2896 -0.0278  0.2356
17668W        W33477  15.700  15.059  12.330 -0.0605 -0.1247  0.1233
17669W        W33478   2.760   4.984  14.598  0.0947  0.0414 -0.2101
17670W        W33479   5.811   2.590  12.636 -0.0011 -0.3019 -0.1223
17671W        W33480   1.020   6.420  11.869 -0.0194  0.0029  0.0324
17672W        W33481  11.833  13.431   4.223  0.0485 -0.0642 -0.5893
17673W        W33482  14.730  10.734   4.945  0.0600  0.0625 -0.1913
17674W        W33483   8.698  16.573   1.914  0.2667  0.2899  0.1369
17675W        W33484   5.112  10.554   1.468 -0.1420  0.1989  0.1272
17676W        W33485  15.562  17.246   3.165  0.0060 -0.4106  0.0319
17677W        W33486   4.904   9.334   1.799  0.3483  0.0259  0.2430
17678W        W33487  10.067  15.119  15.227 -0.1645 -0.0337  0.1213
17679W        W33488  13.663   9.128   4.211  0.0255  0.0971 -0.0434
17680W        W33489   7.419   1.848  12.100  0.0419 -0.2035 -0.3136
17681W        W33490   2.792   7.894  14.247 -0.0935 -0.1782 -0.1218
17682W        W33491   3.339   9.548  12.147  0.0043 -0.0185 -0.2311
17683W        W33492   9.406   6.308   5.548 -0.2961  0.0441  0.0846
17684W        W33493  12.697   2.108  14.681 -0.2098 -0.0420  0.1116
17685W        W33494  14.325   6.633   2.922  0.0045 -0.2212 -0.0946
17686W        W33495   6.307  16.020   0.538 -0.4275  0.0208 -0.0067
17687W        W33496   0.137  16.589   0.077 -0.0324 -0.0875  0.2009
17688W        W33497   6.690  14.048  12.829 -0.1235 -0.0415 -0.0856
17689W        W33498  16.374   4.394   2.926 -0.0443  0.1150 -0.0312
17690W        W33499  15.882   0.176   1.374 -0.1985  0.0162 -0.1193
17691W        W33500  14.235   2.912   3.206 -0.2516 -0.1717 -0.0551
17692W        W33501  10.353  10.299  11.881 -0.2642  0.1611  0.2811
17693W        W33502   6.768   7.517   0.654 -0.2706 -0.1679  0.0106
17694W        W33503   3.035  10.864   3.053 -0.0913 -0.0800  0.1043
17695W        W33504   3.226   6.315  14.100 -0.0883 -0.2115  0.2372
17696W        W33505  13.595   0.451  15.006 -0.2727 -0.0309  0.3167
17697W        W33506  14.410   6.979  14.361 -0.2253 -0.0824  0.3525
17698W        W33507   6.558   5.782   1.065  0.0200 -0.1814  0.2057
17699W        W33508   1.529  18.199  11.813 -0.1914 -0.2355 -0.1422
17700W        W33509   2.917   2.138  11.028  0.1589 -0.0180  0.4056
17701W        W33510   5.071   5.070   4.186  0.0290 -0.0848 -0.1798
17702W        W33511  17.131  16.706   0.487 -0.3434 -0.2283 -0.1257
17703W        W33512  15.831  17.067   2.640 -0.0018 -0.1583  0.1479
17704W        W33513  13.942   3.899  15.209  0.1780  0.1972  0.2094
17705W        W33514   1.392   0.715  14.240  0.2211  0.0917  0.1942
17706W        W33515  13.894  15.942  13.151 -0.1136 -0.0067  0.0906
17707W        W33516  16.179   4.526  11.214  0.1761  0.0617 -0.0787
17708W        W33517  12.882  12.351   4.598 -0.1499 -0.0804 -0.1591
17709W        W33518  14.018  17.611  14.689 -0.2419  0.4414 -0.2281
17710W        W33519  16.561   7.658   3.836 -0.1186  0.3978  0.0014
17711W        W33520  15.256  11.410   3.080  0.3001  0.3584 -0.0004
17712W        W33521  13.137   5.770  11.704 -0.1273 -0.0171 -0.2142
17713W        W33522   1.524   0.542  11.715  0.1605  0.2168 -0.2447
17714W        W33523   2.732  17.155   5.583 -0.1506 -0.2896 -0.0959
17715W        W33524   0.514  13.657  14.966  0.1920 -0.2116  0.4049
17716W        W33525  10.989  16.262   5.410 -0.0121  0.3822  0.0417
17717W        W33526   0.337  11.818   1.550  0.0635 -0.1237 -0.0878
17718W        W33527   4.477  10.857   1.014  0.2181 -0.3304  0.0763
17719W        W33528  12.638   9.953  12.323 -0.2626 -0.2275  0.0021
17720W        W33529   1.818  17.141  15.026 -0.1022  0.2169  0.1753
17721W        W33530   7.787  14.502  12.413  0.1386  0.0560  0.0695
17722W        W33531   3.576   5.957  10.726  0.1643 -0.3069  0.4130
17723W        W33532  14.130  16.659   0.961  0.1911  0.0138 -0.1294
17724W        W33533   2.570   5.825   3.795 -0.4370  0.1174  0.1538
17725W        W33534  14.986   3.344  13.250  0.0266  0.2490  0.1253
17726W        W33535   1.955   3.570   5.037 -0.1591 -0.1889  0.0287
17727W        W33536   3.561   3.958  10.737  0.0328  0.2528 -0.2015
17728W        W33537  15.374   7.649  14.224 -0.1890 -0.0031 -0.0894
17729W        W33538   9.461  13.167   1.265  0.2539 -0.1468  0.4375
17730W        W33539   8.760   6.292  12.227 -0.2475 -0.0413  0.0065
17731W        W33540   2.420   1.999  13.517 -0.2298  0.1932  0.1183
17732W        W33541   3.023  16.636   0.540 -0.1572 -0.0400 -0.0323
17733W        W33542   5.244   9.485  11.891  0.1356  0.2319 -0.0073
17734W        W33543   7.205   7.879  13.369 -0.0204 -0.2244 -0.2071
17735W        W33544   3.938   8.504  15.319  0.3190  0.2207 -0.1037
17736W        W33545   7.957   3.762   2.484 -0.3944 -0.1995  0.1741
17737W        W33546  18.263   8.034  12.094  0.1371 -0.3984  0.1720
17738W        W33547   8.462  15.612   2.985  0.0904  0.1187  0.0209
17739W        W33548   3.613  10.934  11.950 -0.0921 -0.0952 -0.0138
17740W        W33549  14.641  15.475   1.157 -0.0452 -0.2013  0.1932
17741W        W33550  14.125  15.890  15.053 -0.1348 -0.3277 -0.0743
17742W        W33551   4.232  12.292  13.467  0.1068 -0.4420 -0.1362
17743W        W33552  10.854  10.341  12.053  0.3651  0.2397 -0.0549
17744W        W33553  11.821   2.972   4.634 -0.0991 -0.2188  0.0673
17745W        W33554   1.860  16.644  15.590 -0.2379 -0.1341  0.1744
17746W        W33555  14.089  16.584  12.168  0.1868  0.1488  0.2384
17747W        W33556   0.521  14.144   0.016 -0.3420 -0.0003  0.0102
17748W        W33557   9.574  13.180   3.360 -0.0040 -0.3388  0.1291
17749W        W33558   3.733  16.073  14.392 -0.1157 -0.1610  0.2941
17750W        W33559  14.010   1.766   2.738 -0.0864  0.0028  0.0781
17751W        W33560  18.202  16.861   1.342  0.0289  0.1744 -0.5202
17752W        W33561   3.108  15.596  13.939  0.2736 -0.2018 -0.1277
17753W        W33562  13.779  13.984  14.872 -0.0678 -0.1195  0.1123
17754W        W33563  18.077  14.376   1.557  0.1771  0.0005  0.4026
17755W        W33564   9.727  15.267   1.023 -0.0835  0.2431 -0.2024
17756W        W33565   8.221  10.399   1.547 -0.0619 -0.2083 -0.1441
17757W        W33566  10.132   4.380   0.047 -0.0368 -0.0629 -0.0755
17758W        W33567   4.601   3.056  12.230  0.0989  0.0557  0.2608
17759W        W33568   4.187   6.479  13.174  0.1328  0.0228 -0.2690
17760W        W33569   3.215   0.420   0.875 -0.0286  0.3542  0.0544
17761W        W33570   7.278   6.425  12.221 -0.1470  0.1894  0.1148
17762W        W33571   4.752  17.330   1.762 -0.1320  0.1349 -0.1560
17763W        W33572  11.588  11.112   1.130 -0.0098 -0.0662 -0.0721
17764W        W33573   3.728   0.190  10.738  0.0182 -0.0344  0.0286
17765W        W33574  16.577   0.051   5.484  0.2507 -0.2512  0.0993
17766W        W33575  11.206   2.675   5.431 -0.2155 -0.2099 -0.0713
17767W        W33576   5.392   1.468   3.234  0.4998 -0.2071  0.1180
17768W        W33577   9.610  15.958  15.397 -0.1237  0.0238 -0.0972
17769W        W33578  14.784   2.262   2.341 -0.3187  0.2802  0.0589
17770W        W33579   7.011  13.028  12.113 -0.1700  0.1878 -0.0806
17771W        W33580   6.074   2.154  13.895  0.0646 -0.0637 -0.0366
17772W        W33581   0.323   8.228  15.463 -0.3635  0.1461 -0.0442
17773W        W33582   3.188   3.863  12.535 -0.2083 -0.3354  0.1218
17774W        W33583  10.092  12.556  13.171  0.1216 -0.0645  0.2814
17775W        W33584   9.616   5.305   4.721  0.3073  0.2199  0.2159
17776W        W33585  18.222   8.970  14.642 -0.0204  0.2395  0.0126
17777W        W33586  18.583   4.952   3.608  0.0863  0.2853 -0.3510
17778W        W33587  16.329   6.653   5.035 -0.4303 -0.2267 -0.3132
17779W        W33588  14.523   4.064   0.213  0.0707 -0.3175 -0.3931
17780W        W33589   3.610   4.599  12.777  0.0126 -0.0318  0.0466
17781W        W33590   1.465  18.023   3.095  0.2267 -0.1672  0.0630
17782W        W33591  16.497   4.834   1.279 -0.0740  0.0520  0.2435
17783W        W33592   5.256  11.987  13.147  0.1539  0.1583 -0.2585
17784W        W33593   6.251  16.158   5.517 -0.4371  0.2835  0.2998
17785W        W33594   4.938  18.212   2.444 -0.1626  0.1324  0.2341
17786W        W33595   4.980   3.440   0.358  0.0759  0.0349 -0.2831
17787W        W33596  13.378  11.497   2.621 -0.2757 -0.0384  0.2554
17788W        W33597  18.495   7.732   5.386  0.0655 -0.0083  0.1112
17789W        W33598   9.137   5.124  12.721  0.3577  0.1293 -0.0644
17790W        W33599   0.205  10.299   2.973 -0.2108  0.0017 -0.3106
17791W        W33600  14.228   8.625   0.404 -0.0845 -0.0292 -0.1516
17792W        W33601  14.115   8.886   1.167  0.0660  0.2653  0.1213
17793W        W33602   6.694  13.915   2.514  0.0569  0.0938  0.3337
17794W        W33603   0.878  13.758  10.506 -0.2233 -0.0689  0.1225
17795W        W33604   7.446  15.530  15.184 -0.2549 -0.0124 -0.1276
17796W        W33605   5.279   0.817  13.611 -0.4244 -0.3923  0.0825
17797W        W33606   3.470  10.404   2.275 -0.5261 -0.2843  0.1008
17798W        W33607  14.355  14.196  10.014  0.0023  0.0657 -0.2407
17799W        W33608   1.617  14.534  13.563 -0.2230 -0.2564 -0.4405
17800W        W33609   2.629  14.223  12.300 -0.2597 -0.0429  0.0412
17801W        W33610   8.865   0.165  12.027  0.0380 -0.0067 -0.1950
17802W        W33611   4.691  14.004   3.315  0.0448  0.1208 -0.3632
17803W        W33612   6.518   9.360  14.098 -0.3812  0.1851  0.0349
17804W        W33613   5.760  12.129  15.355  0.0326  0.0090 -0.0518
17805W        W33614   2.261  18.038   0.773  0.2055  0.0813  0.1992
17806W        W33615   2.501   9.440  14.955  0.0143  0.0581  0.1015
17807W        W33616   8.792  10.829  10.739  0.0481  0.2163 -0.0564
17808W        W33617   2.681   0.657   4.474  0.0233  0.0704 -0.2742
17809W        W33618  11.332  10.827  11.795 -0.2275  0.0110 -0.0615
17810W        W33619  10.682   0.057  15.299 -0.0055 -0.0345  0.0663
17811W        W33620   6.150   4.080   2.742  0.1324  0.0525  0.1026
17812W        W33621  13.741  14.905   5.361 -0.2555  0.0473 -0.4354
17813W        W33622   6.981   8.496   0.416  0.0375  0.2732  0.2834
17814W        W33623  12.500   9.487   4.572  0.1140  0.3552 -0.2436
17815W        W33624  12.506  17.587   1.819 -0.0558  0.0118  0.2335
17816W        W33625  11.027  12.801  15.072  0.2206 -0.1536 -0.0247
17817W        W33626  13.647  14.380   2.538  0.0363 -0.1701 -0.2572
17818W        W33627  12.189   5.671  14.594  0.0625  0.1861 -0.0080
17819W        W33628   4.948   2.808  15.236  0.0200 -0.1570  0.1642
17820W        W33629  11.721  14.128  15.296 -0.2862  0.2516  0.2468
17821W        W33630  18.494   0.672  11.258 -0.1335  0.3464 -0.0429
17822W        W33631   2.965   7.706   0.203  0.1830  0.1601  0.1231
17823W        W33632  12.111   9.200   1.847  0.1230  0.1686  0.1143
17824W        W33633   1.110   8.095   2.004  0.2818  0.2057  0.4082
17825W        W33634   1.115  15.978   6.101  0.1307 -0.0949 -0.0482
17826W        W33635  15.291  11.625   1.283  0.0440 -0.1453  0.0257
17827W        W33636  18.633  12.088   4.810 -0.1176  0.1267  0.0158
17828W        W33637  15.309   4.406  11.225 -0.0567  0.1865  0.0549
17829W        W33638  12.633   4.860  14.508 -0.0387 -0.0606 -0.3249
17830W        W33639  12.995   8.948   2.180 -0.1641 -0.0098 -0.4297
17831W        W33640  15.291   6.399   3.317 -0.1499  0.0607 -0.2653
17832W        W33641   5.849   6.572  12.758  0.1222  0.0625 -0.1824
17833W        W33642  12.161  18.265  11.921 -0.2261 -0.2690  0.0114
17834W        W33643   8.828   2.269   2.841 -0.2086 -0.1595 -0.1244
17835W        W33644   1.067   8.997   4.970  0.1990  0.0441 -0.4071
17836W        W33645  16.692  16.348   0.454  0.0152 -0.0535  0.0367
17837W        W33646   2.592   6.891   1.468 -0.1942  0.0982 -0.1726
17838W        W33647  18.336   4.474  12.619  0.1611  0.0440  0.0445
17839W        W33648   4.274  14.631   3.367 -0.0766 -0.2655 -0.1108
17840W        W33649   5.118  15.291  15.426 -0.4499  0.1774 -0.0220
17841W        W33650  18.339   7.482   1.553  0.2282 -0.0997  0.0208
17842W        W33651  12.846   1.065  11.813  0.0822 -0.0129 -0.2272
17843W        W33652   6.952   3.846   2.640  0.1787  0.0658 -0.0681
17844W        W33653   1.933   2.528  11.278 -0.0025  0.4268 -0.1070
17845W        W33654  14.921  15.712  15.300 -0.1120 -0.0001  0.3111
17846W        W33655   8.127  17.921   5.211  0.1085 -0.0600  0.1627
17847W        W33656   3.694   8.855  11.623  0.1176 -0.0319 -0.1099
17848W        W33657  15.894   2.553  14.640  0.1604 -0.2606  0.2043
17849W        W33658  15.826   8.634  12.891 -0.1485  0.1547  0.1927
17850W        W33659  16.986  12.770   2.467 -0.0724  0.0058 -0.2387
17851W        W33660   5.167  10.997  14.225 -0.1865 -0.0358 -0.0531
17852W        W33661   5.626   0.130   2.508 -0.1700  0.1100 -0.2080
17853W        W33662  15.157   0.939  14.620  0.0196  0.0985 -0.0725
17854W        W33663   7.751   1.340  15.433  0.0544 -0.2210 -0.0825
17855W        W33664   3.772   7.251   3.190 -0.2772  0.3348 -0.1012
17856W        W33665  11.728   4.940   4.116 -0.1554 -0.0778  0.2178
17857W        W33666  13.252  14.974   0.640  0.0477  0.1492 -0.3538
17858W        W33667   3.003   9.986  13.499  0.1906 -0.0040  0.2073
17859W        W33668   3.921  14.029   4.862 -0.0529  0.0186 -0.0914
17860W        W33669  12.572   3.612  11.713 -0.0386  0.0984 -0.2977
17861W        W33670   9.949   5.265  12.031  0.0786 -0.0491  0.1055
17862W        W33671  13.775   5.533  15.230  0.1815 -0.2133 -0.2404
17863W        W33672  15.258  15.120   4.258 -0.1378  0.2907 -0.1388
17864W        W33673   9.352   7.360  12.722  0.0250 -0.2200  0.0546
17865W        W33674   7.742  18.148  10.889 -0.0862 -0.1961  0.1643
17866W        W33675   0.966  17.416   5.692 -0.0204 -0.2053  0.1580
17867W        W33676  17.756  14.967  15.038 -0.1047 -0.1016 -0.1615
17868W        W33677   4.828  12.710   3.163 -0.1497 -0.3352  0.1567
17869W        W33678  18.422   7.260   4.540  0.2045 -0.0162 -0.0373
17870W        W33679   9.777   7.942  15.439  0.0033  0.0268 -0.2112
17871W        W33680   5.465  15.025  13.033 -0.1384 -0.0700  0.1682
17872W        W33681   4.343   6.917  12.915  0.1976  0.2121 -0.3780
17873W        W33682   5.524   1.197   2.868  0.0353  0.0725 -0.0506
17874W        W33683   1.490  10.584  14.001 -0.2015  0.0300 -0.2725
17875W        W33684   5.549   1.916  11.886 -0.3213 -0.2951  0.1356
17876W        W33685   5.130   3.507   3.962 -0.0699 -0.0179  0.0963
17877W        W33686   0.455  16.938   5.191  0.0488 -0.2029 -0.3581
17878W        W33687  10.872  13.327  12.351  0.0677  0.1678  0.4221
17879W        W33688  15.684  11.805  10.417  0.0966 -0.0712 -0.2239
17880W        W33689   2.486   0.655  14.759 -0.0517 -0.3555  0.0958
17881W        W33690   8.865  12.880   9.521 -0.1620 -0.0137  0.1739
17882W        W33691   1.117   2.818  14.261 -0.3440 -0.2043 -0.2035
17883W        W33692   3.762  16.497   5.420 -0.0788 -0.1532  0.0236
17884W        W33693   6.656  18.383   5.733  0.0255 -0.2105 -0.1086
17885W        W33694   6.417  18.204  11.313  0.1079  0.1547 -0.0955
17886W        W33695   5.699   7.217   0.312 -0.1055 -0.2320 -0.0850
17887W        W33696   3.974   2.809   2.826  0.3448 -0.1962  0.1451
17888W        W33697   7.556   4.785   1.443  0.3411  0.0243 -0.1715
17889W        W33698  10.637   6.848  10.034 -0.1117  0.1409  0.1776
17890W        W33699   5.235   3.730   4.441  0.1300  0.2164 -0.0296
17891W        W33700   9.058   7.789   2.427  0.0258 -0.0680 -0.2543
17892W        W33701  17.302   9.078   4.432  0.0420 -0.1265  0.0819
17893W        W33702  16.584   7.927  15.435 -0.0810  0.2835  0.0961
17894W        W33703   3.125  14.311  12.457  0.1740  0.2266 -0.3432
17895W        W33704  18.467  18.199   1.531  0.1746 -0.1855  0.0875
17896W        W33705   0.861   3.823  14.087 -0.0897  0.0615  0.0054
17897W        W33706   7.780  11.436   0.424  0.1915  0.2193 -0.0447
17898W        W33707  18.129  13.353   0.287  0.3659  0.2220 -0.0399
17899W        W33708   4.298   4.227   0.262 -0.2398  0.0424 -0.0992
17900W        W33709  10.737  10.828  11.148  0.0864 -0.0986 -0.0876
17901W        W33710  15.787  15.578   3.027 -0.1173  0.2566 -0.0331
17902W        W33711   6.882   3.044  11.064  0.0549 -0.0100 -0.1956
17903W        W33712  10.902   3.116   1.184  0.2494 -0.1161  0.0887
17904W        W33713  14.290   2.771   3.826 -0.0225 -0.0867 -0.0329
17905W        W33714   0.093  16.203   1.026  0.0869 -0.2437  0.2649
17906W        W33715   0.287   1.239   4.136 -0.0159  0.0196 -0.0257
17907W        W33716   5.257   5.061  15.193  0.1510 -0.1277 -0.1259
17908W        W33717   1.346   8.984  12.951  0.2618  0.1741 -0.0199
17909W        W33718   6.171   2.636   5.174  0.1747  0.0391  0.0091
17910W        W33719  15.274  11.950  12.206  0.1237  0.0755  0.0090
17911W        W33720   4.706  10.761   1.747 -0.3121 -0.0184  0.0883
17912W        W33721  15.340  16.089   2.900  0.0313 -0.2779  0.2154
17913W        W33722  10.988  15.457  11.647  0.1973  0.1272  0.0666
17914W        W33723   0.448   3.789   2.456 -0.2119 -0.0140 -0.2365
17915W        W33724  10.964   8.999   3.604 -0.0844 -0.1443  0.0151
17916W        W33725   8.831  17.384   3.663 -0.0772 -0.0326 -0.0117
17917W        W33726   8.574   8.609   2.650 -0.0720 -0.2313  0.2923
17918W        W33727  11.593   6.699   3.195 -0.2876 -0.0126 -0.2489
17919W        W33728   0.662  11.234  10.974 -0.0119 -0.0461 -0.1910
17920W        W33729   8.812  17.602   6.188 -0.2127 -0.0633  0.0902
17921W        W33730   0.332   6.357   1.509 -0.5471  0.1448  0.0323
17922W        W33731  16.904   8.874  15.096 -0.1055 -0.2833 -0.1670
17923W        W33732   7.163   4.724   3.985 -0.1268 -0.0418  0.1917
17924W        W33733   0.830  17.254   1.972  0.0433  0.5458 -0.0653
17925W        W33734  14.690  14.135  11.237  0.2183  0.1578 -0.0296
17926W        W33735  18.401   6.508   2.371 -0.1457  0.1738 -0.1928
17927W        W33736   8.890  10.887   3.844  0.0653 -0.0028 -0.1277
17928W        W33737  15.505  13.342   1.480 -0.0474 -0.0139 -0.0164
17929W        W33738   3.638  18.355   3.484  0.1275 -0.3344 -0.3459
17930W        W33739  16.713   6.276   3.280  0.2832 -0.2475  0.0637
17931W        W33740   0.522   3.712   4.284  0.1289 -0.5283 -0.0546
17932W        W33741  15.728  13.961   4.971  0.0934 -0.0081  0.2182
17933W        W33742  14.602  18.427   5.286  0.0982  0.0139 -0.1114
17934W        W33743   4.682   0.809   1.506  0.3341  0.1441  0.1283
17935W        W33744   1.204   5.833  15.113  0.1263 -0.4948  0.1090
17936W        W33745   2.457   6.538  10.517 -0.0088 -0.0161 -0.0934
17937W        W33746   5.225  15.001  12.270  0.0312  0.3709 -0.0830
17938W        W33747  13.254   7.054   1.552 -0.1623 -0.0986 -0.2142
17939W        W33748  10.108   8.203  14.761  0.2066 -0.1802  0.4033
17940W        W33749  13.621   2.169  14.839  0.0114  0.0340  0.1897
17941W        W33750  11.212   0.595   1.666  0.2708 -0.1028 -0.2904
17942W        W33751  14.664   0.392   2.599 -0.0994 -0.0416  0.0602
17943W        W33752  18.379   1.468  13.867 -0.0740 -0.0570 -0.1817
17944W        W33753  18.351  11.097  15.233  0.0561 -0.2929 -0.0735
17945W        W33754   8.045   0.593   5.064 -0.1545  0.2921 -0.1314
17946W        W33755  15.151   1.085  11.864  0.2163 -0.2793  0.1313
17947W        W33756  17.347  16.433   2.796  0.1024 -0.1185  0.1817
17948W        W33757   6.459   4.505  12.513 -0.0072 -0.0900  0.0177
17949W        W33758  10.492   1.133   3.874 -0.3056  0.3854  0.0064
17950W        W33759  17.213   8.445  15.276  0.3543  0.0199  0.2466
17951W        W33760  12.140   1.350   5.594  0.1236  0.1290  0.0180
17952W        W33761  17.857  15.308  14.508 -0.1874  0.0277 -0.0268
17953W        W33762   9.560  14.249   3.196 -0.1624 -0.0731  0.4361
17954W        W33763  12.525  13.806  11.850  0.1307  0.4568 -0.3853
17955W        W33764  11.293  14.215  14.337 -0.1039  0.3037 -0.2733
17956W        W33765  18.144  12.949   4.552 -0.0749  0.0829 -0.1178
17957W        W33766   1.403  13.141  15.234  0.0788 -0.0834 -0.0810
17958W        W33767  12.007   8.853   1.090  0.4335  0.2880  0.4273
17959W        W33768  10.638   0.098  14.721 -0.0131 -0.1789  0.0373
17960W        W33769   8.750  17.902  12.205 -0.2027 -0.2607  0.2795
17961W        W33770  12.690   4.698  14.039 -0.3211  0.1225 -0.2598
17962W        W33771   6.790   3.891  11.971  0.0234 -0.0303  0.0952
17963W        W33772   5.190   4.920   0.055 -0.1923 -0.0899 -0.0546
17964W        W33773  14.808  15.877   3.039  0.0043  0.0602 -0.0151
17965W        W33774   1.369  15.525  10.775  0.0683  0.3022  0.2835
17966W        W33775   0.319   6.580  12.709  0.1123  0.0465 -0.1187
17967W        W33776   1.203  16.616  14.402  0.2011 -0.2036  0.0762
17968W        W33777  18.598   9.514  15.579  0.1834 -0.3306 -0.0238
17969W        W33778   4.880   2.718   1.036 -0.2182 -0.0949  0.2903
17970W        W33779  14.989  11.574  12.445  0.1870 -0.0184 -0.0930
17971W        W33780  14.963   6.228   2.477 -0.2715  0.0759  0.1141
17972W        W33781   3.053   4.678  12.870 -0.2038 -0.1585  0.1307
17973W        W33782   7.291   9.075   3.793 -0.2044 -0.2048  0.0265
17974W        W33783   9.088  15.715   3.906  0.0935  0.1014 -0.0009
17975W        W33784   7.386  14.043   0.481  0.2693 -0.0414 -0.0832
17976W        W33785   0.362   6.977  11.410 -0.3738 -0.2168  0.0003
17977W        W33786   9.217   3.971   2.540  0.0183 -0.0701 -0.2847
17978W        W33787  12.485   4.399   1.473 -0.0501  0.1281  0.0181
17979W        W33788   5.537  12.556   0.625  0.0592 -0.2997  0.0022
17980W        W33789   9.820  11.684   5.563 -0.0032  0.0763 -0.1405
17981W        W33790   0.653   6.387   5.346 -0.2409 -0.1485  0.1710
17982W        W33791   7.514  15.124   2.194  0.0865 -0.0997  0.0104
17983W        W33792  13.918   3.578  13.163 -0.3693  0.0711 -0.2599
17984W        W33793   0.400   8.529   0.850 -0.1980  0.0321 -0.2069
17985W        W33794  16.679  14.460   1.379  0.2171 -0.1329 -0.2819
17986W        W33795   1.280   2.645   0.377 -0.1625  0.3915  0.2299
17987W        W33796   1.610  10.546   0.782 -0.3406 -0.0434  0.1767
17988W        W33797   5.840   4.759   2.728  0.0506  0.0618 -0.2732
17989W        W33798   1.949  10.969  11.579  0.0675 -0.0801 -0.0136
17990W        W33799   8.380   8.714   3.097 -0.3062  0.2289  0.2612
17991W        W33800   1.711   5.228  11.155 -0.0871  0.0189 -0.1379
17992W        W33801   5.685   4.424   1.705 -0.2462  0.0235 -0.1166
17993W        W33802   0.332   1.156   1.523  0.2296  0.3306  0.0376
17994W        W33803  13.061   0.177  12.486  0.1428  0.3573  0.1248
17995W        W33804  10.467   8.310  14.063 -0.0013 -0.1085 -0.0735
17996W        W33805   8.435  11.004   3.586 -0.1639  0.1959 -0.3798
17997W        W33806   0.565  13.111  11.654  0.1120 -0.0040 -0.0239
17998W        W33807   3.372  12.224  13.343  0.1429 -0.2527 -0.0368
17999W        W33808  12.808  10.482   1.795 -0.1606  0.0061  0.1086
18000W        W33809   1.039   4.804  12.445  0.0600 -0.2313  0.2982
18001W        W33810   9.821  11.462   3.468  0.2846  0.0461  0.0801
18002W        W33811  12.103  18.439  10.872  0.0360 -0.2375 -0.2074
18003W        W33812  11.604  14.298  11.598 -0.0268 -0.4417  0.1358
18004W        W33813   8.571  16.871   3.557  0.0846  0.0117 -0.2390
18005W        W33814  12.078  11.379  14.969  0.3293  0.1469  0.1380
18006W        W33815   4.108  12.377   3.539  0.1843 -0.0235  0.1165
18007W        W33816  17.015   3.761   4.902  0.4037  0.1885  0.3660
18008W        W33817  17.190  11.565  11.906 -0.2404  0.1065  0.2091
18009W        W33818   7.786   3.494  11.197 -0.1237  0.0781 -0.0437
18010W        W33819   8.445   2.533  15.404  0.1619 -0.0384  0.3050
18011W        W33820   3.060   6.029   5.168  0.2313 -0.0132  0.1693
18012W        W33821  10.750   2.632  14.759 -0.2552 -0.2851  0.0631
18013W        W33822  17.029  17.860  14.124 -0.1847 -0.1016  0.1252
18014W        W33823   5.231  13.723   1.747  0.1697 -0.1321  0.0886
18015W        W33824   7.957  16.874   3.408  0.1840 -0.0762  0.0506
18016W        W33825  17.216  11.744  12.736  0.1326  0.1863 -0.0789
18017W        W33826  17.946  15.701  13.208 -0.0319  0.0254  0.1652
18018W        W33827   9.858   8.433   5.197  0.1437  0.1624  0.1768
18019W        W33828  16.435   8.474  13.969 -0.1016  0.2340 -0.0047
18020W        W33829   8.524  15.941   9.873 -0.0234  0.1353  0.2926
18021W        W33830   8.565  11.917  13.802  0.0221  0.2852 -0.0037
18022W        W33831  10.187  15.276  10.942  0.0057  0.1050 -0.1675
18023W        W33832  12.917   8.128   2.573 -0.0250 -0.1189 -0.1090
18024W        W33833  15.963   9.206   4.534 -0.2871 -0.1811 -0.0589
18025W        W33834  13.270   9.730   0.918 -0.1600 -0.0743 -0.0945
18026W        W33835   3.114  10.804   1.731  0.1124 -0.4499 -0.0949
18027W        W33836   8.395   3.197  15.113 -0.0529 -0.3052  0.1960
18028W        W33837   0.602  16.095   5.221  0.1049  0.3414 -0.0986
18029W        W33838   7.581  11.722  11.686  0.2038 -0.4032  0.2237
18030W        W33839   3.086  13.272   3.808  0.2203  0.1875 -0.1632
18031W        W33840   7.706  11.707  11.162  0.0526  0.0133  0.0540
18032W        W33841   8.648  12.191  15.332  0.0464 -0.0014 -0.1508
18033W        W33842  13.665   5.175   5.804  0.0743  0.2343 -0.2769
18034W        W33843   0.062  15.171   5.492  0.1668 -0.0860  0.0540
18035W        W33844   1.096   8.167  14.182 -0.3038  0.0789 -0.2914
18036W        W33845   6.959   6.223   0.932 -0.0696 -0.3484 -0.3880
18037W        W33846   1.345   1.551   5.184  0.0849 -0.0921 -0.0704
18038W        W33847   5.321   4.030  13.898 -0.2133 -0.4478  0.0811
18039W        W33848   2.617  12.297   4.715 -0.1583  0.0859  0.0073
18040W        W33849  12.290  10.392   4.720  0.0656  0.2422  0.0878
18041W        W33850   0.752  17.846  13.058  0.2247 -0.0245  0.2453
18042W        W33851  13.894  17.085   0.780  0.2194 -0.0436 -0.0062
18043W        W33852   8.113   9.326   0.759 -0.1281  0.1929  0.1836
18044W        W33853   7.141  14.790  13.874 -0.0199  0.0116 -0.0025
18045W        W33854   1.517   7.666   0.287  0.2078  0.2227 -0.0602
18046W        W33855  18.136   4.639   9.953  0.0987 -0.2181 -0.2251
18047W        W33856  16.439   5.401   3.913  0.3856  0.0168  0.0916
18048W        W33857   6.466   5.941  12.757  0.3773 -0.2741  0.1281
18049W        W33858  10.778   6.430   0.313  0.2079 -0.2048 -0.0533
18050W        W33859   8.829   4.523  11.272 -0.0905  0.1615 -0.0874
18051W        W33860   6.793   9.111   4.536  0.2133 -0.1209 -0.1836
18052W        W33861   8.105  16.615  12.383  0.5897  0.1900  0.1900
18053W        W33862   6.185  16.612   3.775 -0.1530 -0.0504 -0.0159
18054W        W33863   0.880  11.145  13.619 -0.1598 -0.1670 -0.0770
18055W        W33864   3.623  12.685   0.835  0.1994 -0.1259  0.0640
18056W        W33865   1.563  15.424  11.833  0.0174  0.2423 -0.0612
18057W        W33866   4.496  11.999   3.544 -0.0741 -0.2846 -0.2071
18058W        W33867  17.151   2.546   3.081 -0.3702  0.1535 -0.1721
18059W        W33868  18.675   3.958  12.924  0.0483  0.4747 -0.0951
18060W        W33869  16.657  10.065  12.409  0.1728  0.3134 -0.2805
18061W        W33870   0.828  12.420   0.777  0.0961  0.0495  0.2527
18062W        W33871   2.418   9.492   1.405  0.0176  0.1798 -0.2448
18063W        W33872   9.037  11.660  12.583 -0.0850  0.0013  0.1484
18064W        W33873  18.412  16.709  14.145  0.0290 -0.3023 -0.2549
18065W        W33874  12.140   2.811  11.340 -0.3039  0.0537  0.2461
18066W        W33875  18.449   1.513   3.750  0.0665 -0.2281  0.2674
18067W        W33876   1.236   5.523  14.081 -0.1055 -0.1733 -0.2692
18068W        W33877   5.887  18.524  11.663 -0.1431 -0.0816 -0.0662
18069W        W33878   4.862  10.950  15.115 -0.0711 -0.3672  0.2720
18070W        W33879  12.575   2.432   1.484 -0.0929 -0.0840 -0.1794
18071W        W33880  18.578  16.052  13.581  0.1212 -0.2672  0.0010
18072W        W33881  18.613   3.672  14.021  0.0821 -0.1171 -0.2166
18073W        W33882   3.812   4.922  15.467 -0.3106 -0.3890  0.0253
18074W        W33883   3.736   6.536  13.448  0.0420 -0.0091  0.0938
18075W        W33884   1.938   0.737   0.374 -0.0364  0.0876  0.1369
18076W        W33885  17.350  11.890   1.395 -0.0308  0.2055 -0.2167
18077W        W33886  15.314   4.118  11.648 -0.4517 -0.3010  0.3446
18078W        W33887   6.810  10.685   3.226  0.4932  0.3109  0.2726
18079W        W33888   3.064  11.337  13.526  0.1180 -0.4360 -0.0714
18080W        W33889   6.000   8.840   1.480  0.0159 -0.0614 -0.1860
18081W        W33890  17.711   8.648   3.784  0.1866  0.0500 -0.0884
18082W        W33891   6.920   4.361  15.168 -0.0563  0.0778  0.0543
18083W        W33892   5.439   8.957  14.052  0.0791 -0.2690  0.0699
18084W        W33893  11.275   1.915   4.361  0.3079  0.0639 -0.1527
18085W        W33894   9.750   6.763   3.424  0.2082 -0.1626  0.0774
18086W        W33895  11.343  17.421  15.510 -0.1211 -0.1985  0.2319
18087W        W33896  17.478  11.431  10.479 -0.0416 -0.1644  0.1018
18088W        W33897   6.439   7.672   2.447 -0.0578  0.0933  0.1624
18089W        W33898  11.112   3.572   0.425  0.0059  0.1185 -0.2017
18090W        W33899   4.569  10.202   3.559  0.1737  0.0274  0.0210
18091W        W33900  14.689   6.970   2.808 -0.2406 -0.1438 -0.3603
18092W        W33901  16.332  17.141   2.528  0.0856  0.0157  0.1122
18093W        W33902   8.166   8.163  15.286 -0.0882 -0.1340  0.1650
18094W        W33903   5.309  13.936   3.938 -0.0485 -0.2313 -0.0255
18095W        W33904  16.831  13.067   1.225  0.0775 -0.3163 -0.3478
18096W        W33905   0.420  15.518  15.388 -0.1325 -0.2646  0.0603
18097W        W33906   2.431   4.148  13.252  0.0632 -0.3356  0.2591
18098W        W33907  18.456  13.979  14.667 -0.2558  0.1388 -0.0290
18099W        W33908   1.624   2.930   0.609  0.1056 -0.3118  0.1598
18100W        W33909  14.544   6.957   0.891  0.0447  0.1111 -0.1884
18101W        W33910  16.232   0.796   4.075  0.0397 -0.1945  0.1117
18102W        W33911   0.759   2.089  14.563 -0.3358  0.0889  0.2987
18103W        W33912   6.292   2.643  15.524 -0.0363  0.0207  0.1410
18104W        W33913   0.695  15.015  12.019  0.3579  0.1314 -0.2495
18105W        W33914   6.833  13.732   0.853 -0.0312 -0.2091 -0.2685
18106W        W33915  18.661  12.018   3.443  0.3178  0.0171 -0.0958
18107W        W33916   1.140   5.220   4.650 -0.0239 -0.2254  0.0378
18108W        W33917   0.292   3.452  11.748  0.2439 -0.1140  0.0207
18109W        W33918  18.142   2.624   1.240 -0.0613  0.3853  0.0576
18110W        W33919   1.417   9.469  12.572 -0.3975  0.0336 -0.0808
18111W        W33920  14.263   8.982  12.250  0.0010 -0.1162 -0.2845
18112W        W33921  16.967  15.862   2.580  0.0972  0.0163  0.0928
18113W        W33922  10.620  17.984  13.867 -0.0457  0.1875 -0.2066
18114W        W33923   9.568  13.669  15.319 -0.0717  0.0010 -0.3169
18115W        W33924   0.032  17.938   4.383  0.0514  0.4194  0.1628
18116W        W33925   4.229   8.445   0.795  0.1559 -0.0189  0.0821
18117W        W33926   3.707  10.576   4.077 -0.3109 -0.0369  0.1376
18118W        W33927   0.868   3.478   2.471 -0.2763  0.0248  0.1424
18119W        W33928  16.687   0.424  11.948  0.0562  0.0960  0.2956
18120W        W33929   5.700  15.673   4.524 -0.1757  0.0557  0.1912
18121W        W33930  18.255  16.321   0.031 -0.3312  0.2302 -0.1574
18122W        W33931   9.800  13.149   0.538  0.0598 -0.0960  0.0171
18123W        W33932   8.898  18.601   0.184 -0.0654 -0.0125  0.0368
18124W        W33933   8.612   7.804   0.487  0.1754  0.2663  0.1997
18125W        W33934   8.706   4.566   2.632  0.0184  0.0967  0.2939
18126W        W33935   7.128   6.363   1.939 -0.0069  0.1287 -0.2705
18127W        W33936   1.889  15.356  14.629  0.0695  0.1593 -0.1339
18128W        W33937  15.741  17.755   0.419 -0.1487  0.1599  0.0301
18129W        W33938  11.024  11.724  14.559 -0.0877  0.0492 -0.0717
18130W        W33939   9.747  16.665  11.254 -0.1086 -0.1083 -0.2003
18131W        W33940   1.244  17.043   4.874 -0.1449 -0.0089 -0.1921
18132W        W33941  17.519  17.797  15.332 -0.0828  0.0015 -0.0037
18133W        W33942  12.733   3.227  13.849  0.0150  0.5133 -0.1944
18134W        W33943  12.686   7.997  11.190 -0.0341  0.0233  0.1340
18135W        W33944  16.782   4.849  13.003  0.0158 -0.0585  0.2666
18136W        W33945  11.218   9.003  12.874  0.2077  0.1012  0.2237
18137W        W33946   4.375   0.158  12.708  0.4290 -0.1341  0.1525
18138W        W33947  11.858   8.922   3.540  0.2021  0.2587  0.0689
18139W        W33948  11.342  17.549   4.895 -0.2568 -0.2388  0.2173
18140W        W33949  11.238   7.746   1.566 -0.0447  0.3148  0.0183
18141W        W33950  11.456  12.020  13.298 -0.1950  0.1704 -0.0887
18142W        W33951  11.919   5.192  11.963 -0.5759  0.0849 -0.2002
18143W        W33952  16.149  13.314   2.139  0.0218 -0.4441 -0.1665
18144W        W33953  14.247   7.287   4.187  0.1448  0.1881 -0.2511
18145W        W33954   3.175   6.217   1.032  0.0107  0.1149  0.1998
18146W        W33955   8.436   3.755  13.154 -0.2353  0.0691  0.1065
18147W        W33956  16.933   2.071   2.909  0.0389  0.2409 -0.0811
18148W        W33957   1.517  11.853   5.115 -0.0337  0.4031 -0.3309
18149W        W33958  10.848   9.774  15.003 -0.2128 -0.0001  0.1956
18150W        W33959   7.243   0.895   3.950  0.1902  0.0230 -0.1498
18151W        W33960   1.416  14.709   5.030  0.2136  0.0311  0.3942
18152W        W33961   7.611   9.131  11.023  0.1208 -0.0424  0.0648
18153W        W33962  17.528   4.520  11.215  0.1361  0.0161  0.0362
18154W        W33963  11.231   3.257   5.100  0.1073  0.0252 -0.1730
18155W        W33964  17.238   9.918  14.181  0.1414 -0.0921 -0.0159
18156W        W33965   2.342  16.745  10.685  0.2125  0.0047 -0.0327
18157W        W33966  11.912  14.418  10.312 -0.2916  0.0030 -0.1553
18158W        W33967   2.685   9.485  10.772  0.2817 -0.0452 -0.1285
18159W        W33968  12.833   3.914   1.750  0.0282  0.0730  0.0908
18160W        W33969   1.077   8.996  15.224  0.3405 -0.1276 -0.3968
18161W        W33970   5.594  11.102   5.457  0.3387  0.2996 -0.0098
18162W        W33971   7.535  17.823   3.190  0.1256 -0.1696  0.0374
18163W        W33972  13.920   4.374   4.972 -0.0883 -0.1454 -0.0631
18164W        W33973  12.698  13.459  10.570  0.0038 -0.1037 -0.4920
18165W        W33974  11.676   2.636  15.611  0.0752 -0.2223 -0.1483
18166W        W33975  16.818   4.949   5.112  0.3360 -0.1605 -0.0743
18167W        W33976  12.174  11.961   2.815 -0.0807  0.0192  0.1823
18168W        W33977  15.156   6.543  11.088  0.1347  0.3845  0.1540
18169W        W33978  12.658  17.657   1.278  0.1593  0.3971  0.0034
18170W        W33979   9.701  15.941   4.722  0.0822  0.2017 -0.2494
18171W        W33980  14.377  15.534  15.232  0.0100  0.0859 -0.4488
18172W        W33981  11.168   1.490  12.257 -0.3851  0.1891  0.2462
18173W        W33982  13.960   8.915   4.640  0.1543  0.0161  0.1863
18174W        W33983   5.512   3.103   5.207 -0.2871 -0.1033 -0.0353
18175W        W33984  14.910  17.361  10.829 -0.0709  0.1875 -0.0788
18176W        W33985   1.953  10.436  13.836  0.0115  0.2619 -0.0685
18177W        W33986   7.631  13.909   0.961  0.0947 -0.0736 -0.0624
18178W        W33987   0.458   2.285   5.744 -0.1190 -0.0786  0.0893
18179W        W33988  11.687  12.084   4.004  0.0202 -0.0973 -0.2322
18180W        W33989  14.298  18.169   4.249 -0.0595 -0.2330  0.2423
18181W        W33990  13.868  10.010  11.705 -0.1788 -0.1571  0.1038
18182W        W33991  11.380   8.271  14.385 -0.2652 -0.2251  0.1800
18183W        W33992  10.902  13.144  13.739  0.2351  0.0096  0.0970
18184W        W33993   9.062   9.608   5.035  0.1746  0.1462 -0.1016
18185W        W33994  14.502   8.226   2.307  0.3757  0.3063 -0.2043
18186W        W33995  11.958  11.135   3.292 -0.1402 -0.3414  0.2015
18187W        W33996  17.706   4.914  12.601  0.2013  0.2004  0.1932
18188W        W33997   2.724   2.097  15.084  0.1884 -0.0478 -0.0266
18189W        W33998   7.957   0.446   4.067  0.1181  0.1266 -0.0568
18190W        W33999   8.568   5.182  10.618  0.1717 -0.4424  0.0793
18191W        W34000  14.366   4.378   3.046 -0.0280  0.1549 -0.1566
18192W        W34001  10.238  15.264   2.918  0.4071  0.0155  0.0155
18193W        W34002   5.258  12.936   0.232 -0.0986  0.2307  0.1646
18194W        W34003   4.268   3.693   5.547 -0.0167 -0.3260 -0.2637
18195W        W34004   7.648   1.317  13.216  0.1125 -0.1664  0.2870
18196W        W34005  12.939   0.675  11.507 -0.2581 -0.1673  0.2372
18197W        W34006   6.449  14.451   3.580 -0.4003  0.0327 -0.1107
18198W        W34007   7.116  10.015  14.570  0.4699  0.1077  0.1998
18199W        W34008   2.063  14.315  10.539 -0.0804 -0.4043 -0.1782
18200W        W34009   4.204   8.221   2.236 -0.2579 -0.2152  0.2619
18201W        W34010  17.344   5.578  12.462  0.4096 -0.2056 -0.0674
18202W        W34011   8.913   2.625  12.301 -0.0461  0.1071 -0.1513
18203W        W34012  12.645  16.175  15.320 -0.1203  0.0930  0.2766
18204W        W34013  17.726  17.481   0.870 -0.1515 -0.0122  0.1542
18205W        W34014  15.084   6.150  13.731 -0.1061  0.0167 -0.0105
18206W        W34015   2.956   6.820  15.461 -0.3463  0.0588  0.1174
18207W        W34016  14.651  17.949   3.997  0.0816  0.2227 -0.3281
18208W        W34017   5.386  10.616   0.143  0.1014 -0.2890 -0.1082
18209W        W34018   2.086  10.103   0.774 -0.1512 -0.1217 -0.1076
18210W        W34019  11.466   7.101   0.338 -0.0148  0.5105 -0.2635
18211W        W34020   2.302   8.060   3.399  0.0364 -0.1714  0.3679
18212W        W34021  13.465   8.717   2.063  0.2043 -0.1062  0.0395
18213W        W34022   2.457   7.175   2.341  0.1291  0.0326 -0.0709
18214W        W34023   7.040   1.436  14.494  0.2980  0.0593 -0.2220
18215W        W34024  12.772   5.735   2.511  0.2328  0.0881 -0.0899
18216W        W34025   8.049   2.415   0.140 -0.2849 -0.2451  0.2980
18217W        W34026   6.979  13.782  12.525  0.2740  0.1758  0.1307
18218W        W34027  11.299  12.482   2.203 -0.2554  0.0233  0.1083
18219W        W34028  12.510   8.470   0.444 -0.1865 -0.0896  0.2784
18220W        W34029  11.163   9.535  10.390  0.1711 -0.3491 -0.2287
18221W        W34030  15.247   5.187   0.327 -0.0868  0.0120  0.0146
18222W        W34031   3.016   8.037   1.802 -0.0410  0.2810  0.1549
18223W        W34032  14.321   3.093   0.077  0.2007 -0.2323  0.1580
18224W        W34033   5.256   1.790   0.401 -0.2791  0.3332  0.0108
18225W        W34034  18.116   8.116  13.206 -0.3404 -0.0913 -0.1178
18226W        W34035   8.409   4.897  12.157 -0.0076  0.2348 -0.0752
18227W        W34036   1.044   4.109  13.233  0.0357  0.1258  0.0453
18228W        W34037  15.997  13.544   4.353  0.0582  0.2092  0.4335
18229W        W34038   0.202   5.105   4.446  0.1140 -0.0567  0.2604
18230W        W34039  13.006  15.217   2.539 -0.2533 -0.1222 -0.1797
18231W        W34040  10.803  11.303   0.726 -0.2057  0.1384  0.4942
18232W        W34041   9.176  15.895   4.375 -0.0819 -0.1176 -0.0360
18233W        W34042  17.721   9.911  12.546 -0.0307 -0.2410  0.5082
18234W        W34043   5.833  10.997   3.862 -0.2159 -0.2186 -0.1129
18235W        W34044  12.016   8.775  12.526  0.0590 -0.0853  0.0886
18236W        W34045  13.949  16.867  14.206 -0.2941  0.0447 -0.1743
18237W        W34046  17.479  17.438   1.844  0.1557 -0.1787  0.0257
18238W        W34047  15.579   4.268  13.338  0.1007  0.2972  0.2470
18239W        W34048  17.881  13.489  13.751 -0.2985  0.0391 -0.2055
18240W        W34049   9.476   0.000  10.556 -0.1132  0.0237 -0.2510
18241W        W34050   5.008   2.109   2.916 -0.1684 -0.1438  0.1150
18242W        W34051   3.332  17.415  13.656  0.3993  0.0941 -0.0232
18243W        W34052   3.570   6.609  15.576  0.0013 -0.0616  0.3244
18244W        W34053  16.527   9.700  13.265  0.3189 -0.0918 -0.0261
18245W        W34054  15.419   9.855  10.385 -0.2205 -0.0415  0.1204
18246W        W34055  17.583  16.395  12.126 -0.0392 -0.0118  0.1175
18247W        W34056  17.819   4.929  12.091 -0.2760  0.1438 -0.0056
18248W        W34057   7.445   4.225   2.026 -0.0342 -0.2015 -0.1613
18249W        W34058  12.842  17.080  15.221 -0.2530 -0.1315  0.2150
18250W        W34059  10.300  14.741   2.689 -0.0772 -0.0567  0.1332
18251W        W34060   5.654   2.341  15.264 -0.1160  0.3662  0.1267
18252W        W34061   8.955  11.798   0.485  0.2149  0.1232 -0.2966
18253W        W34062   6.194   6.548   2.925  0.0975 -0.1370  0.2969
18254W        W34063  11.823  16.337   2.948 -0.1278 -0.0070 -0.1499
18255W        W34064   1.516   9.743   9.752  0.4869  0.0806 -0.0480
18256W        W34065   9.817   3.267  12.530 -0.1419  0.2542  0.1629
18257W        W34066   6.660   4.322  14.732 -0.0402 -0.0104 -0.2654
18258W        W34067  17.946  12.580  14.090 -0.3102 -0.1105  0.3335
18259W        W34068   4.325  15.552   2.024 -0.0065 -0.1365  0.1132
18260W        W34069  15.676   3.852   1.981  0.1749 -0.0066  0.1891
18261W        W34070  10.176   9.017   2.974  0.2126  0.1547  0.0049
18262W        W34071  15.713  15.860  14.541 -0.2472  0.2829  0.0638
18263W        W34072  18.123   7.253  13.607 -0.1849  0.0460  0.3776
18264W        W34073   1.874   8.318  15.403 -0.2077  0.0136 -0.0996
18265W        W34074  16.140  14.734   3.818  0.2058  0.0724  0.1487
18266W        W34075   5.814   8.573  10.634  0.2889  0.2056 -0.0361
18267W        W34076   7.927   8.527   1.927  0.0514 -0.0983  0.0188
18268W        W34077   2.858  14.660  12.217  0.0739 -0.1440  0.0999
18269W        W34078   2.045   2.281   4.317 -0.2676  0.4465  0.0625
18270W        W34079  11.460  15.575  12.527  0.1432 -0.1322  0.1578
18271W        W34080   2.636   8.735  13.005  0.0860 -0.2933  0.1361
18272W        W34081   6.047  17.611  10.722 -0.2115 -0.0546  0.2296
18273W        W34082   4.661  15.688   3.359 -0.0770  0.1018 -0.0692
18274W        W34083  17.915  15.629  14.137 -0.0585 -0.1031  0.0829
18275W        W34084   5.962  12.150   2.221  0.0093 -0.1493 -0.3650
18276W        W34085  16.445  10.649   0.126 -0.2444 -0.1179 -0.1935
18277W        W34086  16.569   4.304   1.054 -0.1963  0.2997 -0.1796
18278W        W34087  15.849   5.424   3.661  0.0154 -0.0576 -0.0650
18279W        W34088   2.084   1.338   4.178 -0.1055 -0.1286  0.3329
18280W        W34089  15.623   9.324  11.302 -0.1471  0.1500  0.1934
18281W        W34090   0.777   3.304  12.621 -0.2348 -0.2372  0.2127
18282W        W34091   2.693   5.702  11.507  0.2615  0.2407  0.0550
18283W        W34092  14.482   0.591  10.148 -0.1967  0.2717 -0.0803
18284W        W34093  17.132   8.852  15.540 -0.0171  0.0888 -0.0805
18285W        W34094  11.294  15.824   6.249  0.0766  0.0967  0.1642
18286W        W34095  18.619  14.300   1.175  0.0060 -0.2990 -0.0602
18287W        W34096   8.459   6.224  15.510  0.0188 -0.0754 -0.0401
18288W        W34097   0.360  13.206  11.104 -0.0354  0.4112 -0.0620
18289W        W34098  18.522   1.359  11.501  0.0875  0.0719  0.0008
18290W        W34099   4.537  16.963  12.662  0.1321 -0.0337 -0.1130
18291W        W34100  15.886   0.973   2.270 -0.1675  0.3866 -0.1484
18292W        W34101  11.689   2.967  11.474  0.0741 -0.3001  0.5161
18293W        W34102   0.318   2.561   3.560 -0.0132  0.1571 -0.2309
18294W        W34103   9.151  13.111  14.602 -0.0713  0.2307 -0.2799
18295W        W34104  13.456  12.175  13.642 -0.1491  0.2355  0.3152
18296W        W34105  15.280   3.386  11.137  0.2364  0.0546  0.0195
18297W        W34106   8.387   8.156  14.468 -0.0911 -0.2336  0.0705
18298W        W34107   0.806   7.133   0.483  0.0364  0.1878  0.2044
18299W        W34108   9.444  17.445  14.091  0.0492 -0.0942 -0.1568
18300W        W34109  14.935   5.201   2.236  0.0258  0.1565 -0.3436
18301W        W34110   9.312   9.879   4.240 -0.3771 -0.1954 -0.1862
18302W        W34111  11.449   0.233  13.054  0.0517  0.3050  0.3665
18303W        W34112  18.217   2.155  11.657 -0.0470  0.0807  0.0414
18304W        W34113   8.822   8.687   3.724 -0.1046 -0.0259 -0.1413
18305W        W34114  11.316   4.588  14.419  0.0757 -0.1957  0.0092
18306W        W34115   8.409   6.746   0.132 -0.3198  0.5059  0.4805
18307W        W34116   1.778   6.181  14.853 -0.1358 -0.1529  0.3339
18308W        W34117  15.829   3.789   0.730  0.2387  0.0395 -0.1318
18309W        W34118  18.671   9.218  14.683  0.0844  0.1166  0.0721
18310W        W34119  13.773  14.863   2.142  0.5388 -0.2297  0.0139
18311W        W34120   4.130  17.762   4.292  0.1148 -0.0499  0.0014
18312W        W34121   1.128   1.948  10.973  0.0355 -0.0663 -0.1481
18313W        W34122   4.482  12.351   3.188  0.0779 -0.0152 -0.3543
18314W        W34123  15.099  17.187   0.562  0.0053 -0.2831 -0.1490
18315W        W34124  13.312  15.474   2.872 -0.2122  0.1917 -0.0361
18316W        W34125  18.465   7.081  14.001 -0.0809  0.1010  0.0464
18317W        W34126  14.328  14.211  15.615  0.0309 -0.1769  0.1222
18318W        W34127  13.609  15.880  11.216  0.2641 -0.4787  0.1506
18319W        W34128  12.407  16.014  12.368 -0.1731  0.0485  0.0456
18320W        W34129   4.225   3.938  12.546  0.2788 -0.1389 -0.1479
18321W        W34130  14.452   0.855   2.579  0.0580  0.0287  0.0328
18322W        W34131  10.047  14.267  14.644  0.0018 -0.2078  0.1441
18323W        W34132  12.581  17.439  11.895  0.0542 -0.0070  0.0576
18324W        W34133  10.560  15.820  12.521  0.3813 -0.0983 -0.0176
18325W        W34134   2.365   9.539  11.634 -0.2619 -0.1936 -0.0601
18326W        W34135  12.277   6.544   2.103  0.3230 -0.2296 -0.1350
18327W        W34136   4.464   4.250   2.909 -0.1347  0.0525  0.1630
18328W        W34137   0.403  18.626  15.116 -0.0608  0.2261 -0.4112
18329W        W34138  13.537   6.575   3.954  0.0482  0.0883 -0.0760
18330W        W34139   0.397   8.266  13.494 -0.1661  0.0077 -0.0921
18331W        W34140   5.776  17.548   4.284 -0.1602  0.0972 -0.0443
18332W        W34141   6.369   6.789  14.832  0.0476  0.1568 -0.0334
18333W        W34142  15.457  17.580  10.640  0.1200  0.1161 -0.2358
18334W        W34143  11.030  10.460   1.220 -0.1666 -0.2515  0.2035
18335W        W34144   6.994   0.790   0.081 -0.1044 -0.1799  0.1527
18336W        W34145   7.068  12.306   3.407  0.0385 -0.0921 -0.0026
18337W        W34146  15.554  13.878   0.052  0.0931 -0.2699 -0.1511
18338W        W34147   8.925   0.578   3.604  0.0939  0.1543 -0.0350
18339W        W34148   1.670  14.187  10.816  0.1433 -0.1312 -0.1567
18340W        W34149  15.495   4.651   1.737 -0.1805 -0.2957  0.1324
18341W        W34150  17.398  10.299  13.184  0.3022  0.0154 -0.3553
18342W        W34151   9.829   9.323   0.822 -0.4628  0.1460  0.0016
18343W        W34152   7.032  14.988  10.953  0.0230  0.2307  0.1268
18344W        W34153   9.058   1.054   1.698 -0.2149  0.1928  0.2139
18345W        W34154  14.253   6.440  15.448  0.0669  0.0513 -0.0975
18346W        W34155   0.080  17.720  11.829 -0.1247  0.1912  0.0556
18347W        W34156   2.154   2.897   1.705 -0.2376 -0.0514  0.1250
18348W        W34157   7.541   4.390   4.270  0.1160 -0.3951 -0.3716
18349W        W34158  10.299   4.735  14.269 -0.1137  0.3093 -0.2281
18350W        W34159  12.844  17.919  12.611 -0.1832 -0.1950  0.2145
18351W        W34160  15.043   6.917  14.559 -0.0190 -0.0284 -0.1254
18352W        W34161  15.293   7.491   2.087 -0.4243 -0.1466  0.1600
18353W        W34162   9.016  17.334   1.974  0.0452 -0.0792 -0.0814
18354W        W34163   8.226   7.580   2.340  0.1329 -0.1762 -0.0698
18355W        W34164  16.535  10.788   0.990  0.0507  0.1675  0.4811
18356W        W34165   0.220   9.058  11.251  0.0644 -0.0311  0.1333
18357W        W34166  12.493   7.093   2.934  0.0845 -0.0235  0.0532
18358W        W34167  10.879  12.077   3.002  0.0228  0.1466 -0.2043
18359W        W34168   6.240  11.881  11.348  0.2525 -0.1101 -0.1175
18360W        W34169   9.421  15.217  13.430 -0.0073 -0.0191 -0.0212
18361W        W34170   3.897  14.447   1.471 -0.2746  0.0179 -0.1471
18362W        W34171   5.756  16.128   2.686  0.0758 -0.1897  0.1911
18363W        W34172  18.517  16.610   1.099 -0.2497  0.0308 -0.0003
18364W        W34173   1.622   4.055   0.732 -0.0419 -0.1601 -0.0537
18365W        W34174   4.964   7.880   3.695 -0.0141  0.0048  0.3652
18366W        W34175   2.802   1.012   3.945 -0.1181  0.3706 -0.3751
18367W        W34176  17.395  14.649  11.327 -0.0002  0.2131 -0.0407
18368W        W34177  15.986  10.266   3.235  0.1469 -0.1122  0.3055
18369W        W34178   2.986   7.713  11.504 -0.0410  0.1401 -0.0829
18370W        W34179  17.927  10.665   4.400  0.1917 -0.1011 -0.1064
18371W        W34180  16.098   5.441   9.845  0.0434  0.0178 -0.0710
18372W        W34181  10.790   1.925   0.034 -0.0986 -0.0907  0.0319
18373W        W34182   3.280   1.354  14.171  0.4349  0.0868 -0.1685
18374W        W34183  12.768  13.712   3.506 -0.0397 -0.1363 -0.0148
18375W        W34184   1.107  18.584  12.959 -0.3436 -0.2763  0.1015
18376W        W34185   8.211  10.526  11.648 -0.2142 -0.0879  0.0952
18377W        W34186  10.465  16.161  12.212  0.0109  0.1139  0.1120
18378W        W34187  18.364   9.071  15.482  0.1265 -0.0839 -0.1172
18379W        W34188  12.453  12.149   3.339  0.2478 -0.3228  0.1916
18380W        W34189  15.278  11.930  10.821  0.2694 -0.2865 -0.0142
18381W        W34190   9.177  15.152   4.044 -0.2058  0.0179  0.2197
18382W        W34191  17.242   5.165   0.183  0.1641  0.0471 -0.1510
18383W        W34192  12.037   5.003   3.530 -0.1824  0.0296 -0.0990
18384W        W34193  13.502  10.042  10.332 -0.1901  0.1123 -0.2260
18385W        W34194  12.070   4.726   1.370 -0.0919  0.1765  0.0503
18386W        W34195  18.347  12.454  13.829  0.1444 -0.0922 -0.1134
18387W        W34196   0.305   5.109  11.247 -0.1240 -0.0649  0.1187
18388W        W34197  14.806   9.099   2.847  0.1262  0.2202 -0.1649
18389W        W34198   0.293  18.315  14.703  0.2202  0.0942 -0.1730
18390W        W34199  15.688  16.098  13.680  0.0024  0.0258  0.1508
18391W        W34200  17.029   8.963   3.001 -0.1272  0.3043 -0.1581
18392W        W34201  11.243  15.115  12.419 -0.2569 -0.2791 -0.0841
18393W        W34202   5.578   8.137  13.405 -0.1966  0.1410 -0.1806
18394W        W34203   6.781   6.525   0.222  0.3513  0.1315  0.2623
18395W        W34204  13.043  14.889   4.749  0.2307 -0.1587 -0.1704
18396W        W34205   0.504   6.296  14.459  0.0299 -0.0359  0.0290
18397W        W34206   5.029   9.834  14.321 -0.0334  0.0063 -0.2251
18398W        W34207  14.236  11.738  13.244 -0.1619  0.0643  0.2020
18399W        W34208   5.663  10.789  14.364 -0.2845  0.2099 -0.3105
18400W        W34209  10.108  11.444   5.242  0.2512  0.1615 -0.0283
18401W        W34210  16.655   5.627  14.179  0.0591  0.1864 -0.0811
18402W        W34211  11.728   9.822   5.182  0.3009  0.3096 -0.2947
18403W        W34212   8.007   5.766  14.558 -0.1360  0.1023 -0.4469
18404W        W34213   4.129   4.149  14.992 -0.1728  0.0461 -0.4751
18405W        W34214  11.811  13.147   4.675 -0.1191  0.1373 -0.3328
18406W        W34215  14.535   4.599  12.051 -0.1887 -0.0871  0.0874
18407W        W34216   0.766   3.738  14.660 -0.0612  0.0153  0.1202
18408W        W34217  10.610   7.702   5.143 -0.2593 -0.1786  0.1545
18409W        W34218  12.499   9.977  13.916 -0.0956  0.0344  0.0867
18410W        W34219   1.416  12.250   0.203  0.2060  0.0605 -0.1121
18411W        W34220  16.653   5.283   2.103 -0.1952  0.0581  0.3945
18412W        W34221  11.146   1.091  11.912  0.0054  0.0429 -0.1559
18413W        W34222  12.038   4.460   5.985  0.0289  0.2339  0.1363
18414W        W34223  11.966  10.503  11.083 -0.1216 -0.2559  0.1720
18415W        W34224  18.198   9.792  12.621  0.2189  0.3530  0.2009
18416W        W34225  12.022  15.328   1.685 -0.0701  0.1868  0.1371
18417W        W34226  13.533  12.364   9.993 -0.0960 -0.0151  0.0635
18418W        W34227   9.179  13.856  14.988  0.2754  0.0349 -0.3888
18419W        W34228   6.903   8.963   0.507  0.0253  0.2035 -0.0269
18420W        W34229   5.718   4.305   0.029 -0.5768  0.2691 -0.2026
18421W        W34230  15.135  11.210   0.960  0.1311  0.0663 -0.2479
18422W        W34231   3.368  13.066   5.665  0.1546  0.4715  0.2722
18423W        W34232   2.232   1.063   3.358 -0.0337 -0.0171 -0.2037
18424W        W34233  18.663   9.421   0.440 -0.0468 -0.3476 -0.2921
18425W        W34234   2.285   6.647  14.092  0.2188  0.2894  0.2094
18426W        W34235  11.202  10.298   0.543  0.3139  0.1109 -0.0164
18427W        W34236  12.179   0.628  15.416  0.0235 -0.0803  0.0262
18428W        W34237  14.930  16.323   2.125  0.1577 -0.2422  0.0483
18429W        W34238  11.409  10.347   3.208  0.0136  0.2368  0.2395
18430W        W34239  11.978   5.844  14.204 -0.1734 -0.0387  0.2939
18431W        W34240  15.627  15.970  11.040  0.3689 -0.0287  0.0243
18432W        W34241  10.301   9.734   3.564  0.0945 -0.0833 -0.2075
18433W        W34242   2.242  11.823   1.927  0.0479  0.1361 -0.1761
18434W        W34243  14.906  12.433  14.196  0.0825  0.1454 -0.1391
18435W        W34244  13.034   8.515  13.372  0.1363 -0.2459 -0.0314
18436W        W34245   7.848   5.029  13.479  0.2981  0.1561  0.1923
18437W        W34246  10.101  12.517   3.351  0.1135  0.4086 -0.1472
18438W        W34247  12.906  10.010  10.020 -0.0699  0.3197 -0.2471
18439W        W34248   3.196   8.639  14.826  0.0390  0.2146  0.3679
18440W        W34249  14.894   4.567  13.500  0.5158 -0.0888 -0.2368
18441W        W34250   8.345   6.076  14.164 -0.0230 -0.0321  0.1736
18442W        W34251   3.242  14.589  14.043  0.3069 -0.2089 -0.0949
18443W        W34252   6.004  15.048  15.247 -0.0325 -0.3556  0.2659
18444W        W34253  16.621   4.986  10.545 -0.2169  0.0823  0.1363
18445W        W34254  11.092   2.660   0.912 -0.1714 -0.2926  0.1631
18446W        W34255  16.728   4.793  14.576  0.0370 -0.2164  0.0917
18447W        W34256   4.866  17.296   0.959 -0.5069  0.0314 -0.1141
18448W        W34257   3.058  12.728   4.641 -0.2409 -0.1739 -0.1331
18449W        W34258   6.518  17.539   2.159  0.1372 -0.0950  0.1384
18450W        W34259   9.838   5.325   4.270 -0.3529 -0.2598 -0.2405
18451W        W34260  12.098  16.603  15.093 -0.1107  0.0147 -0.0452
18452W        W34261  14.373   4.669  13.322  0.0628  0.0340 -0.0044
18453W        W34262   6.494  12.543  10.194 -0.1463 -0.1235  0.0979
18454W        W34263   5.388   8.873   0.644 -0.0312 -0.1051  0.0976
18455W        W34264  12.365   8.747   3.713  0.0505 -0.1960  0.1119
18456W        W34265  16.730   6.023  11.349 -0.0270 -0.2143 -0.0602
18457W        W34266   4.537   0.969   2.007  0.0383 -0.2351 -0.1427
18458W        W34267   0.070  17.653   3.031  0.0558  0.2127  0.0941
18459W        W34268  13.527  14.600  13.325 -0.0892 -0.1833  0.1766
18460W        W34269   9.076   5.914   1.329  0.0346  0.0061  0.0676
18461W        W34270  10.728  10.870   1.534 -0.0738  0.1555  0.0535
18462W        W34271   9.281   7.836   5.152 -0.0254  0.1733 -0.0283
18463W        W34272  10.121   8.662  13.989 -0.1099 -0.0093 -0.1776
18464W        W34273  14.292   8.224  12.528 -0.0021 -0.0508  0.3485
18465W        W34274  15.050   3.054   4.914 -0.3025  0.0206 -0.0077
18466W        W34275   2.775   1.052  14.271  0.0314  0.3247  0.2839
18467W        W34276  16.509   8.344  13.514 -0.0215 -0.0799 -0.2847
18468W        W34277   7.754  13.791  10.978 -0.2901  0.2393 -0.2376
18469W        W34278  10.824  13.066   3.112 -0.2081  0.2015  0.1066
18470W        W34279  18.399   0.079  11.981 -0.0217 -0.0644 -0.1022
18471W        W34280   7.265  11.966  13.647 -0.1303  0.0366  0.3001
18472W        W34281   6.428  11.527  15.126  0.0569  0.1352  0.0592
18473W        W34282   1.395  15.774  15.514 -0.1369  0.0419  0.0315
18474W        W34283   3.819  10.492  11.378 -0.0247 -0.3029  0.2726
18475W        W34284   5.814  11.632  13.344 -0.1545 -0.0455  0.0751
18476W        W34285   3.626   2.722   0.517 -0.0558 -0.0646 -0.2129
18477W        W34286  13.891  16.781   1.867  0.2170 -0.1219 -0.1973
18478W        W34287   7.934  10.981   5.139  0.0582 -0.0771  0.1922
18479W        W34288   7.494  17.207  11.239  0.1896 -0.0081  0.2152
18480W        W34289   5.462  17.487   3.835  0.0353 -0.3365  0.1177
18481W        W34290   3.553   3.272   2.825  0.0393 -0.3134 -0.2058
18482W        W34291   7.279   9.695  12.012 -0.3302 -0.2102 -0.0176
18483W        W34292   8.761   0.953  11.036  0.1400  0.0746 -0.0953
18484W        W34293  13.122   4.491  11.814  0.1515 -0.2045 -0.2045
18485W        W34294  11.940   8.974  13.857 -0.3860 -0.0764 -0.2733
18486W        W34295   9.056   4.571  14.132  0.0497  0.1084  0.3306
18487W        W34296   0.414   7.225   3.846 -0.4631 -0.1239  0.1009
18488W        W34297   4.498  18.251  13.189 -0.0690 -0.2238  0.2280
18489W        W34298  12.720   4.511  13.542 -0.0427 -0.1285 -0.0017
18490W        W34299   3.498  18.029  13.569  0.2655  0.1073  0.2220
18491W        W34300   8.275  12.158  15.029  0.2249 -0.2910 -0.3763
18492W        W34301   0.169  12.242  14.468  0.1071  0.2962  0.2406
18493W        W34302   5.777   4.842  14.786 -0.2061  0.1907 -0.0685
18494W        W34303   0.806   8.820   3.461  0.0773 -0.0433 -0.0743
18495W        W34304   9.009   9.407  13.370  0.0027 -0.1307  0.0239
18496W        W34305   2.630  14.870  15.011  0.3116  0.0111  0.1006
18497W        W34306  11.131   5.363  12.559 -0.1694 -0.0448  0.1014
18498W        W34307   6.031   0.615   1.963 -0.3880 -0.0123  0.0903
18499W        W34308   5.033  11.442  13.951  0.1225 -0.2025  0.0340
18500W        W34309  12.914   1.550   4.987  0.1323 -0.0808 -0.1660
18501W        W34310   0.797   7.272  13.480 -0.1880  0.0675  0.0576
18502W        W34311  15.734   1.606  15.618 -0.2009 -0.0110  0.0023
18503W        W34312  14.500   9.922  14.861 -0.3248  0.0685  0.0281
18504W        W34313   3.563   5.740   1.770  0.2620 -0.1720 -0.1385
18505W        W34314   2.605  16.612  15.137 -0.0710 -0.2036 -0.1912
18506W        W34315   0.216   1.037  10.566  0.0834  0.0667 -0.4487
18507W        W34316  13.559   0.726   4.380  0.2297  0.1778 -0.0503
18508W        W34317   5.783  16.916   2.061 -0.0823  0.0968 -0.1399
18509W        W34318  15.566  18.563  14.800 -0.0206 -0.0404  0.1886
18510W        W34319  10.769   7.003   2.310 -0.0502 -0.3084  0.2837
18511W        W34320   6.098  13.991   3.682  0.2280  0.0547 -0.1613
18512W        W34321  15.382  14.387   2.649  0.1705  0.0718  0.0314
18513W        W34322   6.883  11.580  12.038 -0.1630 -0.0243  0.3184
18514W        W34323   5.604  16.554  11.523  0.2129  0.0243  0.0635
18515W        W34324  16.114   6.390  14.415  0.0705  0.2380  0.0730
18516W        W34325   8.656   1.695   1.632  0.1704 -0.2637 -0.1060
18517W        W34326  16.232   1.343   4.747 -0.4127  0.3313 -0.0015
18518W        W34327   1.807  13.809   1.819  0.0272 -0.1172 -0.5294
18519W        W34328   1.768   6.720  10.674  0.0820  0.1584 -0.2001
18520W        W34329   0.335  18.115   3.080  0.1992 -0.1274 -0.1331
18521W        W34330   2.054   8.988   1.438 -0.1588 -0.1854  0.1822
18522W        W34331   1.739   6.748  11.328 -0.0177 -0.0618 -0.2382
18523W        W34332   3.258  12.162   9.595  0.3879 -0.2034  0.0607
18524W        W34333   8.245  11.537   1.751 -0.1396  0.1446 -0.4468
18525W        W34334   1.739  15.542  10.418 -0.0970 -0.1562 -0.1687
18526W        W34335  13.991   4.997  10.935 -0.3964  0.3102 -0.1945
18527W        W34336  13.142  12.244  14.086 -0.0668  0.2855 -0.0306
18528W        W34337   8.245  18.483  12.752  0.1665 -0.1878 -0.1545
18529W        W34338  17.137   8.384  14.131  0.0938  0.0821  0.2969
18530W        W34339   5.839  15.290   0.308 -0.3145 -0.1679  0.0052
18531W        W34340  10.680  14.958   4.411  0.0528 -0.2818  0.0297
18532W        W34341  17.949   4.850  11.011 -0.0579  0.0468 -0.1926
18533W        W34342   9.501  14.073   3.688 -0.0952  0.0981 -0.1102
18534W        W34343   5.527   1.542  14.978  0.1274  0.0275  0.2044
18535W        W34344  14.690   7.629   1.691 -0.0749 -0.1651 -0.3431
18536W        W34345   4.666  12.992  15.320 -0.2611 -0.3302  0.1056
18537W        W34346   6.682   6.349  15.216 -0.0717  0.1444  0.2536
18538W        W34347   9.440   1.867  14.630 -0.3718  0.0527  0.0495
18539W        W34348  10.871   4.265   1.082 -0.0307 -0.0032  0.1898
18540W        W34349  14.886   3.261   2.077  0.2045  0.1859  0.1081
18541W        W34350   0.845   7.865  11.401  0.1386  0.1072 -0.4018
18542W        W34351   9.155  10.127  12.354  0.0763  0.1745 -0.1011
18543W        W34352   5.820  16.267  14.410 -0.0547  0.0300 -0.1677
18544W        W34353   5.468  16.809   1.535 -0.0870  0.0126 -0.0077
18545W        W34354   6.821  13.147   2.942 -0.2720 -0.0057 -0.1939
18546W        W34355   7.342   3.215   0.454  0.0947  0.1934  0.1011
18547W        W34356   0.632   2.853   3.036 -0.1807 -0.0019  0.1420
18548W        W34357  10.035   2.413  13.475 -0.2977  0.2370  0.0709
18549W        W34358  12.663  12.057   4.198 -0.1872  0.2672 -0.0254
18550W        W34359   6.633  14.281  13.722  0.0532  0.0787  0.0534
18551W        W34360  11.870  13.653  15.176 -0.0594  0.0639  0.0913
18552W        W34361   7.092  14.278  11.541 -0.0976  0.2240  0.1321
18553W        W34362   1.234  12.377   2.323  0.1316  0.1776  0.1021
18554W        W34363   3.980   5.484   2.535  0.1296  0.1510 -0.0240
18555W        W34364   0.420   7.799  12.148  0.1537  0.1123 -0.0373
18556W        W34365  10.052  12.030  13.239 -0.0720 -0.0456  0.1950
18557W        W34366  11.942  17.483  13.201  0.1069  0.0090 -0.2146
18558W        W34367  17.718   8.135  12.827  0.1760  0.1104  0.3175
18559W        W34368   3.248   4.406  10.676  0.0949  0.0662  0.1507
18560W        W34369   1.815  11.962  13.462  0.2684  0.1958  0.1013
18561W        W34370  15.042   6.983   2.372  0.1221  0.0600 -0.1429
18562W        W34371   1.258  18.070  12.434  0.1375 -0.4072 -0.1542
18563W        W34372   4.387   8.787  14.195  0.2011 -0.1584 -0.0960
18564W        W34373  10.658  18.328   0.252 -0.0003 -0.2341 -0.1641
18565W        W34374   9.639   1.120   4.360 -0.1765 -0.0365 -0.1387
18566W        W34375  13.619  13.132  14.834  0.2522  0.0974  0.1624
18567W        W34376  18.663   0.156   4.047  0.0345 -0.0341  0.0554
18568W        W34377  16.510  18.183  15.291 -0.0493 -0.1531  0.0685
18569W        W34378   5.305  17.693   1.241 -0.3276  0.0257 -0.2504
18570W        W34379   5.794  12.820  12.750  0.1040 -0.2447 -0.3907
18571W        W34380  11.454   4.567   2.352  0.1474 -0.1232  0.0423
18572W        W34381   5.591  18.538   5.343 -0.0227  0.1848  0.0327
18573W        W34382   9.246  15.567   0.899 -0.2768  0.0381  0.2899
18574W        W34383  12.521   1.711  15.599  0.1601 -0.1464 -0.0258
18575W        W34384   8.095  18.283  10.509  0.1597  0.2460  0.1124
18576W        W34385   7.270  16.893  12.495  0.0826 -0.2729  0.3005
18577W        W34386   5.282   3.427  11.382 -0.0788 -0.3192  0.1333
18578W        W34387   1.292   0.696   4.404  0.1236  0.0915  0.0846
18579W        W34388  11.293   7.179   4.735 -0.0464 -0.0356  0.1751
18580W        W34389  13.320  14.214  13.567  0.0170 -0.1168  0.1025
18581W        W34390   2.928  11.437  10.776  0.0633  0.0440 -0.0977
18582W        W34391   8.127   8.406   0.138  0.2026 -0.0834  0.3175
18583W        W34392   8.118  16.419   1.166  0.2313  0.3774 -0.0947
18584W        W34393  14.224   0.559  11.307  0.0261  0.6171 -0.2534
18585W        W34394   0.205   9.534  11.044  0.0664  0.3399 -0.3444
18586W        W34395   2.364   5.832   2.682  0.3612 -0.1340 -0.2263
18587W        W34396   1.396   4.633   3.841 -0.2718 -0.0705  0.0963
18588W        W34397   4.102  11.815  11.610  0.1784 -0.0974 -0.3787
18589W        W34398  10.416   0.619  10.608 -0.2061 -0.0430  0.1778
18590W        W34399  12.487   8.592  12.598  0.1618 -0.1026 -0.1396
18591W        W34400  12.198  16.901   0.772 -0.2099  0.1701  0.0354
18592W        W34401   9.926  16.569  15.399 -0.2402 -0.3463 -0.1394
18593W        W34402  15.203  15.154  13.181  0.1738  0.0993 -0.0459
18594W        W34403   0.005   0.559  11.840 -0.1986  0.0162  0.2820
18595W        W34404   4.744  16.960   0.024  0.0984  0.0575 -0.0927
18596W        W34405   7.898  17.149   0.119  0.1191 -0.0335 -0.0880
18597W        W34406  17.419  10.858  13.044 -0.1364 -0.0751  0.0188
18598W        W34407  12.385   1.949  13.476  0.2412 -0.0072  0.2556
18599W        W34408  12.162   1.425  15.192 -0.2315 -0.4882 -0.0778
18600W        W34409  11.289  11.260  14.634 -0.4862  0.1626 -0.1640
18601W        W34410   1.072   4.673  11.255 -0.0824  0.5557 -0.1310
18602W        W34411  13.127  13.461   3.695  0.0492  0.0671 -0.1415
18603W        W34412  14.634   8.632   2.863  0.1388 -0.3221  0.0636
18604W        W34413   7.370  16.736   9.676 -0.3031 -0.2473 -0.1093
18605W        W34414  17.182  15.645  14.623 -0.0416 -0.1409  0.2606
18606W        W34415  10.810  13.316   4.267  0.0457  0.0453  0.0691
18607W        W34416  13.819  15.655   5.350 -0.3933 -0.1269  0.0628
18608W        W34417  12.288  17.108   2.452  0.1123 -0.1280  0.1508
18609W        W34418  15.661  10.521   3.466 -0.0169 -0.0672 -0.1765
18610W        W34419  11.635   3.777   4.247 -0.0865  0.2115 -0.2077
18611W        W34420   2.048   4.932   1.638 -0.0517 -0.0705 -0.0727
18612W        W34421  11.433  17.188   1.022 -0.3643 -0.0150  0.2811
18613W        W34422  14.595   1.323  13.072 -0.0898  0.1456 -0.3391
18614W        W34423  18.154  12.539   4.182  0.1686  0.0438 -0.0109
18615W        W34424  11.898  16.927   5.978 -0.2332  0.0694 -0.1992
18616W        W34425  14.786   6.580  12.514 -0.2537  0.0630 -0.2263
18617W        W34426   2.541  16.770   0.688  0.2585  0.1739  0.0437
18618W        W34427  10.030   2.885   4.613  0.0050 -0.0541  0.0824
18619W        W34428  18.366   3.005   0.992  0.2183  0.1947 -0.0088
18620W        W34429   4.325  13.904   5.136  0.0744 -0.2885 -0.2146
18621W        W34430   1.605   5.076   1.039  0.1205 -0.0918  0.0641
18622W        W34431   7.638  16.762   4.281 -0.0600  0.3877  0.1799
18623W        W34432  15.736  12.575   3.275 -0.2154 -0.0878  0.0642
18624W        W34433   5.707  15.953   1.967 -0.1032  0.1058 -0.0095
18625W        W34434   8.639   6.407   2.750  0.3311  0.3168 -0.4800
18626W        W34435   1.611  14.691  13.118  0.2303 -0.0848 -0.2166
18627W        W34436  16.452  15.505  11.575 -0.3856 -0.0019  0.0435
18628W        W34437   9.098   5.014   9.757  0.1373 -0.1441  0.2338
18629W        W34438  16.275   7.806   0.938 -0.1599 -0.0706 -0.1061
18630W        W34439  11.492  18.455   0.896  0.1649  0.2306 -0.0440
18631W        W34440   2.295   6.359  14.942 -0.0905  0.0791 -0.1390
18632W        W34441   2.828  14.317  11.331 -0.4129 -0.4027 -0.0207
18633W        W34442   9.310   4.776  14.537  0.0672 -0.0416 -0.0270
18634W        W34443   9.063  12.545   3.738  0.0078  0.2198  0.0651
18635W        W34444  14.836  17.672   4.502 -0.2393 -0.1791  0.0673
18636W        W34445   3.889  11.151  10.971  0.0252 -0.3248 -0.0678
18637W        W34446   2.082  13.928  15.614 -0.0033 -0.2671 -0.0344
18638W        W34447   3.233  17.079  11.805 -0.0216 -0.0986 -0.3573
18639W        W34448   9.208   5.324  12.187 -0.0525  0.2055  0.0439
18640W        W34449   4.328   9.093   0.537  0.1406  0.2381  0.0347
18641W        W34450  13.294   1.951   2.017 -0.1515  0.0604 -0.1741
18642W        W34451  10.821  15.223  12.047 -0.0336  0.0710 -0.3453
18643W        W34452  17.100  12.930   2.918 -0.3549  0.0975 -0.1486
18644W        W34453   7.282   9.975  11.584  0.1378  0.0782  0.1607
18645W        W34454   6.128  14.218  13.712 -0.1270 -0.0326 -0.2383
18646W        W34455   9.943  10.482   3.190 -0.1502 -0.5177  0.1819
18647W        W34456   8.854  17.782   2.613  0.3578  0.5103  0.2215
18648W        W34457   6.136  10.119  14.366  0.1208 -0.1833  0.4852
18649W        W34458  14.438  15.083   4.339 -0.1366  0.1027  0.0156
18650W        W34459  16.250   7.165  10.718  0.1485 -0.1370 -0.1155
18651W        W34460   2.397   8.643  14.448  0.3559  0.0159  0.1103
18652W        W34461   0.208  17.162   9.580  0.0868 -0.0132  0.0636
18653W        W34462   5.277   4.388   0.707  0.0123  0.3262 -0.2255
18654W        W34463   6.526   1.356  14.162 -0.1631  0.0696  0.0286
18655W        W34464   4.107   4.533  12.299  0.0512 -0.0473  0.2587
18656W        W34465   3.074   6.516  12.081 -0.3013  0.1118  0.1266
18657W        W34466  13.144   4.055  14.639  0.5254 -0.0205 -0.0266
18658W        W34467  13.543   8.559  13.232 -0.0744 -0.1088  0.3179
18659W        W34468   9.082  15.039   3.494  0.1115 -0.0124 -0.0624
18660W        W34469   6.381   6.370  13.031  0.4632 -0.3001  0.0139
18661W        W34470   4.378  11.730   1.254 -0.1184 -0.0261 -0.0170
18662W        W34471   2.013   6.351  12.845  0.2689 -0.0967  0.0803
18663W        W34472   6.089   7.510   4.520  0.0659  0.0411 -0.2497
18664W        W34473   1.410   4.703  10.599 -0.0441  0.0005 -0.1077
18665W        W34474   4.997  14.773   1.818  0.0718  0.0584  0.0725
18666W        W34475   4.864   2.824  13.615 -0.0246 -0.5188  0.2811
18667W        W34476   6.038  15.752   0.267  0.1908 -0.2396  0.2794
18668W        W34477   7.127  14.100  13.877  0.0042  0.3041 -0.2005
18669W        W34478  12.598   0.680   0.077  0.4558 -0.2032  0.1337
18670W        W34479   7.167  11.895   1.153  0.2344  0.2275  0.0260
18671W        W34480   4.257  15.172   3.478  0.0054 -0.2025  0.1777
18672W        W34481   7.158  14.793  11.430 -0.4619  0.2444 -0.1946
18673W        W34482   2.166  15.268   0.946  0.2239 -0.3183  0.1600
18674W        W34483  18.251  10.936  14.048 -0.2491 -0.0634 -0.1805
18675W        W34484   6.885   4.586   0.403 -0.2905 -0.0580  0.0139
18676W        W34485   3.214  13.882   1.422  0.0269 -0.1115 -0.1813
18677W        W34486  16.542  17.177  11.383 -0.1422 -0.0638  0.0750
18678W        W34487   6.096  17.247   2.276 -0.0903 -0.0450 -0.2900
18679W        W34488   9.235   6.986   2.319 -0.0289  0.1292 -0.1712
18680W        W34489   9.135  15.954  11.019  0.0044  0.4348  0.2413
18681W        W34490  10.224   5.602   2.022 -0.3318 -0.0326  0.1443
18682W        W34491  17.369  14.699  11.867 -0.2122  0.1488  0.0198
18683W        W34492   0.016  15.053   3.617  0.1968 -0.0342 -0.0462
18684W        W34493   1.336   5.912   1.512  0.1561 -0.1243 -0.0157
18685W        W34494   3.109  17.829   9.511 -0.1036 -0.2644 -0.1121
18686W        W34495   4.580   3.659   2.996 -0.3173  0.1473 -0.0404
18687W        W34496   4.869  15.988   3.713 -0.0053  0.1349  0.0083
18688W        W34497   9.252  16.340   5.790 -0.0810  0.1393 -0.3420
18689W        W34498   2.933  18.092  13.001 -0.0851  0.2318  0.0493
18690W        W34499   2.505  14.743  11.286  0.1161 -0.1458 -0.1572
18691W        W34500  15.830   6.009   1.923 -0.0147 -0.1766 -0.1341
18692W        W34501   1.413  13.520   0.684  0.1435 -0.3021  0.0204
18693W        W34502   3.203  13.098   2.171 -0.0766  0.3543 -0.0904
18694W        W34503   4.161   6.500   9.918 -0.0971  0.0644 -0.0450
18695W        W34504   8.071  10.718  13.947  0.1811 -0.1481  0.1042
18696W        W34505   3.664  16.986   4.767  0.0554 -0.1808  0.2611
18697W        W34506  10.907   6.200   5.258  0.1296 -0.2115  0.1651
18698W        W34507   2.395  15.207  11.472  0.0039  0.3321  0.0100
18699W        W34508   0.734  15.422  14.969  0.1478 -0.0781 -0.1854
18700W        W34509   0.110   5.481   9.889  0.1751 -0.0002 -0.0392
18701W        W34510   7.395  11.209   2.264 -0.1968 -0.1799  0.1059
18702W        W34511   0.310   9.277   1.742  0.1741  0.0321  0.0907
18703W        W34512  11.076  13.644   1.909  0.2668 -0.2217 -0.0731
18704W        W34513  16.337   4.403   0.245  0.1017 -0.0505  0.1695
18705W        W34514  18.451   2.656   2.149  0.2057 -0.1114 -0.0599
18706W        W34515   1.250  12.340   4.423  0.0942  0.1545  0.0043
18707W        W34516   1.152   6.854  13.090 -0.2313  0.0818  0.0647
18708W        W34517  12.649   5.641  12.308 -0.1235  0.1885  0.1728
18709W        W34518  18.142  10.683  10.646 -0.1008  0.0962  0.1387
18710W        W34519   7.730  12.007  13.587 -0.0259  0.2809 -0.0971
18711W        W34520   5.843  15.672   1.121 -0.1248 -0.0451  0.1262
18712W        W34521   1.913  17.917  11.967  0.0424 -0.4160 -0.2034
18713W        W34522  16.601  12.420  12.981 -0.3062  0.2613 -0.0945
18714W        W34523  12.623   4.335   1.978 -0.2945 -0.0047  0.2363
18715W        W34524  14.742  16.357  14.085 -0.2310 -0.2828 -0.2858
18716W        W34525  12.194  13.345   4.848 -0.3433 -0.1222  0.0582
18717W        W34526   8.999  17.588   1.102  0.3972 -0.3332  0.0410
18718W        W34527   8.864  17.665  11.155  0.0406  0.0033  0.1391
18719W        W34528  12.274   8.764   2.052  0.2311 -0.0056 -0.0086
18720W        W34529  13.729  12.838  10.127 -0.0869  0.0096  0.2711
18721W        W34530  18.109   3.119  11.326  0.1474 -0.1722 -0.2689
18722W        W34531  12.050   0.071   4.593 -0.0854  0.1412 -0.1454
18723W        W34532   1.743   0.961   2.773  0.0752 -0.1079  0.0942
18724W        W34533   1.177   9.357  11.713 -0.2765 -0.0822 -0.2673
18725W        W34534  11.709  17.455  13.672  0.1501  0.2673 -0.1204
18726W        W34535   5.240   3.575  14.668 -0.0443 -0.1939  0.1538
18727W        W34536  10.653  11.945   4.383 -0.2136 -0.1007  0.0214
18728W        W34537   0.304  18.329   4.461 -0.0699  0.1765 -0.1790
18729W        W34538  17.966   6.839   2.249 -0.1094  0.0092  0.1260
18730W        W34539  14.431   3.305  14.331 -0.0096  0.1461  0.1179
18731W        W34540   0.239  15.064   2.379 -0.0132 -0.0576  0.3211
18732W        W34541   8.198  14.185  13.735 -0.2290 -0.3519 -0.2219
18733W        W34542  15.376   0.289  12.124  0.2188  0.3681 -0.4072
18734W        W34543  18.368   6.894  11.464  0.3906  0.2931  0.0526
18735W        W34544  10.276  18.245   5.802  0.0971  0.3116  0.2488
18736W        W34545   9.093   5.530   0.089  0.1265  0.1936  0.2652
18737W        W34546   1.383  17.228   5.400 -0.0237 -0.0766 -0.0248
18738W        W34547  10.008   4.808   0.256  0.1161  0.2977 -0.2932
18739W        W34548   9.895  11.570   4.733  0.1305 -0.1650 -0.2143
18740W        W34549  11.901   3.503  15.317 -0.0913 -0.0450 -0.1197
18741W        W34550   3.545  17.776   3.658 -0.0863 -0.0429 -0.1026
18742W        W34551  13.744  10.836   5.193 -0.3589 -0.1007 -0.1475
18743W        W34552  12.325  18.264  14.084 -0.2213  0.0146 -0.1955
18744W        W34553  18.371  17.556   1.584  0.2007 -0.0178 -0.1347
18745W        W34554  15.390  18.347   3.777 -0.2861 -0.1456  0.0662
18746W        W34555   9.311   5.030   1.026 -0.1176  0.2992  0.1391
18747W        W34556  16.548  15.810  13.826  0.2672  0.0148 -0.2251
18748W        W34557  11.682  12.194   1.822  0.4161 -0.0984 -0.1311
18749W        W34558   9.394  17.784   0.414 -0.0328 -0.0758 -0.2083
18750W        W34559  14.964   7.017  11.130 -0.3220 -0.0894  0.2279
18751W        W34560  15.121   9.087  13.699  0.2589  0.0742  0.0215
18752W        W34561  18.520  16.964  15.423 -0.0405 -0.0164 -0.2295
18753W        W34562   9.644  10.068  11.582 -0.3347 -0.0559 -0.1268
18754W        W34563  15.175  10.542  10.811  0.0140  0.0703  0.0048
18755W        W34564  14.834  11.291   0.526  0.1751 -0.0829  0.3333
18756W        W34565  12.719  11.760   2.468 -0.2337  0.1362 -0.0342
18757W        W34566   9.587   6.364  14.717 -0.1733  0.3021 -0.1199
18758W        W34567  16.293   2.271  11.045  0.1780  0.0157 -0.0566
18759W        W34568  18.165   5.945   0.861  0.1412  0.0371 -0.2126
18760W        W34569  14.220   1.236   1.110  0.0538  0.2648  0.2223
18761W        W34570  11.324   9.474  15.587  0.0883  0.0158 -0.3284
18762W        W34571  16.338   6.966   0.010  0.0353  0.2937  0.2005
18763W        W34572  12.448   2.672   5.786  0.3733  0.0042 -0.0431
18764W        W34573  12.806  16.883   2.401  0.2236  0.3163  0.0781
18765W        W34574  13.326   0.939  11.835 -0.0047  0.2313  0.4077
18766W        W34575  16.795   3.540  14.310  0.2789 -0.0337 -0.0842
18767W        W34576  15.696  17.165  12.015  0.0148  0.1870  0.0192
18768W        W34577   3.074  12.321  12.453  0.1551 -0.2768  0.1659
18769W        W34578  15.468   2.776   6.131  0.3931  0.1388  0.1128
18770W        W34579   5.908  17.398  10.292 -0.0459 -0.1848  0.4071
18771W        W34580  13.094   2.043  12.261  0.1910  0.2733 -0.1321
18772W        W34581  10.682  12.812  12.348 -0.0016 -0.0800  0.0573
18773W        W34582   4.511  15.695  12.867  0.2917  0.0830  0.3260
18774W        W34583  17.159   5.321  13.917  0.3011 -0.0196  0.1019
18775W        W34584   4.726  10.913   2.707  0.1026 -0.0406 -0.0219
18776W        W34585  11.308   7.208   2.318 -0.3266 -0.0883 -0.0274
18777W        W34586   9.739  12.121   0.900 -0.1084 -0.0269 -0.0888
18778W        W34587  10.048   0.201   1.159 -0.2016  0.0377 -0.3733
18779W        W34588  15.577  15.548  11.317 -0.0611  0.1146  0.0684
18780W        W34589   2.679   4.347   2.410 -0.0055 -0.1964 -0.3713
18781W        W34590  11.633  14.805  11.539  0.2305  0.0765  0.0493
18782W        W34591  10.592   4.753   1.054 -0.1200 -0.2545 -0.1958
18783W        W34592  16.457   6.406  14.767 -0.1718 -0.1490 -0.2992
18784W        W34593   5.855   5.106  11.932  0.1470 -0.2511  0.1042
18785W        W34594   2.495  18.335   3.646 -0.3096  0.4023 -0.2097
18786W        W34595  16.866   3.807  13.610 -0.3052  0.0415 -0.0742
18787W        W34596  16.545  11.189   2.696 -0.0807 -0.0781 -0.1604
18788W        W34597  15.390   7.037  11.861  0.3757 -0.3434  0.0428
18789W        W34598  15.306   2.487   2.235  0.0481 -0.1937  0.0387
18790W        W34599  16.304  17.801  14.719 -0.0973  0.2625  0.3497
18791W        W34600  13.175   9.485  12.988  0.0287 -0.0287 -0.2227
18792W        W34601   6.343   5.448  10.983  0.0345  0.3365  0.1326
18793W        W34602   9.024   1.511   0.394 -0.2309  0.0483 -0.2499
18794W        W34603  11.231  14.334   3.459  0.1905  0.2118 -0.3225
18795W        W34604   1.198  15.021  10.846 -0.2768  0.0067 -0.0307
18796W        W34605  13.474  10.849  15.453 -0.2617  0.2673  0.2894
18797W        W34606   4.097  13.246  11.382  0.2401 -0.0747  0.2234
18798W        W34607  14.387  12.632  11.545 -0.2564 -0.2696  0.0342
18799W        W34608  12.236   7.365  10.015  0.0649  0.1959  0.0848
18800W        W34609   3.783   0.104  13.993  0.0160  0.0138  0.1721
18801W        W34610   8.803  10.006   3.363 -0.1799  0.1445  0.3201
18802W        W34611  12.453   0.046   3.802  0.0684  0.1542  0.2010
18803W        W34612  10.983   5.938  14.348 -0.0853  0.1604 -0.0571
18804W        W34613   7.625  17.613   4.404 -0.2466  0.1187 -0.0941
18805W        W34614   6.896  12.502  13.674 -0.0032 -0.0480  0.0923
18806W        W34615   9.510   7.567  12.288  0.0034 -0.0448  0.0790
18807W        W34616   9.061   4.426  12.206 -0.1165  0.0007 -0.0161
18808W        W34617   6.450  17.522   6.144  0.1089  0.1135 -0.0042
18809W        W34618   6.476  18.107   2.218  0.2593  0.2412  0.0600
18810W        W34619   8.873  10.131  13.302  0.2326 -0.1639  0.1038
18811W        W34620  13.103   4.959   2.644 -0.1606 -0.0936  0.2004
18812W        W34621  17.900   9.765  10.337  0.1499 -0.1267  0.1352
18813W        W34622  12.099   5.976   3.440 -0.0059 -0.1755  0.3745
18814W        W34623  16.342   2.879  15.330 -0.0959 -0.1554  0.1493
18815W        W34624  10.737   0.788   3.256 -0.1076 -0.0159 -0.1320
18816W        W34625   3.612   6.426  14.518  0.1748  0.0042  0.2529
18817W        W34626  13.330   7.896   4.942  0.4263 -0.1255  0.2642
18818W        W34627  17.485   1.341  13.081  0.3902  0.0534 -0.0008
18819W        W34628   7.169  17.233  13.568  0.1680 -0.0812 -0.0720
18820W        W34629   4.655  18.669   3.666 -0.1820 -0.1200 -0.0298
18821W        W34630  18.321  16.628  13.516  0.2286 -0.1382 -0.2221
18822W        W34631   0.075   6.731  11.709  0.0191 -0.2446  0.2295
18823W        W34632  12.673   6.505   4.252  0.4390  0.2066  0.0829
18824W        W34633   1.801  11.572  13.808 -0.1344 -0.1707  0.1222
18825W        W34634  12.597  13.327  12.419  0.0704 -0.3155  0.1351
18826W        W34635  14.242   1.353  11.743  0.4587  0.0113 -0.1562
18827W        W34636   0.881  14.486  11.440  0.0967 -0.2217 -0.1340
18828W        W34637  14.008   9.581   9.709  0.0782  0.2692 -0.0051
18829W        W34638   4.330  12.696  15.515  0.1770  0.3347  0.0933
18830W        W34639   1.944   8.650   9.946 -0.0009  0.1188  0.0482
18831W        W34640  10.346   1.118   2.410  0.2483  0.0270  0.1011
18832W        W34641  18.257   7.568   4.210 -0.0834 -0.0051  0.1782
18833W        W34642   6.763   9.494  15.337  0.2221 -0.0814  0.2313
18834W        W34643   3.615  11.018  10.484  0.1882 -0.1260  0.2745
18835W        W34644  16.730  13.469  10.963  0.1116  0.0154  0.0199
18836W        W34645   5.987   3.564   0.274  0.1963  0.2951 -0.0057
18837W        W34646  14.363   5.646   2.365 -0.0220  0.0386  0.1910
18838W        W34647   0.605  10.066  10.362 -0.1671 -0.1143 -0.1680
18839W        W34648  10.451  11.833   0.387 -0.0226 -0.1607  0.0860
18840W        W34649  14.662   6.270   5.014  0.0942  0.1104  0.1187
18841W        W34650  10.808   1.890   0.503 -0.3850 -0.0688  0.1670
18842W        W34651   9.339   8.454  12.820 -0.0538 -0.0993  0.0186
18843W        W34652   1.472  11.598  14.239  0.0106  0.1813  0.0742
18844W        W34653   9.968   7.037   0.219 -0.3323 -0.0302 -0.0954
18845W        W34654   8.664  16.687  11.511 -0.1969  0.1035 -0.0627
18846W        W34655   0.409   9.943  11.591 -0.1483 -0.1154  0.3091
18847W        W34656  13.691  16.030   2.825 -0.0933  0.2635  0.0872
18848W        W34657  14.954  13.172   1.405 -0.2398 -0.0394 -0.3012
18849W        W34658  11.429  15.566  13.277 -0.0807 -0.0130  0.0574
18850W        W34659   1.494  17.663  13.727  0.3225 -0.0634 -0.1288
18851W        W34660  15.298  13.391  15.604 -0.3512 -0.0744 -0.0410
18852W        W34661  14.887   1.868   5.199 -0.1850  0.2111  0.2637
18853W        W34662   1.247  17.178  11.024  0.3122 -0.3707 -0.2018
18854W        W34663   2.685  11.052   0.057  0.0186  0.4527  0.2765
18855W        W34664  11.434  16.698   1.435 -0.2566  0.0692  0.1076
18856W        W34665  18.290  16.956   5.314  0.0208  0.3771 -0.3689
18857W        W34666  10.377   0.060   0.113  0.0249 -0.3206  0.0463
18858W        W34667   9.626  10.504   1.718 -0.2247 -0.1163  0.1167
18859W        W34668   1.321   1.158  10.614 -0.3509  0.0024 -0.0612
18860W        W34669   9.476   5.043  10.492  0.0165 -0.0473 -0.2830
18861W        W34670   5.530  15.703   5.209 -0.0143  0.1607  0.1738
18862W        W34671   3.940   8.441  13.461 -0.1555  0.1482  0.2393
18863W        W34672  15.053  12.717   4.430  0.0749 -0.1406  0.1786
18864W        W34673   9.054   1.565   1.323  0.0858  0.1011  0.0602
18865W        W34674   8.688  13.854   0.309  0.1823 -0.3146 -0.0604
18866W        W34675  11.186  13.698   1.415  0.1441 -0.1380  0.0663
18867W        W34676  15.819   7.323  14.311  0.0956 -0.0382  0.1330
18868W        W34677   6.570   1.640   2.599 -0.1261 -0.0141 -0.4561
18869W        W34678   4.514  11.029   3.214  0.3439  0.1087 -0.0675
18870W        W34679   3.119  11.687   2.193  0.0310 -0.0386 -0.2878
18871W        W34680  14.969   9.254  10.675 -0.1967  0.1002 -0.0592
18872W        W34681  16.554   5.237  13.756  0.1260  0.0748  0.2512
18873W        W34682  12.831  11.918   0.961  0.1269  0.0191  0.0931
18874W        W34683  16.536   4.739   3.304 -0.0775 -0.0145  0.1038
18875W        W34684  11.552   8.069   2.968  0.2425 -0.0215  0.0078
18876W        W34685   7.649   0.968   2.450  0.0833  0.0024  0.5192
18877W        W34686   0.403   5.853  12.463  0.0917  0.0949 -0.0031
18878W        W34687   6.356   7.155   5.280 -0.0559 -0.1499 -0.1596
18879W        W34688   9.274  12.544   5.302  0.0817 -0.0988 -0.2990
18880W        W34689   8.470   2.601  10.903  0.1072  0.1831  0.2616
18881W        W34690   4.974   4.567  12.184  0.1231 -0.1761 -0.0348
18882W        W34691  14.217   0.839  14.417 -0.1393 -0.1616  0.3014
18883W        W34692  18.546   3.289  14.744 -0.4711 -0.0571  0.1873
18884W        W34693  13.121   3.413  10.643  0.1439  0.0459 -0.0239
18885W        W34694  12.385  18.219   2.040 -0.0506 -0.0538 -0.0094
18886W        W34695   9.495   1.753  13.463 -0.1833 -0.1889 -0.2720
18887W        W34696   8.857  11.336   0.398  0.0857 -0.0685  0.3956
18888W        W34697  11.805   9.714  15.550  0.1844  0.0521  0.0919
18889W        W34698  17.391  11.374  15.406 -0.1725 -0.0315  0.1810
18890W        W34699  10.602  11.982  13.780 -0.1413 -0.0299  0.0602
18891W        W34700  16.032   8.848   4.874  0.1306  0.1321  0.0665
18892W        W34701  17.847  17.758  14.259 -0.0198 -0.0946 -0.0157
18893W        W34702   4.179   0.490  10.366  0.0145  0.1349  0.1613
18894W        W34703  18.411   4.088   4.695 -0.0293  0.1510 -0.3243
18895W        W34704   0.756   7.641   2.052  0.2376 -0.0393 -0.2476
18896W        W34705   1.880   0.583  14.580  0.1286  0.0253 -0.0417
18897W        W34706   7.470   5.223  12.795 -0.0134  0.2719  0.1263
18898W        W34707  15.592  17.553   2.765  0.1889  0.0193  0.0367
18899W        W34708  16.838  17.626   0.382 -0.0264  0.0478  0.1776
18900W        W34709   5.364  10.760  15.235 -0.2556 -0.3367 -0.3542
18901W        W34710   5.559   4.899  13.599  0.1638 -0.3766  0.0933
18902W        W34711  15.012  13.898  13.502 -0.2461  0.0266  0.3955
18903W        W34712   4.734  18.470  12.666  0.3360 -0.1202  0.3865
18904W        W34713   4.296  15.047  12.686 -0.0486 -0.1206 -0.1536
18905W        W34714   0.445  13.787  10.878 -0.1080  0.1642  0.0344
18906W        W34715   2.050  13.040  12.270  0.0618  0.2342 -0.1314
18907W        W34716   2.856   4.751  10.373 -0.0227  0.0197  0.0208
18908W        W34717   3.715   6.729   4.451  0.0448  0.2310 -0.1089
18909W        W34718  10.570   0.729   4.158  0.0251  0.1866 -0.1004
18910W        W34719   6.010   7.990   3.245 -0.3266 -0.1879  0.1150
18911W        W34720  16.221   3.700   4.784 -0.1984  0.0251 -0.1710
18912W        W34721  11.874  15.265  11.461  0.1246 -0.2576  0.2216
18913W        W34722  15.709  13.547  15.304  0.1380 -0.3689 -0.0971
18914W        W34723  17.465  10.584   4.393 -0.2060 -0.2893 -0.0781
18915W        W34724  10.417  17.780  15.578  0.2326 -0.0390 -0.0237
18916W        W34725  15.984  14.054   2.919  0.1897  0.0776 -0.0614
18917W        W34726  16.158  11.985  11.220  0.2891  0.2546 -0.0809
18918W        W34727  12.440   7.802   4.732 -0.4680 -0.1443  0.0621
18919W        W34728   5.591  13.571   5.070 -0.1286  0.0474 -0.1940
18920W        W34729   0.488   0.804  15.496 -0.1236 -0.2133  0.0494
18921W        W34730  14.138   3.743   2.769 -0.0249 -0.0365 -0.0681
18922W        W34731  17.094  18.571  14.460 -0.0286 -0.1440  0.2925
18923W        W34732  18.306   0.484  12.243 -0.0479 -0.0698 -0.1638
18924W        W34733  18.123   6.614   3.173  0.0106 -0.2767 -0.3396
18925W        W34734   8.005  12.491   2.254  0.1998 -0.3238  0.1956
18926W        W34735  13.201   0.440   4.126 -0.1819  0.2275  0.1195
18927W        W34736  16.109   4.568  15.287  0.0192  0.1354 -0.2024
18928W        W34737  12.265   4.988   4.473  0.1093 -0.0145 -0.2635
18929W        W34738  10.172  10.736   2.087  0.1216  0.2739 -0.0721
18930W        W34739   3.303   4.341  12.163 -0.0766  0.2128  0.3600
18931W        W34740  14.725   1.234   3.872  0.1254  0.1892 -0.0843
18932W        W34741  15.196   1.491   3.358 -0.0307  0.1559  0.0781
18933W        W34742  16.365   4.230   4.472  0.2002  0.0090  0.0324
18934W        W34743   6.873  15.091  14.323 -0.0388  0.0207 -0.0524
18935W        W34744  18.037   0.793   1.442  0.0092  0.2905 -0.2185
18936W        W34745  18.392   6.399  11.462  0.0806 -0.0975  0.2096
18937W        W34746   2.050   9.346  11.315 -0.0121 -0.3294  0.1595
18938W        W34747  16.777   8.217   1.703 -0.0104  0.0818  0.2675
18939W        W34748  12.583   6.809  12.026 -0.1234 -0.0972 -0.2197
18940W        W34749   1.004   5.356   2.763  0.0959  0.2454 -0.1704
18941W        W34750   1.679  13.721  14.248 -0.0000  0.0890  0.3002
18942W        W34751   6.866  12.000   2.800  0.2844  0.2339  0.4027
18943W        W34752   6.305  18.342   0.931 -0.1245  0.0638 -0.1521
18944W        W34753   0.954  15.565  15.405 -0.1663 -0.1472 -0.7204
18945W        W34754  10.483   4.074   2.202  0.0244  0.3581  0.0656
18946W        W34755  16.771   5.658   0.237 -0.0863 -0.3601 -0.0385
18947W        W34756   4.559   9.961  14.999 -0.0318  0.1182 -0.3323
18948W        W34757   1.858  17.053  13.258  0.0611 -0.2075  0.0501
18949W        W34758  14.041   5.883  14.831  0.1194  0.0147 -0.1106
18950W        W34759  12.951   4.614  12.756  0.0984 -0.0180  0.0134
18951W        W34760   4.247   9.341   4.272  0.2025  0.2880  0.1641
18952W        W34761   6.261  13.004  15.404 -0.0509  0.0992 -0.0686
18953W        W34762   3.869   4.104   1.081 -0.0900  0.2160 -0.1172
18954W        W34763  15.760   9.723   3.180 -0.0905 -0.1166 -0.0052
18955W        W34764   6.299  15.603   1.986 -0.2115  0.1038  0.0935
18956W        W34765   6.772   8.513   5.089  0.6936 -0.0199 -0.0213
18957W        W34766  16.708  12.938   3.449 -0.1107 -0.2572  0.1578
18958W        W34767  13.300  17.925   2.262 -0.2953  0.2253 -0.0184
18959W        W34768  13.143  18.367   5.185 -0.0099  0.1986 -0.0473
18960W        W34769  17.896   0.524  10.577  0.0102  0.1240  0.6624
18961W        W34770   7.977   2.174   1.143  0.2989 -0.1791  0.0675
18962W        W34771   2.119   3.164  12.862 -0.0948 -0.0680 -0.1458
18963W        W34772   5.548  14.154  13.529  0.3253 -0.1331 -0.0097
18964W        W34773  13.198  17.259   3.414  0.0098 -0.2430  0.4435
18965W        W34774   4.921  14.532   4.528 -0.1786  0.0936 -0.1435
18966W        W34775   4.527  17.402  12.926 -0.0711  0.2150  0.1250
18967W        W34776   0.379   9.870   4.297  0.1924  0.1839 -0.0219
18968W        W34777   1.381   3.205  14.411 -0.1500 -0.1741  0.0976
18969W        W34778   6.760   3.399   5.679 -0.1027  0.2245 -0.2179
18970W        W34779  10.517   2.209   4.658 -0.1963  0.1097 -0.3145
18971W        W34780   6.477  18.197  14.598 -0.0729  0.0741 -0.0488
18972W        W34781   9.065  13.456  11.656  0.2034 -0.1129 -0.2904
18973W        W34782   9.827  18.643  11.900 -0.0906  0.1227  0.1063
18974W        W34783   9.582  17.597   3.282  0.0918 -0.3612  0.0653
18975W        W34784   4.750  16.795  11.664  0.3494  0.0620 -0.0157
18976W        W34785   2.480  13.230  12.385 -0.0509  0.0104 -0.0134
18977W        W34786  14.355   4.673  14.283 -0.0157  0.3816  0.0758
18978W        W34787  13.636   1.072  10.766 -0.1704  0.0636  0.0955
18979W        W34788  16.867  13.332   3.069  0.0607 -0.0492  0.1275
18980W        W34789   1.247   3.783   0.342 -0.1297  0.0643 -0.0890
18981W        W34790  17.814  13.259   4.740  0.1609 -0.2408 -0.0271
18982W        W34791   5.661   7.798  12.493  0.4347  0.0718 -0.2593
18983W        W34792   0.881  10.038  15.540 -0.0914  0.1415  0.1888
18984W        W34793  13.324   0.047   2.419 -0.4171 -0.2054 -0.2081
18985W        W34794  17.981   3.755   1.549  0.0406  0.3002 -0.1018
18986W        W34795  10.272  13.357   0.699  0.0961 -0.0981  0.3271
18987W        W34796  14.374   3.667  11.535  0.0952 -0.2098 -0.1200
18988W        W34797   4.724   3.879  12.495  0.1965 -0.1405  0.0556
18989W        W34798  12.207   4.623  13.787  0.1504 -0.1105  0.0524
18990W        W34799   3.876   7.468  12.446 -0.1523  0.0972 -0.2317
18991W        W34800   3.589  12.932  11.405  0.1138  0.0092  0.2840
18992W        W34801   2.481  16.459  11.054 -0.0784  0.3275 -0.2313
18993W        W34802  16.637   9.850  11.893 -0.0417 -0.0428 -0.0534
18994W        W34803   4.201  10.120  14.282  0.1065 -0.2017  0.1058
18995W        W34804   5.412  16.176  14.062  0.1801 -0.0977  0.0196
18996W        W34805   2.238  16.571  14.285 -0.0790  0.0869 -0.0658
18997W        W34806   2.767  14.246   0.477  0.2804 -0.0688 -0.1206
18998W        W34807  13.512  14.704   4.974  0.1437 -0.0842 -0.0471
18999W        W34808  13.240   6.460  13.772  0.0702  0.0577  0.0019
19000W        W34809   8.494   7.377   1.256 -0.1782  0.0269  0.0220
19001W        W34810   2.105  11.684  12.228  0.0251  0.0208  0.0337
19002W        W34811   3.982  16.830   4.165 -0.0655  0.0568  0.0865
19003W        W34812  12.033  13.332  11.157 -0.1601 -0.0566 -0.1638
19004W        W34813   3.201   1.212   2.444  0.1431 -0.1581  0.0488
19005W        W34814  15.229   3.186  14.619  0.0760 -0.1650  0.0231
19006W        W34815   8.454   4.829   0.298 -0.1998  0.1186  0.1159
19007W        W34816  11.399   1.970  15.048  0.0824  0.1820  0.0102
19008W        W34817  13.675   1.336   0.631 -0.0428 -0.3548  0.1191
19009W        W34818  14.452   7.389   0.100 -0.0257  0.1187 -0.1040
19010W        W34819  10.840  18.369   1.377  0.0513  0.1972 -0.3153
19011W        W34820  11.030   2.020   3.897  0.1640  0.4525 -0.1406
19012W        W34821   8.016  15.105  12.281  0.3183 -0.0304 -0.1831
19013W        W34822   3.885  14.996   1.747 -0.0323 -0.1044 -0.0001
19014W        W34823   6.666  12.824   5.066  0.0628 -0.2027 -0.1296
19015W        W34824   9.757  17.044   6.028 -0.0385  0.0165  0.2427
19016W        W34825   1.535   9.246  14.459  0.1104  0.0284  0.0158
19017W        W34826   7.168   4.206   0.151 -0.2930 -0.3128 -0.1825
19018W        W34827   7.337   9.277   2.620  0.2814  0.3264 -0.1805
19019W        W34828  16.237   9.182  14.432  0.1372 -0.4885 -0.2354
19020W        W34829   7.645   9.476   3.491  0.0472  0.0658  0.1140
19021W        W34830   4.972  13.368  11.005  0.0625  0.1805  0.3234
19022W        W34831   3.863   2.956  13.456  0.2374  0.3234  0.0838
19023W        W34832   7.954   0.978   4.671  0.2225 -0.1585 -0.3320
19024W        W34833   3.203   6.518   2.211 -0.0048 -0.0456  0.1196
19025W        W34834  15.207   2.502   4.255 -0.3138  0.1170  0.1013
19026W        W34835  16.506  17.508  13.097  0.1055  0.0145 -0.3040
19027W        W34836   9.370  14.406   4.726 -0.1235 -0.2075 -0.1758
19028W        W34837   2.907  14.227   2.954 -0.0558 -0.0868  0.1933
19029W        W34838  14.045   2.798  15.418  0.2799  0.3466  0.3251
19030W        W34839   5.383   3.890  12.218  0.1119 -0.2034  0.1409
19031W        W34840  11.163  17.558   1.166 -0.1732 -0.0282  0.1121
19032W        W34841  16.612   5.824  11.833 -0.1527  0.3272 -0.1609
19033W        W34842  17.575  12.186   3.494  0.2156  0.1510 -0.0156
19034W        W34843  13.828   3.421   5.358  0.0507 -0.0644  0.0018
19035W        W34844   5.304   7.642  13.565 -0.1275 -0.1994  0.0741
19036W        W34845  16.879   0.459   0.690  0.2803  0.2238 -0.2574
19037W        W34846  13.916  11.812  15.086  0.0240 -0.1544 -0.3657
19038W        W34847  12.708  17.328   2.582 -0.1523 -0.4146  0.0042
19039W        W34848   7.869  16.316  12.083 -0.0198 -0.1667 -0.0635
19040W        W34849   8.936  14.978  11.914  0.1656  0.1607  0.2908
19041W        W34850  15.584  11.422  13.544  0.1954 -0.0087  0.0887
19042W        W34851   1.691   9.262  10.615  0.2265  0.2194 -0.2129
19043W        W34852  14.609   0.260   5.332  0.0592 -0.2499  0.2589
19044W        W34853  10.433  16.742   3.988 -0.0137 -0.2740 -0.0592
19045W        W34854  12.342  16.053   0.379  0.0768 -0.0164  0.1790
19046W        W34855  12.298   2.870   1.586 -0.0892  0.1895 -0.0286
19047W        W34856   9.864   6.314  13.287 -0.3878 -0.0330  0.7019
19048W        W34857   8.111  13.644  10.671  0.0792 -0.1573  0.1468
19049W        W34858   9.106   5.466   5.208  0.2257  0.0059  0.0771
19050W        W34859   2.006   5.388  14.774 -0.1834  0.3759  0.2559
19051W        W34860   8.108   4.338  13.754  0.0878  0.0371  0.0620
19052W        W34861   8.129  14.867   6.099  0.2599  0.0179 -0.2614
19053W        W34862  17.443   0.463   3.933  0.0396  0.0090 -0.2957
19054W        W34863   1.798   8.241   1.021  0.0309  0.2003 -0.3231
19055W        W34864   8.125  17.228  14.231 -0.1242 -0.1657 -0.0333
19056W        W34865  11.965   2.463  15.222 -0.0585  0.1972 -0.1088
19057W        W34866  13.181  11.373  15.444  0.0763  0.1938  0.0773
19058W        W34867   8.333  11.013   2.535  0.2098 -0.0986  0.4484
19059W        W34868  18.240   4.695   2.042  0.2197  0.1573 -0.0652
19060W        W34869  15.780   5.705   0.384  0.1930 -0.3021  0.1379
19061W        W34870   3.738  18.279  12.587  0.3908 -0.3512  0.1397
19062W        W34871   4.727  17.007   3.753 -0.2045  0.2504  0.3906
19063W        W34872  14.763   7.296   4.161 -0.1052 -0.1403  0.7378
19064W        W34873   9.565  11.887   1.319  0.0804  0.1225 -0.0260
19065W        W34874  18.131  11.062   1.444 -0.1997 -0.3043 -0.0813
19066W        W34875   5.224  18.505  10.882 -0.1660 -0.2522 -0.1463
19067W        W34876   8.114   1.616   2.990  0.0008  0.1369  0.0225
19068W        W34877   5.981  15.691   2.830  0.2277 -0.1173  0.0142
19069W        W34878   3.540   3.370  15.282  0.3036  0.0703  0.0558
19070W        W34879  16.003  16.764   3.094  0.0971 -0.1560 -0.0949
19071W        W34880   5.822   2.929  14.624  0.0850  0.2391 -0.0950
19072W        W34881   9.617   7.796   0.236  0.0001 -0.0252  0.0891
19073W        W34882   5.281   9.051  13.535 -0.1564  0.4269  0.2404
19074W        W34883  18.538   7.867   4.537 -0.2327 -0.1876  0.1242
19075W        W34884  16.021  13.081   4.087 -0.0901 -0.1052 -0.1572
19076W        W34885  12.638   0.374   5.170 -0.1293 -0.2137  0.2952
19077W        W34886   2.426   7.198  10.988  0.0636  0.0505 -0.2567
19078W        W34887   3.788   5.821  11.648 -0.0173  0.1828  0.2429
19079W        W34888  12.868   8.968   5.403  0.3716 -0.1549  0.0426
19080W        W34889   0.714  10.353   0.432  0.5187 -0.3131 -0.2243
19081W        W34890  13.365   7.510   4.158  0.0918 -0.0307  0.0077
19082W        W34891   1.742   9.936   1.949  0.2861  0.0263 -0.1446
19083W        W34892   4.509   6.783   2.708 -0.1057 -0.1065  0.3940
19084W        W34893   3.594   5.333   0.753  0.2633 -0.0008  0.0588
19085W        W34894   0.964   9.937  14.202 -0.0755 -0.0798  0.1317
19086W        W34895   9.461   8.418  14.409 -0.2483 -0.3318  0.0308
19087W        W34896  12.270   6.798   4.369  0.0946  0.0820 -0.1402
19088W        W34897  16.861  12.461  10.922  0.2766 -0.3640  0.0188
19089W        W34898  18.299   9.775   1.593  0.2738  0.1958  0.1204
19090W        W34899   6.002  18.020  12.971 -0.0964  0.1250  0.1210
19091W        W34900  11.910  13.797   2.621 -0.2070 -0.0682 -0.1069
19092W        W34901   9.515   1.795   1.314 -0.0687  0.0862  0.2454
19093W        W34902  15.579  14.729   2.914  0.0161 -0.2348  0.0536
19094W        W34903  14.597   5.155   4.976  0.0095 -0.1715 -0.1672
19095W        W34904   3.119   6.666   0.338  0.2008 -0.3376  0.0370
19096W        W34905  17.554  11.610  12.375 -0.2138  0.2192 -0.2846
19097W        W34906  10.283   7.669  12.508 -0.1706 -0.1073  0.0237
19098W        W34907  12.524   4.151   4.809 -0.2479  0.1018 -0.0830
19099W        W34908   2.984  16.507  13.562 -0.0122  0.0282  0.2939
19100W        W34909   3.553  13.343  11.122 -0.0780 -0.1470  0.0456
19101W        W34910  12.725   9.267  12.826 -0.0016  0.2555 -0.1228
19102W        W34911   1.060  13.421  15.472  0.0872  0.0442  0.0970
19103W        W34912   2.617   8.201   2.172 -0.0354 -0.2438 -0.0333
19104W        W34913  15.073   7.982   3.571 -0.1308  0.1097  0.1042
19105W        W34914  18.401   8.705  12.522 -0.1850 -0.3208  0.0654
19106W        W34915  17.361   7.531   0.552 -0.1073 -0.0671  0.2025
19107W        W34916   4.880   2.412   2.344  0.4402  0.1576 -0.0946
19108W        W34917  13.918  16.384  13.324  0.0731 -0.1862  0.1945
19109W        W34918  13.987  15.262   0.484  0.1762 -0.0798 -0.0553
19110W        W34919   4.998   8.004  13.873 -0.1034  0.2328 -0.1192
19111W        W34920  16.938  13.179   4.414  0.0688  0.1427  0.0139
19112W        W34921   5.346   7.320   2.478 -0.1295 -0.0481 -0.0010
19113W        W34922   2.206  11.913  11.368  0.1742 -0.0240 -0.0409
19114W        W34923  16.207  10.671   3.570  0.1440  0.3474 -0.0371
19115W        W34924   2.198   2.253   3.802 -0.0340 -0.1086  0.1984
19116W        W34925   2.334   9.813  15.254 -0.2339  0.0489 -0.0909
19117W        W34926  16.545   3.317  10.933  0.2428  0.1774  0.2658
19118W        W34927   5.124   0.867   5.056  0.1016  0.0077  0.1811
19119W        W34928   0.860  14.810  12.720  0.0529 -0.0357 -0.1935
19120W        W34929  12.662   5.759   4.871  0.0148  0.2818 -0.2056
19121W        W34930  15.771  11.744   3.016 -0.1649  0.1023 -0.1422
19122W        W34931   4.040  14.991   4.711 -0.0660  0.0593  0.1590
19123W        W34932   2.890  15.083  13.397  0.0200 -0.4367 -0.0604
19124W        W34933  17.563  15.898   5.017  0.0819 -0.1228  0.0098
19125W        W34934   9.780  11.058   0.794 -0.1239 -0.2350 -0.1319
19126W        W34935  18.588   2.543   2.674  0.0770  0.0449  0.0830
19127W        W34936  13.598   1.462  13.641 -0.0079 -0.0820  0.0678
19128W        W34937   1.362   4.986   5.037  0.0940  0.0217  0.1396
19129W        W34938   5.799   9.109   3.907  0.3411 -0.0914 -0.0488
19130W        W34939   0.402  13.392  10.533  0.0373 -0.0967  0.1338
19131W        W34940   6.896   1.305  13.078 -0.3003  0.0642 -0.0678
19132W        W34941  12.029  13.234   1.187 -0.2274  0.1981 -0.0355
19133W        W34942  11.583   1.115  10.538  0.1001  0.0263 -0.1396
19134W        W34943   9.361  17.359   1.580  0.3691  0.0278  0.0312
19135W        W34944  16.344   9.065  13.125 -0.0933  0.0289  0.2261
19136W        W34945   1.286  12.820   0.119  0.4456 -0.1800  0.1030
19137W        W34946  17.972   4.746  10.432 -0.0343  0.1845 -0.0022
19138W        W34947   5.587   3.076  14.048  0.1861 -0.1999 -0.1083
19139W        W34948  18.667  18.360  13.343 -0.0894 -0.1595 -0.1045
19140W        W34949   0.190  12.467   3.004  0.1631  0.0316  0.0218
19141W        W34950   7.576  15.113   2.979 -0.2427 -0.2612 -0.0413
19142W        W34951  14.777  14.831  13.032  0.0141  0.0706 -0.0966
19143W        W34952   2.048   3.110   3.602  0.0552 -0.1085 -0.2034
19144W        W34953   6.368   1.258   2.310 -0.2509 -0.2137 -0.0084
19145W        W34954   2.121  14.645  13.528  0.0383 -0.1474 -0.3155
19146W        W34955  14.385   4.305   5.272 -0.3757  0.1584  0.1267
19147W        W34956   9.553   2.827   1.245 -0.0833 -0.0907  0.1227
19148W        W34957   0.503  17.181  14.661  0.0594  0.0267  0.1016
19149W        W34958   7.283  10.938   4.031 -0.0316  0.1539 -0.3723
19150W        W34959   2.625   2.691  12.283  0.1079  0.3362  0.0695
19151W        W34960   7.242  17.971   3.634 -0.0683 -0.0734 -0.1456
19152W        W34961   5.126   9.393   5.089 -0.3021 -0.0892 -0.0958
19153W        W34962  15.198   4.918  11.414 -0.1585  0.0000  0.1288
19154W        W34963  11.267   8.499  12.645  0.3024 -0.0732 -0.0728
19155W        W34964   0.551   3.101  12.069  0.1998 -0.0615  0.2115
19156W        W34965  18.497  14.721   4.078 -0.2117  0.0014 -0.0935
19157W        W34966  17.926  12.579   2.263  0.0203 -0.1132  0.0571
19158W        W34967   6.150  12.557   4.955  0.1676 -0.2321 -0.0197
19159W        W34968  10.083   4.415   2.308  0.1954  0.2438  0.0080
19160W        W34969  15.853  14.108  15.294 -0.2998 -0.1392 -0.1385
19161W        W34970  11.065  13.841  14.114  0.1035  0.0211 -0.0269
19162W        W34971  15.075  14.590   1.698 -0.1952  0.0480  0.0087
19163W        W34972   0.575   1.171  13.660 -0.0899 -0.2130  0.0964
19164W        W34973   6.459  14.239   4.437  0.0010  0.0338  0.0852
19165W        W34974   7.187  16.462   1.629  0.1342 -0.1633 -0.0250
19166W        W34975  12.370   6.694   5.395  0.0591 -0.2544 -0.2427
19167W        W34976   8.246   0.939   1.164  0.4800 -0.0112  0.1365
19168W        W34977   7.484  10.730   4.969  0.2406  0.4043  0.4313
19169W        W34978   1.166   8.101  11.797 -0.0626 -0.0756  0.3828
19170W        W34979   9.656  12.479  12.004  0.0532  0.1040  0.0241
19171W        W34980   6.828   5.808   1.481  0.0813  0.0508  0.2580
19172W        W34981  16.705  12.645  12.536  0.0560 -0.0111  0.0788
19173W        W34982   1.005  14.323  13.923  0.0422  0.0171  0.1047
19174W        W34983  11.607   2.306  14.798 -0.1328  0.1458 -0.0721
19175W        W34984   8.742   0.930   3.948  0.0955 -0.0942 -0.0179
19176W        W34985   4.881  12.697  14.444 -0.1560 -0.1960 -0.1225
19177W        W34986   9.483  16.923  11.579 -0.0755  0.0157 -0.4854
19178W        W34987   3.947  15.292  12.286 -0.2530 -0.0082  0.0634
19179W        W34988   2.490  14.698  12.645 -0.0578 -0.0112  0.0528
19180W        W34989   5.875   9.702  14.394 -0.1382 -0.0168 -0.0152
19181W        W34990  18.179  15.019  15.273  0.2887  0.1399 -0.0388
19182W        W34991   8.769   0.267   0.560 -0.0657 -0.3073 -0.0927
19183W        W34992  17.899   5.409   2.673  0.0237  0.2057 -0.3663
19184W        W34993   1.823   4.391  11.586 -0.1243  0.1916 -0.1690
19185W        W34994  10.399   2.605   1.927 -0.1671  0.0642  0.0967
19186W        W34995  13.828   5.956  10.964 -0.3890  0.0182  0.0165
19187W        W34996   2.522   3.700  12.006  0.0482 -0.0992  0.1303
19188W        W34997  17.249  13.178   4.831 -0.0406 -0.0556  0.1331
19189W        W34998   1.836   8.826  12.147 -0.3735  0.1615 -0.0452
19190W        W34999  16.898   3.578  10.711  0.2166 -0.0182 -0.0448
19191W        W35000   0.156  13.852   2.672  0.0275  0.1657 -0.0334
19192W        W35001   4.383   8.963  14.675 -0.1488  0.1761 -0.1731
19193W        W35002  12.137   2.763  13.436  0.0899  0.2436  0.1899
19194W        W35003   1.390   9.635  14.115 -0.0651  0.0845 -0.0966
19195W        W35004   2.494   2.869   3.590 -0.0064  0.1319 -0.2853
19196W        W35005  13.002  17.676   3.556  0.1357 -0.1749  0.3185
19197W        W35006   3.266  10.473  14.469 -0.2256  0.2005  0.2258
19198W        W35007   6.570  17.080   4.353  0.1841 -0.1726 -0.2306
19199W        W35008  10.975  13.477   0.966 -0.0552  0.0012  0.0801
19200W        W35009  15.749   6.223   0.200  0.2782 -0.1111  0.2919
19201W        W35010  13.584  12.197  15.232  0.0379 -0.0981 -0.5092
19202W        W35011  12.981  14.654  15.551 -0.1028  0.2003 -0.0002
19203W        W35012   0.443   4.880   3.730 -0.0980 -0.3789  0.2135
19204W        W35013  13.909  14.306   5.038  0.0135 -0.2525  0.5286
19205W        W35014  14.359   6.773  12.413  0.0489 -0.1001 -0.1545
19206W        W35015  18.617  11.922   1.834  0.0192  0.0246  0.0993
19207W        W35016   4.344   0.851  14.237 -0.1678 -0.0614  0.0350
19208W        W35017   6.392   7.941  12.792 -0.0935  0.0113  0.1450
19209W        W35018  14.042   5.159   2.770  0.2130 -0.2969  0.2568
19210W        W35019   3.789  16.932   2.718 -0.1659 -0.4282  0.1174
19211W        W35020  11.741  16.103   4.372 -0.1601 -0.2431  0.3477
19212W        W35021  18.578  15.732   3.919  0.0051 -0.0178  0.1524
19213W        W35022  11.399   9.589   6.064  0.2600 -0.0227  0.1064
19214W        W35023  15.276  13.315  10.808 -0.2149 -0.2427 -0.1017
19215W        W35024  18.530   0.945  12.327  0.0621 -0.1881 -0.2547
19216W        W35025   6.036   9.286   5.359 -0.0769 -0.1792 -0.0832
19217W        W35026   6.278  12.262   1.497  0.0092 -0.0905 -0.0448
19218W        W35027  13.598   5.033  14.411 -0.2476  0.2445  0.1666
19219W        W35028  12.499   6.231  15.498  0.1954  0.0978 -0.0129
19220W        W35029   0.501  12.507   2.615 -0.3003  0.2396  0.4814
19221W        W35030   4.754   5.723  12.349  0.2683 -0.1863 -0.1356
19222W        W35031   3.956  16.098   2.425 -0.0784 -0.0082  0.2596
19223W        W35032  11.847   2.821   0.482 -0.1252 -0.0762  0.2786
19224W        W35033  15.981  11.462   0.183  0.4903 -0.2138 -0.1126
19225W        W35034   4.214  18.058  10.815 -0.4148  0.1292 -0.1650
19226W        W35035  13.614   5.912   1.320 -0.0943 -0.0696 -0.0262
19227W        W35036  16.555   9.603   3.050 -0.0666 -0.0090 -0.1960
19228W        W35037   3.088   1.250   0.076 -0.0670 -0.0323  0.2592
19229W        W35038   9.189  11.792  14.810  0.0657 -0.1181 -0.0042
19230W        W35039  14.872  12.385   9.960  0.1028  0.1252  0.0062
19231W        W35040  13.187  15.418   4.761  0.2043  0.1547 -0.2162
19232W        W35041   9.317  10.221  14.701 -0.2328  0.1409  0.0015
19233W        W35042  10.631  16.323   0.639  0.4581  0.1688 -0.0117
19234W        W35043   2.469  16.867  12.536 -0.1357 -0.0359 -0.0265
19235W        W35044  17.755   8.972   3.386 -0.3482  0.2003 -0.0498
19236W        W35045  16.459   6.423  11.651  0.2551 -0.1118 -0.0797
19237W        W35046  13.477   8.130   0.532  0.1235 -0.0443  0.1426
19238W        W35047   7.790  17.920   2.682 -0.1483 -0.1294  0.0273
19239W        W35048   2.074   7.345  14.667  0.0871 -0.1430 -0.1490
19240W        W35049  15.930   0.020   5.449  0.0877  0.0966 -0.1518
19241W        W35050   5.801  11.193  13.526  0.2316  0.0065  0.1973
19242W        W35051  10.317   4.233   4.650  0.0738  0.1736 -0.2571
19243W        W35052   0.334  16.902   3.781 -0.2920 -0.1007  0.2446
19244W        W35053   2.424   3.928  12.691 -0.0377 -0.0618  0.0348
19245W        W35054  13.645  10.815  10.859 -0.2526  0.0880 -0.3872
19246W        W35055   0.853   6.019   3.615  0.0663  0.0342 -0.0451
19247W        W35056   4.649   2.985   1.472 -0.2288  0.1168  0.1453
19248W        W35057   0.074  10.223   1.439 -0.0968 -0.1081 -0.1121
19249W        W35058  13.998   4.266   0.901 -0.0184 -0.1472  0.1948
19250W        W35059   3.806   1.698   5.872 -0.0807  0.2401  0.1024
19251W        W35060   4.800   8.326   3.579  0.2099  0.1397  0.0515
19252W        W35061   1.699   0.738  15.069 -0.2365  0.1233  0.3905
19253W        W35062   4.408   6.719  12.466  0.0125  0.3226  0.2075
19254W        W35063  10.326  10.861  15.474  0.1454 -0.1814  0.1295
19255W        W35064   7.468   7.813   3.042 -0.3234 -0.3175  0.1414
19256W        W35065  18.141  17.196  11.935  0.0445  0.1611  0.0586
19257W        W35066  15.487   5.053   3.897  0.2348 -0.1046 -0.0095
19258W        W35067  10.827  16.408  13.765  0.1785  0.0846 -0.3972
19259W        W35068  13.785   2.411   5.479  0.3419  0.1012  0.0580
19260W        W35069   7.718  16.464   1.520  0.2916 -0.2930 -0.2082
19261W        W35070  10.531   4.467   5.058 -0.1832  0.0099 -0.0084
19262W        W35071  18.134  11.800  11.696  0.0347  0.0654  0.1395
19263W        W35072  10.304   4.696  13.794  0.4676 -0.0277 -0.3290
19264W        W35073   5.406  10.830   3.705 -0.2488  0.1118 -0.2218
19265W        W35074  18.396  10.980   1.967  0.2419 -0.0525 -0.1350
19266W        W35075  17.579   6.046  14.334  0.0009 -0.4196  0.1589
19267W        W35076   5.916  17.613  14.328 -0.3433 -0.0647  0.0199
19268W        W35077   9.905  10.006   3.443  0.3495  0.2168  0.0001
19269W        W35078  16.866  16.564  11.419  0.1098  0.0220 -0.2705
19270W        W35079  11.073   0.396  14.937 -0.0775 -0.0120 -0.1394
19271W        W35080  12.111  17.770   1.477 -0.2709 -0.3145  0.0958
19272W        W35081   2.181   2.620  12.067  0.1605 -0.1250  0.2122
19273W        W35082  16.772  12.622  15.100 -0.3115  0.0188 -0.0925
19274W        W35083  11.513  18.380  15.272  0.1839 -0.1583 -0.0399
19275W        W35084   8.776   8.973  13.372  0.1954  0.0671 -0.0014
19276W        W35085   2.824  15.560  11.122 -0.0573  0.1757  0.1103
19277W        W35086   6.598   3.440  10.985 -0.2384  0.0510  0.1336
19278W        W35087   2.840   2.960  14.431  0.1441  0.2596 -0.1453
19279W        W35088  12.053   0.209  12.747  0.3220 -0.3185  0.2623
19280W        W35089  15.065   2.559   4.714  0.0641 -0.1587 -0.0477
19281W        W35090   2.218   3.458  14.575 -0.4437 -0.2511  0.1796
19282W        W35091   9.614  15.737  11.299 -0.0734 -0.3789  0.0366
19283W        W35092  11.124   2.346  14.749 -0.0651 -0.0199 -0.5054
19284W        W35093  16.586   5.921  12.372 -0.3921  0.1449  0.6081
19285W        W35094   6.873  14.311   2.118 -0.1113  0.1036  0.2987
19286W        W35095  17.699   4.682   5.155 -0.0276  0.0035 -0.0932
19287W        W35096  11.357  15.045   2.026  0.4385  0.0845  0.2809
19288W        W35097  10.443  15.765   2.828 -0.2737 -0.2110  0.0723
19289W        W35098  12.525   8.251   3.901 -0.2088  0.1550  0.0360
19290W        W35099  10.672  18.164  12.086  0.2991 -0.2549  0.0320
19291W        W35100   3.644   2.296   0.792 -0.1409  0.3118  0.1449
19292W        W35101  14.540   2.486  13.886 -0.2254 -0.0619  0.1426
19293W        W35102  11.763  15.372   3.011 -0.0925 -0.0159 -0.0686
19294W        W35103   9.470  11.423   9.998  0.2567 -0.0624 -0.2021
19295W        W35104  13.803  18.323   1.871  0.0060 -0.1528  0.1057
19296W        W35105   1.550   2.620   3.228  0.3005 -0.1954 -0.2039
19297W        W35106  11.840   0.697   3.682  0.1137  0.1586 -0.2693
19298W        W35107   8.610   0.993   4.596 -0.3213  0.0402  0.2387
19299W        W35108   0.323  17.059   2.656 -0.0263 -0.0432  0.2140
19300W        W35109   0.382  17.324   3.288  0.2111 -0.0124  0.1852
19301W        W35110   1.947  14.189  13.340  0.1861  0.1390 -0.1536
19302W        W35111   1.269  14.576   3.651 -0.4135 -0.2282 -0.1699
19303W        W35112   7.502  14.741  15.240  0.0097 -0.0630  0.0385
19304W        W35113   3.951   7.812   4.141 -0.2080  0.3939 -0.1799
19305W        W35114  12.461  15.758  13.534 -0.0730 -0.0043 -0.0217
19306W        W35115   8.309   6.069   1.651 -0.0164 -0.3196 -0.0296
19307W        W35116  10.483   9.101  11.621  0.1555  0.4319  0.2189
19308W        W35117  11.619   1.213   3.936  0.1010 -0.2901  0.2193
19309W        W35118   9.449   7.359   3.138 -0.1893  0.0942 -0.2440
19310W        W35119   2.486  15.067   3.403 -0.2053 -0.1124 -0.1233
19311W        W35120   5.533  10.899  10.909  0.0979  0.0894  0.0247
19312W        W35121  16.812  16.252   2.869 -0.3590 -0.2763  0.0679
19313W        W35122  10.998   5.316  12.067 -0.3709  0.0971 -0.1612
19314W        W35123  17.781  15.212  15.603 -0.1191  0.1894 -0.2091
19315W        W35124  10.906  17.311  14.797  0.0567 -0.2792  0.0223
19316W        W35125   9.380  17.257   4.538  0.2630  0.1467  0.1361
19317W        W35126  12.196  18.607   5.053  0.1814 -0.2375  0.0010
19318W        W35127   0.100  17.858   1.487  0.2021  0.3902 -0.1753
19319W        W35128   9.844  13.997   1.550 -0.2772  0.1397 -0.2227
19320W        W35129   6.175  15.549   0.740 -0.1963 -0.1831 -0.0662
19321W        W35130  17.194   8.316   3.734 -0.0415  0.0498 -0.2552
19322W        W35131   4.337   0.481  15.495  0.1315  0.0381 -0.0366
19323W        W35132  16.493  10.789  13.391  0.0095 -0.0456 -0.0389
19324W        W35133   0.018  18.325  15.118  0.1169  0.1366 -0.0488
19325W        W35134  18.435  11.006  12.743  0.0270  0.0618  0.1178
19326W        W35135  17.275  16.001  12.919  0.2960 -0.0957 -0.2281
19327W        W35136  13.792  15.618   3.179 -0.1816  0.2942 -0.0427
19328W        W35137   7.343  13.655  12.159  0.4241  0.1282 -0.4688
19329W        W35138   4.511  16.701   3.356 -0.2422 -0.1464 -0.1666
19330W        W35139  16.518   4.898  11.025 -0.3088  0.2000 -0.1880
19331W        W35140  13.535   7.055   1.974 -0.1254  0.0177  0.2787
19332W        W35141   1.709   8.990   4.421  0.3401  0.2324  0.0623
19333W        W35142  14.488   3.856  13.906 -0.1885 -0.1940  0.1179
19334W        W35143  18.599  14.034   4.813 -0.1862  0.4358  0.0150
19335W        W35144  12.388   0.838   5.533 -0.1634 -0.1133 -0.0015
19336W        W35145   0.301  11.535   0.263  0.2712  0.0806  0.4038
19337W        W35146   5.852  15.175   0.924  0.1376  0.2512  0.3183
19338W        W35147   0.522   1.710   5.278  0.2400  0.0287  0.0332
19339W        W35148  11.066   2.151  12.927  0.0830 -0.0421  0.2366
19340W        W35149  11.687   3.562   5.301 -0.0922 -0.2245  0.0611
19341W        W35150   4.465  15.959  11.807 -0.0116  0.3118 -0.1496
19342W        W35151   8.056  14.430   2.495 -0.0903 -0.0232  0.0541
19343W        W35152  11.112  11.094   5.013 -0.0782  0.0901  0.2086
19344W        W35153   4.582   0.068  14.612  0.0469  0.0781  0.0065
19345W        W35154   0.842  13.420  13.018 -0.1152  0.4142  0.1224
19346W        W35155   2.381   8.435  15.337 -0.0230  0.1030 -0.1044
19347W        W35156  13.921   0.657   1.948 -0.2594 -0.0943 -0.0680
19348W        W35157  12.958   1.250   2.037  0.2916  0.1352 -0.3525
19349W        W35158  17.297  15.440   2.738  0.2803 -0.0290 -0.0002
19350W        W35159  14.870  10.709   2.229  0.0209  0.2962  0.0167
19351W        W35160  13.419   7.670  12.192  0.0729 -0.0151 -0.2593
19352W        W35161  14.228   2.782  14.163 -0.4126  0.0865  0.0275
19353W        W35162  18.378   4.366  14.518  0.0502 -0.1364  0.0232
19354W        W35163  10.585   0.227   4.219 -0.1247 -0.3386  0.0491
19355W        W35164   4.335   2.456   1.083 -0.1548  0.2551  0.0449
19356W        W35165   9.713  10.601   0.473  0.0155 -0.1070  0.0992
19357W        W35166  10.213  15.974  14.903  0.3510 -0.1715  0.0779
19358W        W35167   0.965   3.748   1.675 -0.2084  0.0313  0.0560
19359W        W35168   3.672   8.168   2.837  0.0900 -0.1415 -0.2457
19360W        W35169   0.941   5.204  12.763  0.0479 -0.0899 -0.0943
19361W        W35170  13.131   9.448  14.392  0.0399  0.0349 -0.2537
19362W        W35171  10.849   5.978   0.201 -0.1113  0.1302 -0.1597
19363W        W35172  13.973   6.545  10.177 -0.1711 -0.1196  0.3272
19364W        W35173  14.606   5.660  14.980  0.0432  0.2593  0.0505
19365W        W35174   5.670  10.600   4.715  0.1489 -0.0814  0.0284
19366W        W35175   2.025   7.668   0.228  0.0737 -0.1497  0.0048
19367W        W35176   4.975   6.356  11.801 -0.0830 -0.0355  0.2787
19368W        W35177   2.665   4.362   1.861 -0.3563  0.0696 -0.1387
19369W        W35178  18.365   5.152  14.964 -0.1146 -0.1212  0.1326
19370W        W35179   0.891   0.105   4.001 -0.3086  0.2303 -0.0066
19371W        W35180   2.555   9.610   2.887 -0.0721  0.0996  0.1656
19372W        W35181  11.137  17.664   1.693 -0.0973  0.1205  0.3285
19373W        W35182  14.892  11.766   0.377 -0.2330 -0.0135  0.2286
19374W        W35183  17.829  12.216   2.900  0.0809 -0.0363  0.0964
19375W        W35184  12.707   2.530  12.132 -0.0977 -0.4463  0.3268
19376W        W35185   6.688  18.352  15.208  0.2103  0.0895  0.1600
19377W        W35186   3.252   7.443   3.189  0.1198 -0.2269 -0.0479
19378W        W35187   9.823   6.659   2.894  0.1261 -0.1344 -0.0728
19379W        W35188  16.079   5.033  11.532 -0.0161 -0.2140 -0.1478
19380W        W35189   9.360  13.133   1.907  0.4240 -0.1231 -0.1915
19381W        W35190   9.486  14.538   1.409  0.0860  0.3010  0.4243
19382W        W35191   6.520  15.913   1.665 -0.1073  0.0696  0.0781
19383W        W35192  14.255  15.672   2.300  0.2196 -0.3569 -0.1568
19384W        W35193   9.826  12.490   4.552  0.2232 -0.1674  0.2250
19385W        W35194  13.681   5.134   3.950 -0.1497 -0.3088 -0.0977
19386W        W35195   1.130   6.722   4.511  0.1667  0.4057 -0.0247
19387W        W35196   4.054  12.317  13.930  0.1566  0.1009 -0.1701
19388W        W35197   2.523   4.952  11.897  0.2450 -0.1228 -0.1921
19389W        W35198   8.886   8.277  12.455  0.3407 -0.1871  0.4377
19390W        W35199  14.284   4.554   0.039 -0.3122  0.1415  0.1569
19391W        W35200  11.534   3.952  11.602 -0.1742 -0.0219 -0.1993
19392W        W35201   3.059   0.301  11.441 -0.2819  0.0582 -0.0765
19393W        W35202  10.168   4.669  11.051 -0.0018 -0.2555  0.1060
19394W        W35203   6.407  10.252   4.235 -0.0966 -0.1473  0.1530
19395W        W35204   6.723  13.327   3.408 -0.2364 -0.3087  0.4665
19396W        W35205  12.337  13.780   4.996 -0.1756  0.3968 -0.0623
19397W        W35206   0.727  11.549   1.278 -0.0116 -0.3766  0.0786
19398W        W35207  18.533  18.545   3.534 -0.1295 -0.3580 -0.5016
19399W        W35208   5.265   7.609  15.330 -0.1997 -0.1004  0.0264
19400W        W35209  12.428   4.514   0.588 -0.1060  0.1807  0.0497
19401W        W35210   9.118   1.982   1.059  0.2768  0.1623  0.2214
19402W        W35211  15.765   8.384   0.216  0.0951  0.0287  0.0282
19403W        W35212  13.492   5.368   4.852  0.1697 -0.3628 -0.3516
19404W        W35213  15.407  14.689   5.650 -0.1178  0.0724  0.0963
19405W        W35214   5.143   3.477  10.871 -0.1567 -0.0553 -0.2188
19406W        W35215   4.208  11.172   3.755  0.0713 -0.2665  0.2142
19407W        W35216  18.502   8.841  11.618  0.0967 -0.3143  0.1405
19408W        W35217   3.781   8.063  15.421 -0.1194 -0.3806  0.0345
19409W        W35218  14.459   1.083  10.271 -0.2861 -0.0057 -0.0730
19410W        W35219   3.110  14.685   2.792  0.2969  0.0259 -0.2900
19411W        W35220   8.033  14.242   3.996 -0.1644 -0.1157  0.2563
19412W        W35221   8.581  15.685  13.782  0.1366  0.0823  0.2773
19413W        W35222   7.242  16.344   0.645  0.2491  0.1260 -0.1033
19414W        W35223  13.151   1.083   1.230  0.0741 -0.0070 -0.5200
19415W        W35224  14.475  10.269   4.707 -0.3173  0.1307  0.0942
19416W        W35225   0.896   1.020   2.358 -0.1791  0.0982  0.0469
19417W        W35226  15.511   3.678  12.317 -0.2048  0.1055  0.3671
19418W        W35227  14.166   0.433   2.747  0.1169 -0.1084 -0.1690
19419W        W35228  12.449   0.619  14.208 -0.1414  0.0782 -0.1692
19420W        W35229   3.537   8.732   0.194  0.2014 -0.1114 -0.1595
19421W        W35230   9.105  18.185  14.163  0.1431  0.1198 -0.0491
19422W        W35231  18.203  13.982  12.893  0.4024 -0.0258 -0.1562
19423W        W35232   9.030  10.151   0.072 -0.0598  0.2372  0.0266
19424W        W35233  17.831   2.565   0.174 -0.0219 -0.0773  0.0627
19425W        W35234   2.398  10.849   2.559  0.0659  0.0911  0.1015
19426W        W35235   1.070   3.362  14.839 -0.0118  0.0680  0.0770
19427W        W35236   0.291   0.682  13.615 -0.2266  0.0931 -0.2278
19428W        W35237   2.197   0.379  11.627 -0.0849 -0.1141 -0.1533
19429W        W35238   9.336  13.821   4.238  0.1605  0.3425 -0.1039
19430W        W35239   1.636   0.516  10.388  0.0169  0.0089  0.0677
19431W        W35240   4.835   5.500   0.399 -0.0747  0.0052  0.2172
19432W        W35241  12.271  10.683   5.955  0.1225 -0.2180 -0.2945
19433W        W35242  16.918   2.959   2.136 -0.0404 -0.1671  0.0103
19434W        W35243  14.226   3.261  13.436  0.1644  0.1815 -0.0170
19435W        W35244  16.925   7.008  14.280 -0.1299 -0.0687 -0.1308
19436W        W35245  16.148  14.619   5.026 -0.2241 -0.2987  0.0596
19437W        W35246  16.145   0.548  13.830  0.2903  0.1705 -0.0202
19438W        W35247   5.278  17.473  10.792 -0.1188 -0.0381 -0.3742
19439W        W35248   2.807   5.585   4.313  0.0107  0.1854 -0.2291
19440W        W35249  14.317   3.526  15.353 -0.2634  0.0675  0.2993
19441W        W35250  11.709  15.049  12.592 -0.1301 -0.0581 -0.2349
19442W        W35251  13.371   0.044   2.945 -0.1033 -0.1074 -0.0087
19443W        W35252   9.620  13.388   2.937  0.0420 -0.0701 -0.2084
19444W        W35253  14.955  17.227   4.347 -0.3611  0.0590 -0.2109
19445W        W35254   5.123  17.104  14.351 -0.1879  0.6666 -0.1329
19446W        W35255  15.652  14.053   0.613 -0.2271  0.1714  0.1594
19447W        W35256  17.884   7.658  11.317  0.3205 -0.1138  0.0061
19448W        W35257   8.169   9.963  15.199 -0.3425 -0.1521  0.2929
19449W        W35258  10.794  18.388   6.024 -0.0367 -0.1598 -0.1392
19450W        W35259  10.794   8.708   5.229  0.3569  0.0667 -0.1597
19451W        W35260  11.609  11.837  11.478 -0.2264  0.1924 -0.1559
19452W        W35261  10.919   1.895   4.701  0.0717  0.1687  0.0727
19453W        W35262  15.719   5.452  15.285 -0.2446 -0.1131 -0.1495
19454W        W35263   2.602  16.835   1.943 -0.2138  0.0867 -0.3483
19455W        W35264  18.465  12.134  13.390  0.2106  0.0164  0.1669
19456W        W35265  12.465   9.589  11.130 -0.2368 -0.0533 -0.0964
19457W        W35266   8.173   5.781   2.622 -0.1018 -0.1250 -0.2688
19458W        W35267   5.294  15.444   4.770  0.1387 -0.0536 -0.5534
19459W        W35268  17.102  12.583   3.473  0.0612  0.1353  0.0192
19460W        W35269   8.170  12.201  13.713 -0.0458  0.1519 -0.0187
19461W        W35270  16.568   6.622   1.627  0.2058 -0.1500 -0.1719
19462W        W35271   5.191   0.280   0.274 -0.3108  0.1036 -0.0801
19463W        W35272   4.136   4.909  11.568  0.0137  0.0476  0.1274
19464W        W35273   8.995  12.389   4.663  0.1620  0.0679  0.0016
19465W        W35274   8.150  10.694   2.107 -0.0091 -0.0695 -0.1203
19466W        W35275  17.957  10.853   0.603  0.3075 -0.0354 -0.3538
19467W        W35276   4.912  12.642  13.024 -0.1528 -0.2307 -0.2797
19468W        W35277  13.275   4.550   5.119 -0.0048  0.0423  0.2390
19469W        W35278  15.848   4.228   9.962 -0.2053 -0.2452 -0.2738
19470W        W35279   3.403   3.567   9.959 -0.0574 -0.0876  0.1080
19471W        W35280  18.046  11.276   3.822 -0.0874 -0.0802  0.0760
19472W        W35281   1.868   0.228   0.361  0.0622  0.1654 -0.1245
19473W        W35282   5.102  17.616  12.128 -0.0699  0.5488 -0.0054
19474W        W35283  13.691  17.610  15.117 -0.1028 -0.0610  0.0256
19475W        W35284  10.156  13.793  11.806  0.1975 -0.4176 -0.1233
19476W        W35285   7.100   4.737  15.520 -0.0009 -0.1761  0.2135
19477W        W35286  12.643   5.829  13.091 -0.3772 -0.6052  0.2896
19478W        W35287   3.133   4.321   2.109  0.2242  0.1664 -0.1456
19479W        W35288   9.778   3.186   0.965  0.0577  0.0252  0.1357
19480W        W35289   3.837   7.593  11.219  0.3089 -0.0555  0.0367
19481W        W35290   0.159  10.609   4.709 -0.2406  0.0541 -0.1938
19482W        W35291   7.570   2.758   3.365  0.1119  0.0502  0.0732
19483W        W35292  18.206  13.870   2.067  0.1052 -0.1044  0.2653
19484W        W35293  16.667   3.738   4.546  0.0063 -0.0028  0.1683
19485W        W35294  15.930   8.520  15.353  0.3593 -0.1451  0.0997
19486W        W35295  12.667  15.832   1.484  0.0539 -0.1628  0.3445
19487W        W35296   6.982   4.417   1.742 -0.0526 -0.2272  0.2938
19488W        W35297   7.538  18.021  13.088 -0.2231  0.0562  0.0796
19489W        W35298   0.864   8.329   0.967  0.2190 -0.0290  0.0993
19490W        W35299   4.163   2.796  14.747 -0.1213  0.2812 -0.0737
19491W        W35300   3.484  12.634   0.361 -0.0445 -0.0544 -0.0473
19492W        W35301   1.163   6.102  12.777 -0.0672 -0.1279 -0.3671
19493W        W35302   1.273  11.398  13.784 -0.3178 -0.0603  0.0068
19494W        W35303  13.809   3.075  14.973 -0.1578  0.3298 -0.0995
19495W        W35304  15.248  16.080  15.275  0.0367 -0.0059  0.2642
19496W        W35305   1.301   2.399  11.211 -0.3140  0.1010 -0.0232
19497W        W35306  12.797   0.366  13.928  0.1889 -0.1553 -0.0221
19498W        W35307  11.562  12.486  15.288  0.2206 -0.0609 -0.1475
19499W        W35308   3.320  18.409   3.111  0.3244 -0.1407  0.1061
19500W        W35309   8.456   8.576  15.371  0.0697  0.1400 -0.3255
19501W        W35310   1.284   1.105  11.669 -0.2605  0.0080 -0.2480
19502W        W35311   8.157  15.870  11.247 -0.1675  0.2561  0.2582
19503W        W35312   9.293   6.539  10.665  0.0901 -0.0083  0.1248
19504W        W35313  12.604  13.671  10.030 -0.0373  0.2672  0.1578
19505W        W35314   5.042  16.232   0.731  0.3233 -0.2588  0.0307
19506W        W35315  15.840   2.221   4.531 -0.1187 -0.2641 -0.1151
19507W        W35316  17.743  10.878  10.849  0.1343  0.5909 -0.2574
19508W        W35317  15.249  15.200  12.244 -0.0260  0.0034  0.0665
19509W        W35318   5.733  14.615  12.374  0.3706  0.2769  0.0729
19510W        W35319   8.240   0.644  11.692 -0.1705 -0.0374  0.2515
19511W        W35320   5.353  14.615  10.492  0.0890 -0.2620 -0.0643
19512W        W35321  13.539  11.367   4.653  0.1137 -0.0618  0.0429
19513W        W35322  16.861  12.805   4.011 -0.2551 -0.2878  0.2367
19514W        W35323   3.691  18.030  10.778  0.0190  0.0013  0.0345
19515W        W35324  16.983   1.523   2.126 -0.0802 -0.1664 -0.1242
19516W        W35325  16.038   2.551  12.014 -0.4757  0.0045 -0.1806
19517W        W35326   1.789   5.486  13.818 -0.0623  0.1068 -0.1586
19518W        W35327   3.005   9.661  13.849  0.0738 -0.1649  0.0507
19519W        W35328  17.913  12.887   9.361  0.3460 -0.3277 -0.1421
19520W        W35329  13.260  14.785   3.383  0.0769 -0.0111 -0.0166
19521W        W35330   7.654   9.898  13.650  0.0953  0.0937 -0.2000
19522W        W35331   7.576  16.358  13.414 -0.0032 -0.3205 -0.4605
19523W        W35332   2.872   5.750  14.827  0.3433  0.1494 -0.0294
19524W        W35333   8.950   0.995   1.046 -0.2199  0.1323 -0.2075
19525W        W35334  14.277   7.650  11.215 -0.4899 -0.1792  0.3736
19526W        W35335  12.634   7.100  12.835  0.0732 -0.0377  0.0500
19527W        W35336   3.739   1.595   3.744  0.0172 -0.1090  0.1850
19528W        W35337   7.653   9.689   4.661 -0.1878 -0.0021  0.0859
19529W        W35338   5.800  14.490   5.044  0.2017 -0.1274  0.2785
19530W        W35339  10.468  12.837  10.413  0.1085  0.3204 -0.1866
19531W        W35340   5.842   3.751  11.473 -0.0041 -0.0055 -0.1168
19532W        W35341  15.142  13.280  14.061  0.0405 -0.0318  0.0984
19533W        W35342   4.665  11.686   0.715 -0.3279 -0.1451 -0.1058
19534W        W35343   7.352   8.629  11.820  0.1202  0.3647  0.2283
19535W        W35344  13.064   6.127  12.948 -0.2190  0.1818 -0.1953
19536W        W35345   1.793  14.583   0.475  0.2423  0.0236  0.0124
19537W        W35346  17.675  18.173   2.903  0.2987  0.4227 -0.0416
19538W        W35347   6.844  17.095  11.675  0.1464  0.0738 -0.0467
19539W        W35348  17.930  13.680   0.662 -0.2520  0.2651  0.0398
19540W        W35349   1.606  16.628   3.513 -0.4436  0.0504 -0.1613
19541W        W35350   3.500   3.848   5.334 -0.1979 -0.4855 -0.0946
19542W        W35351   6.244  13.439   3.404 -0.1598  0.1925 -0.0543
19543W        W35352   6.302  15.674  13.038  0.4216  0.0913  0.0263
19544W        W35353  15.878   5.762   0.908 -0.1309  0.3431 -0.1182
19545W        W35354   8.683  11.326  15.514  0.1266  0.0762  0.1061
19546W        W35355  10.525   2.141  13.868  0.1115 -0.1942 -0.1434
19547W        W35356   1.219  17.128  12.190  0.0278  0.2929 -0.1455
19548W        W35357  16.339  16.396  12.325 -0.0476  0.1403 -0.0716
19549W        W35358   9.988  17.976  11.054 -0.1343 -0.0948  0.0894
19550W        W35359   0.770   7.588  11.813  0.1746  0.0425 -0.2350
19551W        W35360   3.569   9.813   3.596  0.0199 -0.0748 -0.2321
19552W        W35361  14.696   5.425   4.405 -0.1579  0.1122 -0.3654
19553W        W35362   6.173  13.558  15.275 -0.3486  0.0930 -0.2475
19554W        W35363  14.742   5.744  14.460 -0.0297  0.1745  0.4776
19555W        W35364   4.566   7.711   1.897  0.2150  0.0751  0.1501
19556W        W35365  16.903   5.773   3.211 -0.1632  0.2158 -0.0735
19557W        W35366  13.358  15.529   2.333 -0.1827  0.0899 -0.0062
19558W        W35367   5.829  12.692   1.460  0.1564  0.3129  0.1171
19559W        W35368  13.715   4.829   3.535 -0.2153 -0.1315 -0.0268
19560W        W35369   7.409  17.016  14.899 -0.1021 -0.1007  0.0893
19561W        W35370  15.976   3.438   0.246 -0.0632 -0.1222 -0.1269
19562W        W35371   8.237  11.383  11.938  0.0547  0.2498  0.4545
19563W        W35372   6.447  13.853   9.935  0.2583 -0.0422 -0.0538
19564W        W35373   5.447  15.129  13.919  0.1649 -0.0903  0.2382
19565W        W35374   7.574   2.363   4.167  0.3801  0.1879  0.0464
19566W        W35375   2.260  10.944   0.286  0.1273  0.0833  0.0266
19567W        W35376   5.430  17.827  13.297  0.5777  0.0392 -0.0629
19568W        W35377  10.982  14.588  15.527  0.1730  0.0729  0.3043
19569W        W35378  11.171   9.345  11.126 -0.2550  0.1937 -0.3663
19570W        W35379  16.283  16.468   3.879 -0.1235 -0.3186 -0.0422
19571W        W35380   2.015  15.121   3.156  0.3878  0.4637  0.1279
19572W        W35381   4.711   4.768  14.362 -0.1107  0.0828  0.4435
19573W        W35382  18.294  11.533  11.271  0.0053  0.1198 -0.3625
19574W        W35383  16.832   8.048  12.191  0.1198 -0.0491  0.0528
19575W        W35384   3.729   3.919  15.483  0.3681  0.1060 -0.0002
19576W        W35385  11.329   8.014   4.677 -0.0870 -0.0962 -0.0036
19577W        W35386   5.586   1.239  13.752  0.2259 -0.0117  0.0069
19578W        W35387  13.529  10.297  14.797 -0.0288  0.0134  0.0051
19579W        W35388   3.781  10.787   5.505 -0.1521  0.1299  0.2319
19580W        W35389  12.016   9.210   2.633  0.4946 -0.2146 -0.2940
19581W        W35390  10.918  11.364  12.488  0.2183  0.2624 -0.3096
19582W        W35391   3.609  12.321   3.775  0.1419 -0.0240  0.2802
19583W        W35392   4.673   6.123  11.466 -0.0063 -0.0888 -0.2419
19584W        W35393  18.069  10.338   3.548 -0.0888 -0.1443 -0.3255
19585W        W35394  13.921   2.901   3.576  0.0716 -0.0231 -0.0454
19586W        W35395  12.251  13.287   2.501  0.1340  0.0921 -0.1325
19587W        W35396   5.345   2.526  11.856  0.3306  0.1999 -0.0087
19588W        W35397  18.460   1.294   4.951 -0.0340 -0.5318 -0.4406
19589W        W35398   6.584  12.667   1.976  0.1415  0.3172 -0.0776
19590W        W35399   4.545  17.756   0.632 -0.0732 -0.0567  0.1923
19591W        W35400   2.972  14.743   3.297  0.0603 -0.3290  0.1145
19592W        W35401   5.855   7.541   1.665  0.1073  0.2603  0.1826
19593W        W35402   1.763  11.043  12.096  0.2492 -0.1186  0.2817
19594W        W35403  13.253  15.876  11.625  0.1142 -0.5574 -0.1382
19595W        W35404   3.468  18.646  12.776 -0.2790  0.2029 -0.2061
19596W        W35405  11.401  12.151  14.375 -0.0869  0.2219  0.0690
19597W        W35406  17.123  10.681  14.862 -0.1594 -0.2576  0.2076
19598W        W35407  10.236  15.786   1.719  0.1950  0.0880  0.1661
19599W        W35408  11.611   2.706   2.528  0.1865  0.0700  0.2535
19600W        W35409   2.207   3.604   3.692  0.2796  0.2334  0.1018
19601W        W35410  10.990  17.399  11.097 -0.3220  0.1030 -0.4726
19602W        W35411  13.685   3.387   4.467  0.0353 -0.1239 -0.0952
19603W        W35412  17.986  15.320  11.286  0.0577 -0.1179 -0.0971
19604W        W35413   0.917  16.443  12.919 -0.0132  0.2134 -0.0246
19605W        W35414   4.673  12.724   4.528  0.1586  0.2317 -0.1035
19606W        W35415  15.445  15.018  12.773 -0.0392  0.0112  0.0669
19607W        W35416  10.727   4.023   5.321 -0.1318 -0.1893  0.1025
19608W        W35417   5.824   6.772   0.507 -0.1124 -0.0422 -0.2140
19609W        W35418   4.388  14.740  14.396 -0.4272  0.0174  0.0011
19610W        W35419   4.471  16.219   2.545 -0.0039  0.0499 -0.0096
19611W        W35420   7.624  18.449   2.524 -0.0444  0.1531 -0.0423
19612W        W35421   5.850   8.916   0.017  0.1492  0.2669  0.0233
19613W        W35422  13.631  12.304   1.183  0.1218 -0.0476  0.0186
19614W        W35423  16.045   8.495  10.952 -0.1938  0.1564  0.1585
19615W        W35424  12.706   8.249  13.785  0.1651  0.2406  0.0608
19616W        W35425  13.880   8.617   1.806 -0.1031 -0.0471 -0.1383
19617W        W35426  17.622   5.853   1.594  0.1226  0.5028 -0.1230
19618W        W35427  11.514   3.183   0.427 -0.1903 -0.3945  0.1068
19619W        W35428   9.038  11.185  12.342 -0.0140  0.1516 -0.2488
19620W        W35429   4.716  18.448   9.930  0.0035 -0.0968  0.3149
19621W        W35430  10.898  10.311  14.864 -0.0850 -0.1830  0.2791
19622W        W35431   9.180   8.429   4.201  0.3292 -0.0856 -0.0630
19623W        W35432  18.432   0.658   5.157 -0.2181 -0.0348  0.4243
19624W        W35433   6.319  14.624   2.006  0.0310 -0.1583  0.0026
19625W        W35434   3.290  14.214   3.274 -0.0241  0.1827  0.1457
19626W        W35435  15.235   1.724  10.527 -0.1061  0.0089  0.1165
19627W        W35436  10.330   3.065  12.607  0.0133 -0.3710  0.1489
19628W        W35437   8.844   3.854   4.193  0.0710  0.1138  0.1612
19629W        W35438   2.574  17.748   1.148 -0.1874  0.2374  0.2993
19630W        W35439   4.732  15.223   4.149  0.4027  0.1656 -0.0484
19631W        W35440  12.768   0.838   1.470 -0.1539 -0.0781 -0.0391
19632W        W35441   4.846   9.589   2.302  0.2364  0.0771  0.2374
19633W        W35442  12.971   7.541  11.024  0.0640 -0.0807 -0.0358
19634W        W35443  14.587  17.592  11.191  0.0907  0.3437  0.1070
19635W        W35444  11.277  14.311   1.284  0.0628 -0.0832  0.0651
19636W        W35445   9.116   0.506   0.892 -0.1991 -0.2020  0.4483
19637W        W35446   0.399  13.946   9.611 -0.0924 -0.0926 -0.4666
19638W        W35447   9.197  14.416  15.010  0.1825 -0.0118 -0.0157
19639W        W35448  13.994  10.176   4.558 -0.0999  0.3005  0.1326
19640W        W35449   8.434   8.993   1.285 -0.1991 -0.3194  0.1760
19641W        W35450  18.370   0.462   0.061  0.1524  0.3137 -0.0237
19642W        W35451   3.964  10.268  10.751  0.1338  0.2004  0.3096
19643W        W35452   0.184  17.794   5.443 -0.1908  0.1554 -0.0823
19644W        W35453  13.158  15.890   4.573 -0.0380  0.1806  0.2204
19645W        W35454  16.796   5.173   3.466 -0.2199  0.1152 -0.3292
19646W        W35455  17.860  13.538  12.114 -0.1649  0.1893 -0.0752
19647W        W35456   7.145  12.187  12.778 -0.2539  0.3129 -0.3008
19648W        W35457   8.096   5.654  11.313  0.2367 -0.1410  0.1093
19649W        W35458  16.548   0.044  11.649  0.0563  0.1416  0.3881
19650W        W35459  17.725   9.233   1.178 -0.0365 -0.2156  0.1073
19651W        W35460   2.448  10.093   3.216 -0.1653  0.0171  0.1467
19652W        W35461  17.739   8.403  13.337 -0.0739  0.3094 -0.1509
19653W        W35462  13.869  18.025   3.242 -0.0748  0.0177  0.3130
19654W        W35463  13.313  13.740   2.785 -0.2808  0.0881  0.1403
19655W        W35464   8.079   2.336   4.928  0.3997 -0.0038 -0.1010
19656W        W35465   1.996  10.812   2.230 -0.0855 -0.1635  0.0294
19657W        W35466  12.746   4.028  13.341 -0.2623 -0.3273  0.0888
19658W        W35467   5.747  14.186   4.040  0.0885 -0.3114 -0.0320
19659W        W35468  15.824   0.369  11.947 -0.1250  0.1165 -0.1420
19660W        W35469   6.449   1.207   4.902  0.1500 -0.0216  0.0386
19661W        W35470  15.819   0.495   4.043 -0.1774 -0.1536 -0.0566
19662W        W35471   5.820   0.978   1.558  0.1813  0.2250 -0.0404
19663W        W35472   6.197   2.949  11.679  0.3556 -0.1371 -0.0963
19664W        W35473   2.881   5.059   0.308  0.2701 -0.1111  0.4663
19665W        W35474  17.803   5.351  11.790 -0.1032 -0.0439  0.1933
19666W        W35475  15.515  17.131  11.431 -0.0271  0.2283 -0.1642
19667W        W35476   6.770   6.462   4.283  0.1000 -0.0140  0.0501
19668W        W35477  16.575   7.838  14.827 -0.1236 -0.3101  0.3019
19669W        W35478   4.888   9.296  13.364  0.2139  0.1754  0.4020
19670W        W35479  18.559   8.534  14.514 -0.1004 -0.2615  0.1637
19671W        W35480   9.403   3.778  14.744  0.0607 -0.1698  0.1142
19672W        W35481  10.279  16.630   2.365  0.0369  0.2146  0.0958
19673W        W35482  10.333   0.840   1.996  0.2027 -0.0761  0.2195
19674W        W35483   9.638  10.444  12.592 -0.1531 -0.3805 -0.4637
19675W        W35484  13.893  16.742   4.548  0.1186  0.0349  0.0048
19676W        W35485   4.738   8.538   0.924  0.0925  0.2554 -0.4181
19677W        W35486   1.829  17.995  13.463  0.2005 -0.0668  0.3001
19678W        W35487  16.129   2.026  11.961  0.0959  0.0971  0.0675
19679W        W35488  17.343   5.320   3.938 -0.1713 -0.0703  0.0328
19680W        W35489  17.869   7.068  14.506 -0.2209  0.4318 -0.0690
19681W        W35490  12.017   9.979   1.864 -0.2190 -0.0987 -0.1324
19682W        W35491  15.060   7.138   5.005  0.1765 -0.3231 -0.1990
19683W        W35492  14.708  16.520  10.731  0.0210  0.0153 -0.0184
19684W        W35493   7.452  16.197  13.892  0.0029 -0.0662  0.0872
19685W        W35494  16.525  14.535   3.557  0.0202 -0.2943 -0.1374
19686W        W35495   1.245  15.078   2.169 -0.2466  0.0929  0.2512
19687W        W35496   9.747   8.709   3.317 -0.0986 -0.0049 -0.0028
19688W        W35497  12.475   3.375  12.148  0.0836  0.1050  0.1356
19689W        W35498   7.206  18.279   3.254 -0.0974 -0.0476 -0.0750
19690W        W35499  10.266   9.699   4.435  0.1042  0.1415  0.0848
19691W        W35500   0.641  16.593  14.126 -0.0224  0.0898 -0.1834
19692W        W35501   1.922   9.997  13.163 -0.1128 -0.4004 -0.1017
19693W        W35502  12.250   1.841  10.396  0.2944 -0.0395  0.0871
19694W        W35503  16.240   6.513   2.468  0.2436 -0.0906  0.3917
19695W        W35504  10.441   0.004  13.112 -0.0554  0.1296  0.1463
19696W        W35505  12.536   6.111  13.823  0.2264  0.2049 -0.0418
19697W        W35506   7.476   9.951  15.294  0.0554  0.3264  0.0497
19698W        W35507  17.134   7.566   0.963 -0.0402 -0.3519 -0.1208
19699W        W35508  17.632  18.197  13.568  0.2003 -0.2961  0.0084
19700W        W35509   8.426  12.738   1.326  0.1205 -0.0140  0.0765
19701W        W35510   6.384   8.842  14.848 -0.0785  0.0155  0.2262
19702W        W35511   0.137  12.513  10.248  0.1837 -0.0622 -0.0935
19703W        W35512   8.203  15.347   2.619 -0.2514 -0.1981  0.0765
19704W        W35513  17.708  12.423  14.951  0.3891  0.2243 -0.4092
19705W        W35514  18.502   7.203  12.085  0.1792 -0.1048  0.2212
19706W        W35515  11.619   5.489   1.915  0.1211 -0.1797  0.0745
19707W        W35516   8.318   3.903   0.663 -0.1723  0.2835 -0.1716
19708W        W35517  17.945   0.324   1.503 -0.1445  0.1029 -0.4084
19709W        W35518  18.309   5.548   2.138 -0.2381  0.3910  0.1735
19710W        W35519  10.318   3.812  14.243  0.2865  0.2784 -0.2393
19711W        W35520   5.347   0.575  11.882 -0.1688 -0.0181 -0.0027
19712W        W35521  13.488  15.565  13.004 -0.0260  0.1194  0.1358
19713W        W35522   9.439   9.466  14.457  0.0951  0.1386  0.3757
19714W        W35523   4.508   5.631  14.704  0.1593 -0.0686  0.0521
19715W        W35524  14.749  14.594   1.340  0.1026  0.1121 -0.1674
19716W        W35525  16.076   8.393   2.762 -0.0418 -0.1387  0.2366
19717W        W35526   2.226   7.792   4.800 -0.1998 -0.2043  0.0642
19718W        W35527   7.855   3.848  10.833 -0.0080  0.0133  0.1220
19719W        W35528   3.233   1.078   1.768  0.2002  0.1690 -0.0003
19720W        W35529  11.234   5.404  11.358 -0.1212  0.0313  0.1381
19721W        W35530  10.815   8.612  13.646  0.1019  0.2009 -0.0798
19722W        W35531  10.455   2.763   4.378  0.1039 -0.0910  0.0385
19723W        W35532   2.642   5.466  10.552 -0.1278  0.0615  0.0762
19724W        W35533  16.104   5.199  12.614  0.0600  0.1709 -0.1828
19725W        W35534   7.285  10.719  15.174 -0.2089  0.1689  0.1775
19726W        W35535   2.706  17.388   2.702  0.2431  0.0911 -0.0204
19727W        W35536   1.322  14.823  11.328  0.1145 -0.0022  0.2573
19728W        W35537   2.474   8.098   2.696  0.1148  0.2473 -0.1148
19729W        W35538  16.659   2.715  12.631  0.0301 -0.1310  0.0141
19730W        W35539   7.552  17.445  14.007  0.1224 -0.1142 -0.0203
19731W        W35540  16.444   6.370   0.731  0.1316  0.4447  0.3385
19732W        W35541   9.013   2.965   3.785 -0.0216  0.1281 -0.2073
19733W        W35542   2.182   2.404   1.585 -0.1679  0.0860  0.1739
19734W        W35543   8.887  16.425  10.782  0.1195 -0.1701 -0.4047
19735W        W35544  12.999   6.340   2.724 -0.0094 -0.0009  0.0037
19736W        W35545  15.516  16.666   4.863  0.0064  0.1192  0.0222
19737W        W35546   4.086   8.421  13.948  0.0441  0.0116 -0.0842
19738W        W35547   7.386  16.429  12.204 -0.0659  0.0292  0.1919
19739W        W35548   9.976   8.096  10.108  0.5767 -0.2208  0.0310
19740W        W35549   8.755   3.076   5.505  0.0243 -0.0462  0.1385
19741W        W35550   5.206  12.915  11.007  0.3546  0.3864  0.2959
19742W        W35551   7.603   2.308   0.403  0.2914 -0.0690  0.0323
19743W        W35552  11.990   1.486  13.447 -0.0590  0.1164  0.0344
19744W        W35553   7.970   8.451   1.383  0.0394 -0.0109  0.3260
19745W        W35554   6.809   8.091   2.506 -0.1477 -0.0747 -0.0797
19746W        W35555   4.210   8.208  13.109  0.0386  0.2143  0.0084
19747W        W35556   9.315  13.625  14.176 -0.4178 -0.3594 -0.0939
19748W        W35557   2.414   3.164   2.640 -0.3089 -0.2268 -0.1022
19749W        W35558  17.057  13.409  15.256 -0.1063 -0.1601  0.1970
19750W        W35559   5.739  12.693  15.021  0.1484 -0.1155  0.0823
19751W        W35560   0.245   0.581   4.838  0.0067  0.3164 -0.2402
19752W        W35561  17.518  13.667   2.653  0.0734 -0.0126 -0.0151
19753W        W35562   6.965  10.523  14.393 -0.1386 -0.1632 -0.0216
19754W        W35563   1.505  18.460   4.483 -0.1495  0.2429 -0.1732
19755W        W35564  10.967   5.405  13.902  0.1395 -0.0270  0.1329
19756W        W35565   0.079   4.831   4.084 -0.1229 -0.3495  0.0175
19757W        W35566   9.084   4.373  10.885 -0.0244  0.3277  0.1124
19758W        W35567  15.157   0.188   5.248 -0.1512 -0.2210 -0.2934
19759W        W35568   0.995  15.929  13.005 -0.1989 -0.0629  0.0472
19760W        W35569   1.292  17.883   3.973  0.2036 -0.3309  0.2688
19761W        W35570  10.621   3.022  11.884  0.0252  0.2382  0.0209
19762W        W35571  11.086  18.057  15.235 -0.1228  0.1723  0.2258
19763W        W35572   3.426   4.635  15.245  0.2344 -0.2248  0.0159
19764W        W35573  15.044   1.172  13.776 -0.0481  0.1954 -0.0012
19765W        W35574  10.428  10.165   3.314  0.0225 -0.0208 -0.2659
19766W        W35575   0.075  13.772  10.480  0.0580  0.0292  0.1703
19767W        W35576   7.930   7.680   4.703 -0.1864  0.0929 -0.1770
19768W        W35577   0.825  18.148   0.641 -0.0188 -0.2862 -0.2419
19769W        W35578   9.897   7.855  11.049 -0.0554 -0.0820  0.4091
19770W        W35579   4.430  10.995   9.765  0.1877 -0.1231 -0.3427
19771W        W35580  12.083  17.955   0.047 -0.3337 -0.2300  0.2488
19772W        W35581   6.331  17.102   5.306 -0.1093 -0.2160 -0.5337
19773W        W35582   7.329  11.339  11.297  0.2168 -0.1591  0.0131
19774W        W35583  10.720  14.082  14.707 -0.0439 -0.1449 -0.0434
19775W        W35584   8.598   0.264   1.068 -0.0085 -0.0585  0.0739
19776W        W35585   8.878   3.419   5.123 -0.1907 -0.0826 -0.0240
19777W        W35586   3.296  16.106  11.800  0.3194 -0.3597 -0.0710
19778W        W35587  12.439   1.696   5.827  0.1876  0.0776 -0.0317
19779W        W35588   2.340  17.672  13.594 -0.0974  0.0184 -0.1014
19780W        W35589   3.735   8.892  13.264 -0.3695 -0.3243 -0.1658
19781W        W35590  15.956   3.654   1.258  0.0896 -0.0274  0.0147
19782W        W35591  15.070  10.102   0.016  0.3429  0.0501 -0.1987
19783W        W35592   7.129   2.475   1.646  0.1421 -0.1626 -0.1016
19784W        W35593  11.552  14.237   6.227 -0.2231  0.0256  0.1848
19785W        W35594   2.218  17.482   1.339 -0.2987  0.1334  0.3236
19786W        W35595  15.388   4.015   2.350  0.2495  0.0455 -0.1514
19787W        W35596   7.528  18.447   0.706  0.0273  0.1589  0.0694
19788W        W35597  14.328  14.136   3.852  0.3155 -0.1042 -0.4118
19789W        W35598   4.860  12.790  12.332  0.1229 -0.0320  0.0164
19790W        W35599  17.888  17.745   0.092  0.0087 -0.1537 -0.2149
19791W        W35600   7.636   5.348   4.837 -0.0342 -0.0848  0.1563
19792W        W35601  14.179   4.522   3.499  0.0891 -0.2699 -0.1468
19793W        W35602  13.945  12.729  11.790  0.2144 -0.2668  0.1881
19794W        W35603  16.891  12.195   1.174  0.0479  0.1581  0.2769
19795W        W35604   7.476  15.322   3.750  0.3147  0.0683  0.0343
19796W        W35605   1.128   4.291  10.922 -0.3147  0.1810 -0.0941
19797W        W35606   6.026   8.318  14.641  0.0421  0.1130 -0.2284
19798W        W35607  10.980   4.567   2.665 -0.0741  0.2855  0.1716
19799W        W35608   8.432   4.994  15.052  0.0095 -0.2018  0.0076
19800W        W35609   5.840   4.822  11.481 -0.1180 -0.2531  0.1170
19801W        W35610  12.487  12.199  11.148 -0.1748 -0.0696 -0.2838
19802W        W35611   3.006   4.794  13.659 -0.7278  0.3403  0.0108
19803W        W35612  16.995   0.166   4.203  0.0678  0.3398 -0.0138
19804W        W35613  14.605   7.988  13.448  0.1555  0.3634  0.2082
19805W        W35614   2.760   1.715  12.289 -0.3975 -0.4060 -0.1303
19806W        W35615  12.222  10.372   0.602 -0.3622  0.2041 -0.1348
19807W        W35616   6.539   0.039   0.656 -0.1099 -0.0789  0.1570
19808W        W35617   5.083  15.052   0.825 -0.0871  0.1027  0.3163
19809W        W35618  10.926   0.002   0.992  0.0871  0.1355  0.0711
19810W        W35619   0.244   1.249   0.941 -0.0840 -0.0416  0.0437
19811W        W35620  18.385  11.764  13.690  0.0454  0.1809 -0.0707
19812W        W35621   2.925  16.520  11.244  0.1547  0.1268  0.1711
19813W        W35622   4.919   2.956   0.124 -0.2044  0.1802 -0.0149
19814W        W35623  14.993  10.933  14.179  0.2366  0.0365 -0.3173
19815W        W35624   8.492   1.324   4.236  0.1989  0.1461 -0.1109
19816W        W35625  15.408  13.047  14.494  0.0842  0.0003  0.0610
19817W        W35626   4.298   8.051   1.462 -0.4049 -0.2634  0.1048
19818W        W35627  18.003  17.892   1.644 -0.0940 -0.0690 -0.0300
19819W        W35628  18.103   2.800  15.166 -0.0718 -0.0288  0.0637
19820W        W35629  16.767  15.992  10.905 -0.2550 -0.1036 -0.2170
19821W        W35630   1.586  17.506   0.350 -0.1511  0.1836 -0.0010
19822W        W35631   0.006   2.120   3.564  0.1959  0.3327 -0.1535
19823W        W35632  12.705   1.765   2.500  0.4168  0.1601 -0.0277
19824W        W35633   2.350   5.967  11.856  0.1456  0.1980  0.4485
19825W        W35634  12.518   0.187   4.773 -0.0013 -0.0826  0.0442
19826W        W35635   3.902  14.433   3.956  0.3181  0.1477 -0.0703
19827W        W35636  12.106  11.626   1.752 -0.5585  0.0066 -0.0790
19828W        W35637   1.890   7.534   4.563 -0.2297  0.0742  0.0878
19829W        W35638   8.906   5.511   0.943  0.2190 -0.1546 -0.0731
19830W        W35639   8.497   9.081  15.443  0.0620 -0.3858  0.1195
19831W        W35640   0.112   4.711  14.157  0.0301  0.1116  0.2215
19832W        W35641  12.048  10.105  11.426  0.1990 -0.4144  0.0614
19833W        W35642  17.161  11.862   9.741 -0.1281 -0.0190 -0.0612
19834W        W35643   2.283  14.749   0.705  0.1190  0.0101  0.1940
19835W        W35644   1.007  13.690  11.738 -0.0756  0.2444  0.1483
19836W        W35645  16.276   4.432  10.708 -0.1979 -0.0006 -0.1397
19837W        W35646   4.407  16.487   4.701  0.0846  0.1614 -0.2355
19838W        W35647   3.332   9.764   2.399  0.3125  0.0334  0.2083
19839W        W35648   1.956  13.760  11.612 -0.0691 -0.2201 -0.0690
19840W        W35649   1.290   4.035   5.317  0.7308  0.1529  0.0556
19841W        W35650   6.974   4.351   5.677  0.2644  0.0855 -0.4234
19842W        W35651   4.427   6.341   1.370 -0.2373  0.0326 -0.3279
19843W        W35652  18.444  10.272   3.228 -0.1443 -0.0267 -0.0459
19844W        W35653  10.499   9.844   1.579  0.1326  0.1296 -0.0762
19845W        W35654   6.606   9.288  10.438 -0.1565  0.0956  0.1134
19846W        W35655  15.381   9.963   1.075  0.0268 -0.0723  0.1333
19847W        W35656   0.984   2.285  10.635 -0.3059  0.0001 -0.0105
19848W        W35657   6.090  12.792  11.534  0.4070 -0.1562 -0.0258
19849W        W35658  16.422   5.437   2.524  0.0099 -0.0817 -0.0460
19850W        W35659   8.406  12.001   3.855 -0.1351  0.2216 -0.2306
19851W        W35660  18.334   7.221   2.253 -0.0172  0.0825 -0.2275
19852W        W35661  10.666   6.379  15.468  0.0418  0.0055  0.2921
19853W        W35662   7.781  10.780  14.837 -0.1046 -0.0498 -0.0409
19854W        W35663   7.867  15.747   2.820 -0.1000 -0.1107  0.1897
19855W        W35664  10.574   7.180  13.266 -0.1028 -0.2240  0.0065
19856W        W35665   0.231   4.004  12.466 -0.0764 -0.0479  0.1636
19857W        W35666  15.159   8.493  14.555  0.1131 -0.0642  0.1471
19858W        W35667  15.257  11.660  11.754 -0.1355 -0.3302  0.1472
19859W        W35668   4.751   8.731   3.900  0.1108  0.0742 -0.1508
19860W        W35669  12.702   0.545  13.486  0.3424 -0.3178 -0.3222
19861W        W35670   8.020  13.597  11.348  0.2249  0.0803  0.2419
19862W        W35671  13.373   6.335   0.495  0.0736  0.0060  0.1264
19863W        W35672  13.396  11.900  14.897  0.2044  0.0497  0.2671
19864W        W35673  15.147   2.776   3.411  0.2284 -0.6835  0.2058
19865W        W35674   5.940   1.485  11.102 -0.0135 -0.1329 -0.1960
19866W        W35675  13.777   3.933  11.170 -0.1397 -0.4364 -0.1636
19867W        W35676  11.380  17.036   5.908 -0.0156 -0.0572  0.1681
19868W        W35677   6.586  10.708   4.497  0.2085 -0.1864  0.1000
19869W        W35678  11.883  16.998   1.232 -0.1024 -0.0372  0.2997
19870W        W35679  12.003  14.900   3.740 -0.1028 -0.1223 -0.0647
19871W        W35680   3.787  10.420   2.967 -0.0498  0.0718 -0.1229
19872W        W35681   0.208   3.855   0.713 -0.0319 -0.0063 -0.0389
19873W        W35682  14.900   0.709  11.412  0.0994 -0.0934 -0.2337
19874W        W35683   4.625  11.423  11.529  0.0685  0.0334 -0.0243
19875W        W35684  13.307   6.108  13.374  0.1395 -0.3651  0.2407
19876W        W35685   7.294  14.009   1.992 -0.3260 -0.3296 -0.0791
19877W        W35686   9.200   1.147  12.607 -0.1962  0.2379 -0.1285
19878W        W35687   2.530   6.520   1.810 -0.3881 -0.0162  0.2818
19879W        W35688   3.056  10.330   5.131  0.2339  0.0382  0.0973
19880W        W35689  15.943   6.782  10.854  0.0160 -0.1458 -0.0681
19881W        W35690   9.200  10.693  14.778 -0.1796 -0.3861  0.0232
19882W        W35691  12.043  13.772  14.349  0.0986 -0.0057  0.0049
19883W        W35692   5.614   1.057   0.721 -0.1950 -0.1894 -0.2666
19884W        W35693   8.035   1.229   0.722 -0.0298 -0.1923  0.3090
19885W        W35694   3.533  16.527   0.696  0.3288 -0.4778 -0.1743
19886W        W35695  16.470  15.105  11.235 -0.1860 -0.3901  0.4035
19887W        W35696  15.812   3.282  11.206 -0.0023  0.1726  0.5131
19888W        W35697  12.481  14.910  10.227  0.2689 -0.0128  0.1287
19889W        W35698  13.827  10.874  14.012  0.4355  0.1706  0.1146
19890W        W35699   4.010  17.858  15.089  0.0664 -0.1792  0.1198
19891W        W35700   5.873   6.704  11.799 -0.1314 -0.0742 -0.1267
19892W        W35701   8.527  15.064  13.746 -0.3414  0.1179 -0.0928
19893W        W35702  11.819   7.728  11.715  0.1115  0.2597  0.2540
19894W        W35703  11.116   6.711   2.315 -0.0184  0.2093 -0.0476
19895W        W35704   8.100  13.034  14.139  0.0440 -0.1214 -0.0607
19896W        W35705  16.181   0.622   1.148 -0.3249 -0.1933 -0.1439
19897W        W35706   8.178  16.935  13.836 -0.0221  0.3331 -0.2290
19898W        W35707   6.481   2.942  10.730 -0.0876 -0.5138 -0.1635
19899W        W35708  12.159   0.749   3.297 -0.1751 -0.2270  0.3181
19900W        W35709  14.137   7.052   1.420  0.0962 -0.1518 -0.1314
19901W        W35710  10.591   6.725   3.629  0.0280 -0.2910  0.2913
19902W        W35711  10.225   0.711   3.299  0.2306  0.0499 -0.1049
19903W        W35712  16.926   3.071   3.747 -0.3983  0.2605  0.2001
19904W        W35713   7.596   6.411  15.211 -0.0504 -0.1205 -0.1151
19905W        W35714   2.248   5.709   1.345  0.1098 -0.2631  0.2412
19906W        W35715   4.433   4.235   2.377  0.0224  0.1162  0.2307
19907W        W35716   8.143  16.498   4.246 -0.0921 -0.0449 -0.0065
19908W        W35717   7.216   7.925  12.509  0.0244  0.2721  0.0911
19909W        W35718   1.624   5.661  11.426  0.0132  0.2030  0.1749
19910W        W35719   9.468  13.990  12.304 -0.0105 -0.0088  0.0757
19911W        W35720   7.938  16.444   3.641 -0.1159  0.2776 -0.4083
19912W        W35721  17.155  12.470  12.040 -0.1383  0.3048 -0.0409
19913W        W35722   4.845   6.596   5.764  0.3600  0.1819 -0.2072
19914W        W35723  14.023  10.056  14.960  0.3103  0.0146  0.1407
19915W        W35724  17.412  10.547   0.189 -0.1631  0.0294 -0.1132
19916W        W35725  15.230   1.351  12.356 -0.0162  0.3171  0.1983
19917W        W35726   4.019   7.177   4.209  0.0718 -0.2543 -0.1244
19918W        W35727   6.528   4.379   1.232  0.1111  0.1056  0.0519
19919W        W35728   9.613   8.614   4.360  0.2941 -0.0538  0.2139
19920W        W35729  13.080   1.518  14.403 -0.1805 -0.0429 -0.0857
19921W        W35730  16.782   8.183  11.757 -0.0486 -0.1475  0.1168
19922W        W35731   5.025   0.503   1.669 -0.0472 -0.0371 -0.1445
19923W        W35732  13.727  15.285  10.391 -0.0269 -0.2635  0.0244
19924W        W35733   7.205  15.399   3.353 -0.2283 -0.2583  0.1414
19925W        W35734   2.487   8.204  10.993  0.1024 -0.0525  0.1347
19926W        W35735   6.721   7.484   5.109  0.0213  0.5384 -0.1374
19927W        W35736  13.652   3.937  13.410 -0.1070 -0.2701 -0.2002
19928W        W35737   7.108  12.523  14.470 -0.1728 -0.1304 -0.0647
19929W        W35738   1.536   0.926  12.637  0.2471  0.0122 -0.1647
19930W        W35739  15.125  18.600  15.571 -0.2720 -0.0350  0.1311
19931W        W35740  17.683   7.323   5.579 -0.0648 -0.2851  0.0348
19932W        W35741  15.164   1.059  11.006 -0.2320  0.2046  0.1653
19933W        W35742  11.169   8.673  11.085 -0.1452  0.1142 -0.1525
19934W        W35743  13.609   0.535  13.696 -0.1906  0.1421 -0.0484
19935W        W35744   4.371  16.519  13.033 -0.3028  0.3093  0.0722
19936W        W35745   3.970   6.848  10.644  0.1144  0.2226  0.0496
19937W        W35746  14.873  10.034   4.515  0.0860 -0.2009 -0.0330
19938W        W35747   6.818  17.345  15.238  0.0758  0.3271  0.0045
19939W        W35748   4.281   4.698  13.724 -0.1166  0.0217 -0.0437
19940W        W35749   7.260   8.773  15.084  0.0580  0.0562  0.4607
19941W        W35750  11.088  12.672   3.420 -0.3371 -0.0607  0.0186
19942W        W35751   5.598   5.943  12.464  0.1370 -0.1337 -0.0013
19943W        W35752   5.870   7.560   1.143  0.0181  0.1039  0.1405
19944W        W35753   7.610  14.207  10.775  0.1604 -0.2634  0.0537
19945W        W35754  15.171   0.066   1.935  0.0228 -0.1977  0.3716
19946W        W35755   9.775   7.462   2.699 -0.1442  0.1781  0.0165
19947W        W35756  12.745   3.662  12.984  0.0669 -0.0478 -0.0970
19948W        W35757  17.957  14.093   2.684  0.1602 -0.1797 -0.3506
19949W        W35758  15.451   1.393  12.852  0.0826  0.1387  0.2707
19950W        W35759   3.526   4.239  14.235  0.0328 -0.4002  0.2286
19951W        W35760  11.739   3.395   2.903  0.1348 -0.1259  0.1598
19952W        W35761   8.475   1.721  10.945  0.1121 -0.1477  0.2485
19953W        W35762  11.357   8.886   2.507 -0.0959  0.1303  0.1238
19954W        W35763  13.720   4.314   3.457  0.0420 -0.0535  0.1646
19955W        W35764  16.934  10.778  14.415  0.1618  0.0587 -0.2501
19956W        W35765  15.744   9.908   9.692  0.3176  0.1116 -0.0489
19957W        W35766  16.629   1.497   5.898 -0.1321  0.0340 -0.1844
19958W        W35767  17.358  18.264   5.383 -0.0688  0.0441 -0.0237
19959W        W35768   8.076   2.547   3.405  0.1287 -0.1534 -0.0403
19960W        W35769   0.930   0.562   4.037  0.3368 -0.1041  0.0863
19961W        W35770   9.993  14.821   1.378 -0.0535  0.0001 -0.1221
19962W        W35771   4.631  15.885   0.857  0.0042 -0.0501 -0.0346
19963W        W35772   4.409   1.079  15.348 -0.0896  0.2656 -0.1884
19964W        W35773   0.418  14.081  12.723  0.1989  0.0090 -0.0644
19965W        W35774   0.316   8.374   2.936  0.0786 -0.1570  0.2491
19966W        W35775   9.887  17.763   1.251  0.1906  0.1379  0.0381
19967W        W35776   8.891  17.252   4.774  0.0764 -0.0802  0.1765
19968W        W35777   7.982   1.994   3.786  0.2574  0.2762  0.0962
19969W        W35778  11.583   5.549  13.954 -0.1444 -0.0323 -0.1627
19970W        W35779   2.026  15.772  10.727  0.0070 -0.0977 -0.1246
19971W        W35780   6.043   4.334   1.099 -0.0098  0.1074 -0.3359
19972W        W35781   9.478   0.977  13.404 -0.1437 -0.0869  0.0836
19973W        W35782   3.568   6.740  11.428 -0.0052  0.2203  0.0178
19974W        W35783   8.649   0.363  11.645 -0.0033 -0.1144  0.2017
19975W        W35784   0.446   5.100   0.234  0.1033 -0.3877 -0.1650
19976W        W35785   6.571   0.966   0.936  0.0750 -0.0929  0.1144
19977W        W35786   2.651   7.095  12.597  0.3947  0.1529 -0.0297
19978W        W35787   9.500   1.402   0.480  0.0925 -0.2165  0.2265
19979W        W35788  15.507   2.190  14.724  0.1494  0.2263  0.0215
19980W        W35789  11.564  17.848   3.399  0.1565  0.1205 -0.0894
19981W        W35790   9.969  11.968   0.329  0.0529 -0.0124  0.1531
19982W        W35791  14.385   6.712  13.276 -0.2531  0.0210  0.2041
19983W        W35792   9.180   4.516   1.345 -0.0312  0.4718 -0.0629
19984W        W35793  17.431   6.003   2.072  0.0207  0.0830  0.0859
19985W        W35794   8.758   5.124   4.987 -0.0463  0.1756  0.1568
19986W        W35795   3.714   9.632  10.847  0.0405  0.0829 -0.0912
19987W        W35796   3.333   9.982  14.775  0.0561  0.1530  0.0662
19988W        W35797  11.357   9.630  14.312  0.2007 -0.1559 -0.2505
19989W        W35798  13.361   3.193   5.233 -0.1102 -0.3595 -0.0760
19990W        W35799  15.137  15.987  14.370 -0.0107 -0.0763 -0.0389
19991W        W35800  13.012  13.060  14.473 -0.1437 -0.0388 -0.2653
19992W        W35801   7.144   8.064  14.180  0.0263  0.2770  0.1851
19993W        W35802   3.898  11.123   3.185  0.0623  0.1574  0.1566
19994W        W35803   2.402   2.488  15.158 -0.3114 -0.3562 -0.1171
19995W        W35804   9.074  14.055   9.536 -0.1521 -0.1072  0.2604
19996W        W35805   2.701   5.682  14.083 -0.1563  0.0082 -0.0683
19997W        W35806   3.902  15.829   5.119 -0.0476  0.0703 -0.0563
19998W        W35807  11.536   4.571  12.528 -0.0329 -0.1669  0.1187
19999W        W35808  14.223  16.735  10.838  0.0431  0.1662 -0.2489
20000W        W35809  10.480   8.503  14.551  0.0074  0.0513  0.2404
20001W        W35810   5.291   2.123   2.430 -0.0454  0.0801 -0.0208
20002W        W35811   8.294  10.661   3.914 -0.1106 -0.0312  0.1101
20003W        W35812   6.624  10.123  13.691  0.0137 -0.0302  0.0147
20004W        W35813  18.652  11.279   4.031 -0.0183  0.2382  0.1515
20005W        W35814   6.628   1.540   4.445 -0.1411  0.3288 -0.1752
20006W        W35815  13.545  18.545  13.664 -0.4321 -0.0337  0.2639
20007W        W35816   8.298  14.012  12.245  0.3073  0.1449 -0.2435
20008W        W35817   0.789   7.396  12.863  0.1332  0.0246  0.0442
20009W        W35818  14.259  10.228  10.697  0.2453 -0.0881 -0.1139
20010W        W35819  12.225   8.762   2.568 -0.1230 -0.2913  0.1517
20011W        W35820  10.518   9.390  12.108 -0.2485 -0.3923  0.2305
20012W        W35821   3.983   9.492  11.272 -0.1066 -0.1045 -0.1843
20013W        W35822  17.340  13.369  12.994  0.1485 -0.3682  0.1028
20014W        W35823   9.613   0.980   3.723  0.1867  0.3095 -0.3624
20015W        W35824   1.468  12.665  15.082  0.2438 -0.0785  0.3784
20016W        W35825  11.700   9.411   3.241  0.0857  0.0023  0.2261
20017W        W35826  16.094  18.668   2.370  0.2793  0.0545  0.2990
20018W        W35827  13.329  13.594  11.623  0.3288  0.2237  0.1657
20019W        W35828  15.830  16.079   2.461  0.1368 -0.2022  0.0002
20020W        W35829   9.686  17.110  14.634  0.2664 -0.0404  0.1256
20021W        W35830   7.095  14.332  12.984 -0.0259  0.3248  0.1409
20022W        W35831   6.082   5.679  14.713 -0.1538 -0.1184 -0.1975
20023W        W35832  17.517   2.531   3.750  0.0194 -0.2167  0.0283
20024W        W35833   1.109  13.412   3.882  0.2456 -0.6110  0.0596
20025W        W35834   9.646   8.631   1.291 -0.0332 -0.3544  0.0612
20026W        W35835   5.374   1.971   4.225 -0.0232  0.1765 -0.0365
20027W        W35836  16.438   1.082  12.236  0.0435  0.1493  0.1509
20028W        W35837   5.445   6.897  12.689 -0.4553 -0.1224  0.0732
20029W        W35838   8.850  17.018   3.128 -0.1699  0.4277 -0.0828
20030W        W35839  10.541   6.013   1.916 -0.1126  0.3692  0.2802
20031W        W35840   7.395   4.866   3.576  0.2761  0.0850 -0.2625
20032W        W35841   9.306  13.219  13.731  0.0061  0.0500  0.0541
20033W        W35842   5.833   1.449   4.404 -0.1514  0.0043 -0.0399
20034W        W35843  15.790   0.049   1.914  0.0709 -0.1780 -0.2391
20035W        W35844   3.732  16.370  13.001  0.1263 -0.0576 -0.0604
20036W        W35845   6.599   4.390  15.593 -0.4554  0.3260 -0.0242
20037W        W35846  14.006  15.390  14.459 -0.0506  0.1005  0.0837
20038W        W35847   8.101  15.223   3.209 -0.2507 -0.3152  0.3159
20039W        W35848  14.306  18.332  15.092  0.1155 -0.2696  0.1021
20040W        W35849  18.547   7.196  14.920 -0.2086 -0.1076  0.3076
20041W        W35850   8.896  10.309   1.400 -0.1655 -0.2429 -0.0496
20042W        W35851   0.048   2.921  15.404  0.1061  0.0308 -0.1994
20043W        W35852  13.594   4.484  13.061 -0.1066  0.0801 -0.2111
20044W        W35853   5.958  14.412  15.378 -0.1471  0.1329  0.0817
20045W        W35854   7.867   0.580   3.439 -0.0373  0.0558  0.1568
20046W        W35855   9.535  12.343  15.190  0.2060  0.0371 -0.1569
20047W        W35856  17.993  17.591   3.648 -0.0164 -0.0883  0.3416
20048W        W35857  10.827  12.898  14.656  0.1177 -0.0329 -0.1020
20049W        W35858   4.279   0.750   3.221  0.2781 -0.0062  0.1142
20050W        W35859   9.927  17.470   2.901  0.0427  0.0428 -0.0339
20051W        W35860   7.037  17.741  12.755  0.0448 -0.2377 -0.1618
20052W        W35861   6.748  16.651  14.099  0.0302  0.0433  0.0838
20053W        W35862  14.314   8.580   2.026  0.0375 -0.0422  0.1028
20054W        W35863   5.366  13.970  15.003  0.2631  0.2846  0.0787
20055W        W35864  14.969  10.218  12.125 -0.2830 -0.1800  0.0829
20056W        W35865  11.222   6.343  10.488 -0.1327  0.4030  0.0542
20057W        W35866   5.204   6.328   9.958 -0.1495  0.2961 -0.0011
20058W        W35867   6.941   0.137  12.124 -0.0946  0.4012  0.1832
20059W        W35868   1.580   5.275  11.734 -0.1129 -0.1851 -0.1458
20060W        W35869   4.262  18.352   2.004  0.0910 -0.1001  0.0102
20061W        W35870  13.671   1.522   0.086  0.0581 -0.0580  0.0586
20062W        W35871  14.682   8.170   3.795  0.2035 -0.1378 -0.1872
20063W        W35872   6.363  17.430  13.826  0.0638 -0.1955 -0.0260
20064W        W35873   6.074   5.617  12.749  0.0394  0.1746 -0.0438
20065W        W35874  17.279  18.253  13.914  0.2032  0.2726  0.0864
20066W        W35875   0.093  16.932   3.318  0.0828 -0.0655  0.0568
20067W        W35876  16.913   5.647  14.691  0.1897  0.3714 -0.1311
20068W        W35877   2.904  15.798  12.020  0.2940  0.0621  0.1593
20069W        W35878   2.668   3.833   3.781 -0.0536  0.1192  0.1077
20070W        W35879   7.645   7.128  10.126 -0.0879 -0.0559  0.3471
20071W        W35880  15.157   5.466  14.247  0.1685  0.3289 -0.1458
20072W        W35881   9.818  16.387   2.442 -0.0710  0.2779 -0.2525
20073W        W35882   0.215  11.792  13.521 -0.3444  0.2159 -0.2272
20074W        W35883  15.697  14.466   3.830 -0.1517  0.1088 -0.1154
20075W        W35884   2.946   3.768   1.107 -0.1346  0.1240 -0.0403
20076W        W35885   4.535   9.769   1.975 -0.0186 -0.0876 -0.1500
20077W        W35886   1.811   6.955   1.765  0.0078  0.0023 -0.3972
20078W        W35887  15.792   5.819   4.288  0.2072  0.1009  0.2387
20079W        W35888   5.955  13.524  13.430  0.1500  0.2745  0.1849
20080W        W35889  12.238  10.524   5.374 -0.3930  0.1915 -0.0796
20081W        W35890  14.359   3.148   2.299 -0.0471  0.0677  0.0084
20082W        W35891   2.489  13.957   1.086  0.1211 -0.1546 -0.0922
20083W        W35892   0.688  10.381   3.158 -0.0009  0.3957 -0.0171
20084W        W35893  15.814   8.234  12.412 -0.4691 -0.4080  0.2336
20085W        W35894  10.987   3.482   5.506 -0.4613 -0.0770  0.2794
20086W        W35895   4.328   8.234  11.741 -0.0962  0.1309  0.0235
20087W        W35896   8.988   7.146  10.440  0.2659 -0.0760 -0.0921
20088W        W35897   5.608  15.604   0.652  0.1500 -0.0017 -0.1111
20089W        W35898  15.658   8.825   1.571 -0.1531  0.0514  0.1035
20090W        W35899   3.457   9.241  11.334  0.1572 -0.1624  0.3542
20091W        W35900  15.462  18.478   2.425  0.1491 -0.0245  0.2820
20092W        W35901  10.447   4.108   0.873 -0.0394 -0.0620 -0.1078
20093W        W35902   7.539   2.296   0.907  0.0368  0.2416 -0.0451
20094W        W35903   7.627  15.883  11.952  0.1750 -0.0460  0.1058
20095W        W35904  12.227  17.871   4.286 -0.1498 -0.4808 -0.0457
20096W        W35905   8.646  12.770  14.128 -0.0383 -0.0635  0.0791
20097W        W35906  13.107   8.065  12.153 -0.0199 -0.0370 -0.2334
20098W        W35907   0.762   4.794   1.489  0.1185 -0.0133  0.0625
20099W        W35908   8.990  10.699  11.599 -0.0223  0.0984 -0.0467
20100W        W35909  13.923   7.669   2.905 -0.1218 -0.0022 -0.1734
20101W        W35910   9.105   7.843  12.075 -0.0504 -0.0403  0.0534
20102W        W35911  13.749  14.654   3.401 -0.0421 -0.2303 -0.1127
20103W        W35912   0.181   4.022   1.168  0.0328  0.0584  0.0464
20104W        W35913  17.113  15.766  12.245 -0.0566 -0.1632 -0.1641
20105W        W35914  18.537  11.887  12.242 -0.1381 -0.1220 -0.3433
20106W        W35915   1.082   4.466   4.158 -0.1019 -0.0577 -0.0048
20107W        W35916  13.804  16.583   1.374  0.2057  0.2123 -0.0951
20108W        W35917  14.788   7.024  13.365  0.0764  0.0671 -0.0115
20109W        W35918   5.064   7.287   1.132 -0.0402  0.1753 -0.4953
20110W        W35919  17.381   3.490  10.778 -0.1917 -0.2595  0.0658
20111W        W35920  14.534   7.163   1.663 -0.2480  0.1919 -0.0970
20112W        W35921  11.707  17.769  12.433  0.0210 -0.1060 -0.2450
20113W        W35922  17.355   5.741  14.827  0.1231  0.0296  0.1596
20114W        W35923  13.773  15.836   2.322  0.1637 -0.1293 -0.2149
20115W        W35924  14.457  16.438   0.591 -0.3377  0.1277  0.0736
20116W        W35925  11.777  17.700   4.686 -0.1885  0.0777  0.1445
20117W        W35926  16.421   1.025   1.482  0.0890  0.0282 -0.2047
20118W        W35927   9.532   1.287   2.127  0.0728 -0.3671 -0.4388
20119W        W35928  14.747   4.628   5.240  0.1032  0.0382  0.1035
20120W        W35929   8.642   3.659  15.294 -0.0960  0.0898 -0.0331
20121W        W35930   4.144  15.148  14.180 -0.0637  0.5679 -0.1724
20122W        W35931  10.946   2.383  11.255 -0.1150  0.2713 -0.3906
20123W        W35932  13.186   9.141   1.734 -0.0724  0.1418  0.2126
20124W        W35933   9.436  10.903  15.403 -0.1618 -0.2187  0.0097
20125W        W35934  13.990  13.073  13.513  0.0089 -0.0726  0.0961
20126W        W35935   2.599   8.409   5.359  0.3929  0.1977  0.0030
20127W        W35936   4.353  14.517  12.080  0.2223  0.1926 -0.3471
20128W        W35937   9.855  15.743   0.325 -0.1439  0.1344  0.4593
20129W        W35938  11.332   3.342  11.383  0.1122 -0.1189 -0.2800
20130W        W35939   9.063   7.865   1.783  0.0737  0.1017  0.2617
20131W        W35940  13.537   8.348   3.969  0.2045  0.3044  0.2281
20132W        W35941  15.756  13.459   4.823 -0.1498 -0.2422  0.2193
20133W        W35942  16.192   6.548  11.217 -0.0422 -0.3801  0.1546
20134W        W35943   6.305  16.062   4.999  0.0698 -0.0397 -0.0447
20135W        W35944  11.682   8.463   3.232 -0.0129  0.2427  0.0837
20136W        W35945  13.610  15.214   3.605 -0.1769 -0.0144 -0.0868
20137W        W35946  10.958   4.384  14.712  0.0191  0.1692 -0.1375
20138W        W35947   0.543  14.791   0.102 -0.1400 -0.4221  0.0278
20139W        W35948   0.912  17.048  14.218  0.1065 -0.2744 -0.3037
20140W        W35949   0.360   9.903  13.178 -0.1574 -0.0439  0.0922
20141W        W35950  11.120   2.324   0.208  0.0868 -0.1211 -0.0337
20142W        W35951  18.141   6.957  10.187 -0.1440 -0.1068  0.1728
20143W        W35952   6.790   6.704  12.948 -0.0962 -0.0328 -0.1113
20144W        W35953   1.580   7.501  14.606 -0.1560 -0.0868 -0.0422
20145W        W35954   9.469   1.673  11.148  0.0424 -0.0500  0.0836
20146W        W35955  15.574  18.583  15.276 -0.2299  0.2132  0.3539
20147W        W35956   9.082  12.524   2.537  0.1786 -0.5446  0.0968
20148W        W35957  18.586  16.752   2.545 -0.0897  0.2645  0.2363
20149W        W35958   2.929  16.182   2.772 -0.2685 -0.4759  0.0245
20150W        W35959  13.946   3.137  12.233 -0.2493 -0.0035 -0.1051
20151W        W35960   3.832   1.318  14.301  0.1343  0.0727 -0.2973
20152W        W35961   8.643  16.218  15.336 -0.1064 -0.0180 -0.3366
20153W        W35962  13.020  17.197   0.247  0.0950 -0.1807 -0.1029
20154W        W35963  13.910  11.200   4.932  0.0103 -0.0184 -0.0099
20155W        W35964   1.719  16.573  13.066 -0.0910  0.1008  0.0704
20156W        W35965  13.542   7.267   0.853  0.2790  0.3269 -0.1750
20157W        W35966  17.231   6.391   3.435  0.0989 -0.1024  0.1295
20158W        W35967   5.807  14.356   1.109 -0.0647  0.2750  0.0778
20159W        W35968  17.801   3.489  10.542  0.1106  0.0600 -0.3282
20160W        W35969  14.939   7.191   1.269 -0.1116 -0.0262 -0.0379
20161W        W35970   0.480  14.528  11.714  0.3369  0.3717  0.0597
20162W        W35971   5.385  17.669   2.305 -0.1243 -0.4678  0.1110
20163W        W35972   9.026   8.427  15.407 -0.0283  0.1199 -0.0915
20164W        W35973   9.243   0.420   2.782  0.0067  0.1177  0.1664
20165W        W35974  17.736   3.985  15.413  0.0180  0.1679 -0.2172
20166W        W35975  16.131  14.547  10.745  0.1129  0.1457 -0.3385
20167W        W35976   8.394  16.360   3.799  0.2254  0.0458 -0.1761
20168W        W35977   4.013   6.818   3.128 -0.3250  0.0190  0.2129
20169W        W35978  17.442   0.033   5.101 -0.3834  0.0195 -0.1022
20170W        W35979   6.521  15.679  10.363 -0.1202 -0.0614  0.4290
20171W        W35980   5.050   3.119   1.786 -0.0974  0.0197 -0.0836
20172W        W35981   3.724   6.289  12.994  0.1940 -0.1071  0.1220
20173W        W35982  11.553  15.358   5.339 -0.1040 -0.0934 -0.2742
20174W        W35983  16.476   0.924   3.659 -0.1775 -0.1993  0.3831
20175W        W35984   7.719  17.689   5.464 -0.1030 -0.1021  0.3258
20176W        W35985   8.774  10.245  12.668  0.1821 -0.0070  0.0616
20177W        W35986  13.784   8.626   4.301  0.3434  0.0944 -0.4287
20178W        W35987   6.398  12.296   2.877 -0.1606 -0.1031 -0.0125
20179W        W35988   5.085  18.662   1.349  0.1297  0.2320 -0.3703
20180W        W35989  13.226   4.501  11.326 -0.1214  0.1415 -0.2261
20181W        W35990   2.270   1.387  11.753 -0.2379  0.2233 -0.0243
20182W        W35991  17.725   4.842   1.275 -0.1281  0.2481 -0.4422
20183W        W35992   1.919  14.454  14.051 -0.3818  0.1977  0.0558
20184W        W35993  11.406   3.094   1.280  0.1140  0.0197  0.1032
20185W        W35994   3.400   8.394   1.761  0.0537  0.0595  0.0732
20186W        W35995  15.270   7.148   3.834  0.3204 -0.1331 -0.0713
20187W        W35996   2.125   2.484  10.391 -0.0808  0.2198  0.2163
20188W        W35997   8.572   7.853   1.543 -0.0920 -0.1103 -0.0723
20189W        W35998   3.842   5.160   4.513  0.2155  0.2195  0.0079
20190W        W35999  10.202   0.693  12.274 -0.1625  0.2794  0.0501
20191W        W36000  15.284   8.079  12.250  0.1037 -0.3189 -0.0641
20192W        W36001  10.273   1.666   5.649  0.0212  0.1757  0.2297
20193W        W36002  14.621  13.830  15.523  0.2303  0.0122 -0.0321
20194W        W36003   9.482  10.116   2.766 -0.0021  0.0058  0.1478
20195W        W36004   3.312  15.290   9.859 -0.2796  0.1167 -0.1747
20196W        W36005   2.919  15.842   0.203  0.1937 -0.1653 -0.0157
20197W        W36006  12.397  12.934  12.678  0.0807 -0.3179  0.0685
20198W        W36007  10.356   2.331  15.442  0.1879  0.1630  0.2790
20199W        W36008  16.053   5.557   1.352 -0.3163 -0.0498  0.1608
20200W        W36009  17.465  10.437  11.584  0.1508 -0.2033  0.0092
20201W        W36010  18.396   9.674  12.147  0.1248 -0.2585 -0.3705
20202W        W36011  10.083   5.053   4.605  0.1257 -0.1770  0.5247
20203W        W36012   6.393   0.666  11.855 -0.1182 -0.0393  0.1377
20204W        W36013  11.189   5.201   2.953  0.0562  0.1107  0.0426
20205W        W36014  13.645  16.742  11.899  0.3600  0.0095  0.0032
20206W        W36015  13.442  15.289  12.597 -0.0860  0.2790 -0.3716
20207W        W36016   1.878  17.419  11.983 -0.0797  0.0434  0.0410
20208W        W36017  16.635   8.074   5.120 -0.0548  0.0888 -0.1175
20209W        W36018  18.109  17.704   5.142 -0.0033  0.1534  0.0156
20210W        W36019   6.866  13.986   4.599  0.0543  0.1023 -0.0441
20211W        W36020   8.122  17.261   6.195 -0.0880 -0.0215 -0.0411
20212W        W36021   0.906   2.554   4.873 -0.1208 -0.2514  0.0610
20213W        W36022  11.312  10.851  15.441 -0.1911 -0.1716  0.2159
20214W        W36023   6.808  17.935  11.289  0.1862  0.2114 -0.0340
20215W        W36024  14.942  15.250  11.443 -0.0042 -0.1761  0.0866
20216W        W36025  13.896  13.371   0.412  0.0028  0.0581  0.1583
20217W        W36026  15.570  14.019   2.120  0.1388 -0.1101  0.0635
20218W        W36027   4.724  15.889   2.122 -0.1006 -0.0146 -0.3488
20219W        W36028  14.692   6.309  13.232  0.0596  0.0533 -0.3897
20220W        W36029  13.207   6.502   2.009 -0.2064 -0.2175  0.0877
20221W        W36030  13.216  18.017  13.432  0.1465  0.1596  0.4344
20222W        W36031   9.366   4.811  12.457 -0.0915  0.0317 -0.0060
20223W        W36032  10.931  15.810  10.319 -0.2237 -0.0587 -0.3308
20224W        W36033   5.759   2.019  10.166 -0.2243  0.2299  0.1551
20225W        W36034  14.545  11.098  14.400  0.1920 -0.3747 -0.0897
20226W        W36035   8.522  17.900   4.312 -0.1789 -0.1318  0.0222
20227W        W36036   8.210   3.221  11.293  0.2365 -0.1024  0.1260
20228W        W36037  10.239   1.138   1.629  0.1244 -0.0973  0.3682
20229W        W36038  15.884   6.000   4.789 -0.0478 -0.0504  0.1341
20230W        W36039   3.900  14.957   3.128 -0.3693 -0.1871  0.0188
20231W        W36040   5.157  15.571  11.804 -0.0084 -0.1320 -0.1906
20232W        W36041  17.627   6.958  13.338  0.0258  0.0774 -0.0355
20233W        W36042  17.408   5.675  10.453  0.1869  0.3380 -0.2321
20234W        W36043  12.814   2.271   2.309 -0.0977 -0.0318  0.1015
20235W        W36044  10.119  10.435   5.064  0.0426 -0.2264 -0.1122
20236W        W36045   8.526   5.336   3.252 -0.5776  0.0260  0.0407
20237W        W36046  11.057  11.910  14.044  0.1573  0.0147  0.2202
20238W        W36047   5.601   2.284   5.294 -0.1348 -0.2466  0.0073
20239W        W36048   7.597   3.538   1.102 -0.1907 -0.1713  0.0125
20240W        W36049   3.855  16.627  12.370 -0.0735 -0.2664 -0.0145
20241W        W36050   8.560  17.731   5.506  0.1144 -0.1831 -0.1215
20242W        W36051   0.191  13.201   3.921 -0.1948  0.0077  0.0091
20243W        W36052  16.999   9.964  11.522 -0.3380  0.1858 -0.1908
20244W        W36053  10.916  10.128  12.509 -0.2997 -0.1438  0.0168
20245W        W36054   6.294   7.668   5.044  0.1120  0.0749 -0.0768
20246W        W36055  13.022   5.465  12.071 -0.1411  0.0312  0.0380
20247W        W36056  13.859   6.994  11.582 -0.2427  0.1032  0.0549
20248W        W36057  10.904  17.793  15.594  0.2343  0.3348  0.0540
20249W        W36058   6.494   1.481   1.687  0.3828 -0.1604 -0.2454
20250W        W36059  16.516  16.023   6.004 -0.1023  0.2408  0.2587
20251W        W36060  17.482   4.579  10.727  0.0947 -0.0175 -0.2121
20252W        W36061  14.504  10.225   4.056 -0.0669 -0.2043  0.0545
20253W        W36062   3.738  18.335   1.246  0.1721  0.1015  0.2197
20254W        W36063  14.124   8.925   4.148  0.0721 -0.1552 -0.1525
20255W        W36064   6.753   5.105   4.803 -0.1122 -0.0162  0.0252
20256W        W36065   8.232   9.614  12.908 -0.5561  0.0491  0.0676
20257W        W36066   4.033   6.568  14.760 -0.1755 -0.1015 -0.2469
20258W        W36067  10.901   3.098  11.391  0.2438  0.2307  0.1764
20259W        W36068  11.666   8.627  11.213 -0.2342  0.0635 -0.1127
20260W        W36069   6.431   2.088  14.231 -0.0978 -0.3726 -0.1025
20261W        W36070   9.108   6.890  10.010  0.0085 -0.2214  0.4576
20262W        W36071  16.207  12.022   4.372  0.4625 -0.0754  0.1642
20263W        W36072  17.100  13.609   0.111 -0.1024  0.2015  0.1201
20264W        W36073   8.498   7.061   4.486 -0.1432  0.1351  0.0810
20265W        W36074   3.379  11.000  12.414 -0.0119 -0.2184 -0.3294
20266W        W36075   4.447   2.390   5.931 -0.1304  0.0310 -0.1525
20267W        W36076  17.859  18.043   5.511 -0.1196 -0.0117  0.0461
20268W        W36077   2.906  13.335   0.205  0.0642  0.2716 -0.0285
20269W        W36078   2.320  14.394   1.458  0.1115  0.2338  0.0396
20270W        W36079   7.756   7.672   5.415 -0.0114 -0.0309 -0.1908
20271W        W36080  18.506   4.678   0.250 -0.2970  0.1701  0.0785
20272W        W36081   0.660  18.381   2.028  0.0639  0.2226 -0.1934
20273W        W36082  18.148   6.051   2.091 -0.0794  0.0041 -0.0315
20274W        W36083  17.698   4.912   1.736 -0.2740  0.0212 -0.1314
20275W        W36084   3.802  18.175   5.124 -0.2113 -0.0885 -0.1834
20276W        W36085   5.610  14.847  11.871 -0.2871 -0.0502 -0.3797
20277W        W36086   6.637   6.329  14.325  0.1464 -0.0621 -0.0887
20278W        W36087   9.058   1.595   4.944 -0.2113 -0.1081 -0.0721
20279W        W36088  12.330   7.317   4.346 -0.0568  0.0241 -0.1429
20280W        W36089  14.514  16.649  12.466 -0.0644 -0.1066 -0.0696
20281W        W36090  10.309   0.111   3.326  0.1896 -0.1715  0.0267
20282W        W36091  15.062  15.741  12.317 -0.3210  0.1038 -0.0624
20283W        W36092   2.164   4.039  11.863  0.0087  0.0022  0.2852
20284W        W36093  17.936   8.826  13.694 -0.1562  0.0471  0.1759
20285W        W36094   7.567   8.929  11.486 -0.0113 -0.0325  0.0828
20286W        W36095   5.122  16.694   4.225  0.2757  0.0667  0.0546
20287W        W36096  18.469  18.538   2.408 -0.0280 -0.1321 -0.0567
20288W        W36097   8.508   4.268  11.039  0.0335 -0.0805 -0.2215
20289W        W36098   4.356  18.397   2.846  0.0781 -0.1304  0.2034
20290W        W36099   0.202  18.052   1.000 -0.1190 -0.1294  0.0534
20291W        W36100   0.080  14.699   3.228  0.1710 -0.1209 -0.1573
20292W        W36101  10.393  15.548   0.609  0.0450  0.2392 -0.0200
20293W        W36102  12.055   6.668   4.965  0.0311  0.4358  0.2373
20294W        W36103   5.911   8.765   2.542  0.0787 -0.1410  0.0173
20295W        W36104   0.078  15.634   1.668  0.1497 -0.1689 -0.3490
20296W        W36105  14.417   8.738   5.762 -0.1161  0.1821 -0.1730
20297W        W36106   4.350  11.536  14.338 -0.2841  0.0620  0.1322
20298W        W36107  12.626   2.745  11.643  0.0430 -0.0078 -0.2144
20299W        W36108  17.864  13.504   1.779 -0.2522  0.2031 -0.0075
20300W        W36109  12.981  10.574   4.259  0.0715 -0.0165  0.1001
20301W        W36110  14.498  15.128   3.796  0.2143 -0.1102 -0.3110
20302W        W36111  14.429   5.891   1.016 -0.2252 -0.0337 -0.0316
20303W        W36112   7.815  10.905   4.048  0.2272  0.2362 -0.2815
20304W        W36113  12.587   9.108   0.924  0.1832  0.1297 -0.0096
20305W        W36114   2.652  14.252   2.423  0.0978  0.1284 -0.2211
20306W        W36115   9.962   7.298   4.398 -0.2301 -0.0418  0.0873
20307W        W36116  16.339   1.465  14.990 -0.0697 -0.1152 -0.2774
20308W        W36117   6.123   8.843  10.953 -0.1118 -0.1551  0.1922
20309W        W36118   9.514   2.799  15.368  0.3214  0.4300  0.2587
20310W        W36119  17.761   0.477   4.947 -0.0184  0.3002 -0.1656
20311W        W36120  16.083  17.263   1.953 -0.0123  0.0458 -0.0608
20312W        W36121   6.508   7.005  12.593  0.0524  0.2596 -0.1219
20313W        W36122  12.680   1.480   0.399 -0.0068  0.0808 -0.2698
20314W        W36123  11.293  16.823   4.550  0.0757  0.0792 -0.0499
20315W        W36124  15.594  17.904  13.953  0.0352 -0.1280 -0.1950
20316W        W36125   3.776   8.108  11.072  0.0659  0.1824  0.1231
20317W        W36126  12.561   4.876   1.526 -0.2319  0.1253 -0.3002
20318W        W36127  10.706  13.467  14.696  0.1701 -0.1079  0.2704
20319W        W36128   6.704  14.903   4.933  0.3065 -0.1096  0.1980
20320W        W36129   8.469   4.546  12.898 -0.1439 -0.0091  0.0591
20321W        W36130   8.086  11.582   2.825 -0.0646 -0.0381 -0.1320
20322W        W36131  18.454  18.166  10.512 -0.0336 -0.1881  0.1593
20323W        W36132  13.254  13.911  14.969 -0.3754  0.0372  0.0189
20324W        W36133   7.278   9.518   1.110 -0.0604  0.3111  0.1213
20325W        W36134  16.136  18.233  14.462 -0.0260  0.0783 -0.3262
20326W        W36135  10.609   7.540   2.244  0.2226 -0.1096  0.3551
20327W        W36136   5.615  18.576  12.640 -0.1163  0.0156 -0.4518
20328W        W36137   8.830   2.462  11.155  0.1932  0.2507 -0.0916
20329W        W36138   6.851   4.313  12.789 -0.1184 -0.2881  0.3432
20330W        W36139   6.247   5.503  11.969 -0.0901 -0.0451 -0.0275
20331W        W36140   4.357  14.531   4.721 -0.0899 -0.1038 -0.0007
20332W        W36141   7.884   2.308   5.622 -0.2886  0.0607  0.1343
20333W        W36142   2.657   7.392  10.577  0.0646 -0.0826  0.0783
20334W        W36143   2.502  16.013  15.568 -0.0662  0.2646  0.1479
20335W        W36144   5.573   1.463  13.320 -0.1807 -0.2810 -0.0952
20336W        W36145   0.855  14.184  10.789 -0.3126  0.0893 -0.0538
20337W        W36146   3.172  15.353   4.597  0.3279 -0.2293  0.1969
20338W        W36147   5.413   4.186  15.281 -0.1928  0.1457 -0.3294
20339W        W36148  10.497   9.847  13.586  0.0785  0.0225  0.3269
20340W        W36149  17.278   4.472   5.370  0.0216  0.0875  0.0886
20341W        W36150  15.777  10.739   1.901 -0.0671 -0.1262 -0.1123
20342W        W36151   0.415  14.060   4.605 -0.0009  0.1288  0.1808
20343W        W36152  14.919   2.306   1.347  0.0137 -0.4261  0.1009
20344W        W36153  18.074   3.914  10.681  0.0633  0.1442  0.0853
20345W        W36154   4.645   6.469  13.460  0.2546  0.4320  0.0422
20346W        W36155   5.335   0.200   4.253  0.2819  0.1842 -0.0785
20347W        W36156  13.279  18.254   5.668  0.1656  0.0410 -0.1342
20348W        W36157  10.063  14.173  13.571 -0.1536  0.0859  0.4029
20349W        W36158  14.181  11.916  11.218  0.0212 -0.2434 -0.0587
20350W        W36159   5.052  10.359   2.658  0.2113  0.1286 -0.0236
20351W        W36160   7.498   3.714   0.102 -0.2324 -0.0380  0.2560
20352W        W36161   9.873   9.460   1.661 -0.1016  0.2879 -0.1613
20353W        W36162  13.620   3.931   3.806  0.2237 -0.2486 -0.0461
20354W        W36163   4.976  10.226   3.921 -0.0435  0.2036 -0.1832
20355W        W36164   3.077   3.491  12.852  0.1084 -0.0433 -0.2578
20356W        W36165  16.406   3.361   1.305 -0.1163  0.3734 -0.2333
20357W        W36166  12.724   0.101  12.155 -0.2532 -0.0182 -0.1367
20358W        W36167   6.254  12.596   2.388  0.2274 -0.1877  0.1126
20359W        W36168  16.095   5.103  10.993  0.2783  0.1720  0.3731
20360W        W36169  10.796   3.205  12.432 -0.0499 -0.1235  0.3289
20361W        W36170   3.642  11.158   4.029  0.2629  0.2921 -0.1056
20362W        W36171  13.687   4.915  14.906  0.1501  0.1986  0.1445
20363W        W36172  10.436  14.233  12.636 -0.0257 -0.1349 -0.1045
20364W        W36173  18.295  17.207  10.364 -0.2713  0.0047  0.0134
20365W        W36174   7.887   4.349  10.992 -0.1324  0.2146  0.1781
20366W        W36175  13.727   0.802  14.661 -0.0723 -0.0717 -0.0854
20367W        W36176   2.331  10.027   3.721 -0.1480  0.2468  0.0772
20368W        W36177   0.759   8.837   1.025  0.0272  0.0429  0.0885
20369W        W36178   3.633   1.412  14.791 -0.1064 -0.2555 -0.1000
20370W        W36179  17.459   7.098   1.102 -0.0459  0.2014  0.0257
20371W        W36180  14.010  15.730   0.429  0.3739 -0.2420 -0.4475
20372W        W36181   0.613   2.479  13.756 -0.1165  0.1929  0.0667
20373W        W36182   4.580   6.635  10.932 -0.0689 -0.1308 -0.2389
20374W        W36183  16.454  15.856   1.817  0.2849  0.3855 -0.2344
20375W        W36184  17.436  11.740  13.379 -0.2192  0.3035  0.0909
20376W        W36185   5.227   8.211   5.210  0.0594 -0.3592 -0.0836
20377W        W36186   8.870   2.518   3.461 -0.1626  0.1061  0.1178
20378W        W36187   9.921  12.202   4.102 -0.2284 -0.1593 -0.1005
20379W        W36188   1.644  16.090   1.834 -0.0662 -0.0594 -0.1615
20380W        W36189   3.094   2.799   1.947  0.0716 -0.0112 -0.1885
20381W        W36190  10.943  15.510  12.483 -0.0585 -0.0920 -0.1047
20382W        W36191   1.237   9.888  13.633  0.2683  0.1015 -0.0457
20383W        W36192  11.746   1.610  13.037 -0.2872  0.0457 -0.2027
20384W        W36193   5.468  11.461  11.709 -0.0249  0.1885 -0.0346
20385W        W36194   4.118  12.662  14.326 -0.1783  0.0459  0.1443
20386W        W36195  13.311   1.032  14.328 -0.1601 -0.2116 -0.0940
20387W        W36196  16.543  16.630  15.358  0.0425  0.1626 -0.1077
20388W        W36197  16.070   3.697  11.400 -0.2903 -0.0485  0.1834
20389W        W36198   7.805  13.926  12.331 -0.3588  0.2100  0.1117
20390W        W36199   7.141   0.294   1.466 -0.0275  0.0984 -0.1624
20391W        W36200  11.176   7.973   0.783  0.2983 -0.0397 -0.2443
20392W        W36201  11.510  10.840   3.146  0.1694 -0.1567 -0.2917
20393W        W36202  12.430  13.668   1.164 -0.4285 -0.0705 -0.1597
20394W        W36203  10.969  16.832   3.359  0.3436  0.0126  0.3812
20395W        W36204   2.714   6.028   0.495  0.1908  0.0380  0.0863
20396W        W36205   6.925   0.639  11.964 -0.2000  0.0884  0.0127
20397W        W36206   9.637   4.373  11.166  0.1718  0.1255  0.2374
20398W        W36207   1.056   1.043   4.161 -0.1685 -0.1567 -0.2835
20399W        W36208  11.503   5.673   4.153  0.1229 -0.1495 -0.0724
20400W        W36209   3.174   5.605  14.059  0.0692 -0.1241 -0.0537
20401W        W36210   6.577  16.631  15.441  0.0796  0.2382 -0.2845
20402W        W36211  17.168   0.290  14.089  0.1271  0.4569  0.2023
20403W        W36212   8.005  16.155  13.082 -0.1912 -0.1050  0.1397
20404W        W36213   1.720   6.638  11.808 -0.5492 -0.0119 -0.0157
20405W        W36214   2.412   9.679   2.369  0.1426  0.0597  0.4475
20406W        W36215  11.210  14.201  14.842 -0.0564  0.0206 -0.0873
20407W        W36216  11.031   8.122   3.861 -0.2136  0.2099 -0.2347
20408W        W36217  10.432   4.014   1.718  0.2082 -0.1365 -0.0745
20409W        W36218  18.209  14.089  14.292  0.0943  0.3874 -0.2246
20410W        W36219   5.257   1.190   5.805 -0.0349 -0.1743  0.3290
20411W        W36220   5.211   4.058  13.002 -0.2317 -0.0893  0.0874
20412W        W36221  17.925   6.481   4.217 -0.0367  0.0953  0.0558
20413W        W36222  12.928   9.748   4.466  0.0958  0.4025  0.2542
20414W        W36223   2.600   2.723  11.772 -0.0016  0.0120 -0.0736
20415W        W36224  11.897  14.953  13.826  0.1320 -0.0078 -0.0180
20416W        W36225  10.216   0.741   5.023 -0.0600  0.3087  0.1575
20417W        W36226  11.731   9.404  13.550  0.1304  0.2156 -0.0289
20418W        W36227   3.828  12.110   2.072  0.0594  0.0672  0.0541
20419W        W36228   7.197   7.015   0.360 -0.0585 -0.2724 -0.2961
20420W        W36229  13.392   7.364  14.295 -0.0994 -0.1499  0.3678
20421W        W36230  18.594   9.873  11.228  0.0041 -0.2327 -0.0676
20422W        W36231  17.752   2.838  14.449  0.3408 -0.1674  0.2963
20423W        W36232   8.836  12.096  14.682 -0.0714 -0.1778 -0.0363
20424W        W36233  17.837   7.001   4.360  0.0265 -0.0393  0.1168
20425W        W36234  11.906  11.935  13.557  0.2380 -0.0640  0.2044
20426W        W36235   6.696   1.218   3.512 -0.3227 -0.0436 -0.1804
20427W        W36236  13.008  16.392   4.451 -0.0777  0.1311 -0.3116
20428W        W36237   5.192  10.457   0.628 -0.1076  0.1142 -0.0904
20429W        W36238  18.552  13.831   1.194 -0.0532 -0.1629  0.3030
20430W        W36239  17.806  11.629  13.773  0.0228  0.0415  0.0444
20431W        W36240   8.539   5.579  14.423  0.3190 -0.0815  0.1624
20432W        W36241  15.702  14.661  14.324 -0.1820  0.0951  0.0549
20433W        W36242  15.095   8.945   3.646  0.1090 -0.1678 -0.1309
20434W        W36243   6.205   1.896  10.864 -0.0148  0.2423  0.0496
20435W        W36244  12.796  11.309   5.555 -0.2378  0.1810  0.1905
20436W        W36245   6.587   5.915  11.873 -0.1901  0.0297  0.0609
20437W        W36246  17.020   7.617  12.308  0.0689  0.0173 -0.0330
20438W        W36247   2.493   4.934  13.692 -0.0828 -0.1822  0.1911
20439W        W36248  17.036   0.449  12.443 -0.0011  0.0887  0.0876
20440W        W36249  13.693  12.382   5.504  0.1389  0.0944  0.0285
20441W        W36250   2.692   5.986  10.707 -0.2015 -0.0293  0.2827
20442W        W36251   3.161  10.821  10.635 -0.3561 -0.3929  0.3027
20443W        W36252  17.394   0.061  13.622  0.0694 -0.0568  0.0409
20444W        W36253   7.988  11.437  11.465 -0.0274 -0.0749  0.1880
20445W        W36254   4.359  16.548   1.174 -0.2544 -0.1582  0.2176
20446W        W36255   7.688   8.459   4.946 -0.2785  0.2775 -0.0027
20447W        W36256   8.100  15.234   3.744 -0.0080  0.4667 -0.1705
20448W        W36257   4.244   6.662   2.324 -0.1664 -0.0733  0.3422
20449W        W36258  18.171   3.706   2.013  0.0208 -0.0957 -0.1274
20450W        W36259   4.467   8.507   1.418  0.0515 -0.3407 -0.0431
20451W        W36260  10.395   7.481   1.725 -0.0148 -0.0533 -0.3123
20452W        W36261  17.301   3.242  12.237 -0.3128 -0.1737  0.0885
20453W        W36262   2.063   9.151   4.812  0.1988  0.1511  0.0151
20454W        W36263   0.278   5.090  14.964  0.3589 -0.2450  0.2763
20455W        W36264   1.646  11.270   0.137  0.4117 -0.1943  0.1997
20456W        W36265  10.972   9.995   0.217 -0.2468  0.0148 -0.1580
20457W        W36266  14.048   9.559  14.920 -0.0477  0.0431 -0.1137
20458W        W36267   6.938  16.470  14.562  0.0368 -0.1274  0.0813
20459W        W36268  10.058   7.582   0.213  0.0069  0.0830 -0.2702
20460W        W36269  15.469  11.253   9.863  0.3984  0.1402  0.2769
20461W        W36270  11.690   9.480  11.213  0.0141  0.3241 -0.3379
20462W        W36271   9.552   2.590  11.522  0.3178 -0.0172 -0.0504
20463W        W36272  17.337  13.001  14.465 -0.0390 -0.2912  0.2352
20464W        W36273   1.228  15.646   3.640 -0.0065 -0.1057 -0.0674
20465W        W36274   6.256   6.995  12.084  0.0878 -0.0486  0.3229
20466W        W36275   0.168  18.421   1.820  0.1668 -0.0381  0.0498
20467W        W36276   6.209  17.024  12.787 -0.0413 -0.3751 -0.0413
20468W        W36277   0.855   4.939  11.679 -0.4930 -0.1367 -0.0829
20469W        W36278  10.415  14.905  12.038 -0.0749  0.2678 -0.3912
20470W        W36279  13.261   3.133   4.751 -0.0495  0.0690  0.2415
20471W        W36280   2.928  16.058   9.773  0.3350  0.2028 -0.1900
20472W        W36281   3.387   7.147   9.117 -0.2738 -0.1383  0.0259
20473W        W36282  12.248  11.797   2.267 -0.1475  0.0383 -0.0464
20474W        W36283  12.816  11.312  11.556 -0.1566 -0.0517  0.1566
20475W        W36284   1.485  18.616   5.032 -0.1128  0.3141 -0.1958
20476W        W36285  10.149   3.421   5.031  0.0294  0.0505 -0.0853
20477W        W36286  11.947   1.436  14.390  0.1413  0.0419 -0.1339
20478W        W36287  15.457  14.595  12.510 -0.0030  0.0268 -0.2459
20479W        W36288  13.012  10.551  12.871  0.2041  0.0700  0.2117
20480W        W36289   2.408   1.557  15.160 -0.1098 -0.4270  0.0957
20481W        W36290  11.811   4.750   4.603  0.1634 -0.1321  0.1803
20482W        W36291   5.717  15.577  11.416  0.0278 -0.0626 -0.0089
20483W        W36292  17.351   3.097  11.757  0.0441 -0.1906 -0.0346
20484W        W36293   7.325   5.601  12.509 -0.0779 -0.0093 -0.0070
20485W        W36294  15.365  10.152  13.679  0.1994 -0.0531  0.1810
20486W        W36295   8.511  12.326   2.352  0.2619  0.2686  0.1417
20487W        W36296  17.155   3.358  10.313 -0.1534 -0.0661 -0.2182
20488W        W36297   1.820  14.889   5.289  0.1371 -0.0960  0.2746
20489W        W36298  11.693   0.429   4.569  0.2520  0.0370  0.1613
20490W        W36299  18.024   1.503   3.448  0.0238  0.0778  0.1633
20491W        W36300  17.294   7.754   2.897 -0.2019 -0.1907  0.0490
20492W        W36301  16.960  15.034   2.811  0.3632  0.0642  0.1529
20493W        W36302   7.090  17.641   3.077  0.1786  0.3703 -0.0516
20494W        W36303   8.191  16.553   1.705 -0.0175  0.4990  0.0267
20495W        W36304   7.287  13.524   0.651 -0.2402 -0.3915 -0.1286
20496W        W36305  16.146  10.699  12.981 -0.0811 -0.2054 -0.1481
20497W        W36306   2.859   1.119  12.680 -0.1051 -0.1592  0.2280
20498W        W36307   6.344   6.159   3.684 -0.1495 -0.0526 -0.0570
20499W        W36308  17.088   4.370   0.842  0.2897 -0.1881  0.1628
20500W        W36309   5.445  13.275  13.442 -0.1047  0.3229  0.1608
20501W        W36310  12.733   8.762  13.012  0.0800 -0.2481 -0.2836
20502W        W36311   8.003  14.863   5.347  0.1227  0.1436  0.0885
20503W        W36312   8.306   1.805   1.984  0.2086  0.1419  0.0227
20504W        W36313   9.843   1.576  15.546  0.0159  0.1311  0.0519
20505W        W36314   6.427  12.169   1.993 -0.0732  0.2321  0.0401
20506W        W36315   6.748   9.740   3.176 -0.1320  0.0948 -0.0662
20507W        W36316   4.636   8.445  14.483  0.0614 -0.3178  0.1219
20508W        W36317   4.117   5.996   1.127 -0.0297 -0.0536 -0.0689
20509W        W36318   0.736   9.000   1.716  0.0561  0.0029 -0.1020
20510W        W36319  12.825   2.011   4.851 -0.1621  0.0119 -0.0258
20511W        W36320   1.463   3.394  12.093 -0.2887 -0.3106 -0.0786
20512W        W36321  12.784  16.975  11.764 -0.1570  0.1640 -0.0585
20513W        W36322   9.080  13.302   3.506  0.3508  0.1254 -0.3519
20514W        W36323  15.980   5.991  12.713 -0.0238 -0.0947  0.1641
20515W        W36324  14.260   2.435  11.500  0.0954  0.1367  0.0008
20516W        W36325   8.215   2.087   2.894 -0.0248  0.0508  0.0518
20517W        W36326  11.624  14.245   0.905  0.2001 -0.1469 -0.1636
20518W        W36327  16.091  18.659   4.190 -0.0154  0.1237  0.0671
20519W        W36328  18.157  14.540   2.408 -0.1069 -0.2384 -0.0345
20520W        W36329   9.122   9.183   2.885  0.0709 -0.4558  0.1548
20521W        W36330  14.848  10.893   3.592 -0.2647  0.2383 -0.1125
20522W        W36331  13.523  14.771  15.451  0.4949  0.1958  0.1832
20523W        W36332  12.547   2.778   5.281  0.0682  0.1701 -0.1852
20524W        W36333  10.007  17.457   2.116 -0.1007  0.2938  0.3569
20525W        W36334  18.122   3.656  12.902  0.0925  0.2131  0.1496
20526W        W36335   0.255  10.357  15.422  0.1352 -0.2427 -0.2029
20527W        W36336   0.632  12.764   0.088 -0.1170  0.1513  0.1159
20528W        W36337   1.886  13.001   1.390  0.0907 -0.1746 -0.2663
20529W        W36338  13.640   9.125   5.237  0.0715  0.0203  0.3093
20530W        W36339   4.436   6.813   0.516  0.2193  0.0087  0.0247
20531W        W36340   4.123  12.219  15.529 -0.1356 -0.1368  0.0915
20532W        W36341  14.405  12.540   0.032 -0.0713 -0.1276 -0.0520
20533W        W36342   4.620   7.174  13.894 -0.0610  0.2941  0.1131
20534W        W36343   6.448  18.450  10.736 -0.2126  0.2090  0.1465
20535W        W36344  12.044   7.284   1.600  0.0276 -0.0020  0.4677
20536W        W36345   5.666   0.926  13.240 -0.2649  0.1607 -0.0969
20537W        W36346  14.022   3.065   4.142  0.1220 -0.1674  0.1048
20538W        W36347   2.284  10.843  14.736  0.1965  0.1250  0.1692
20539W        W36348  14.602   7.011   0.376 -0.3793 -0.1725  0.0360
20540W        W36349  17.364   8.411   0.826  0.0964 -0.0994  0.3667
20541W        W36350   4.080   9.950   1.769 -0.0527  0.0536 -0.0317
20542W        W36351  16.525  13.114  12.281  0.1473  0.4102  0.0660
20543W        W36352  17.749  10.273  13.545 -0.0105 -0.0455 -0.0375
20544W        W36353   7.280  14.738  14.598  0.2298 -0.2338 -0.2630
20545W        W36354  13.960   9.340   1.296  0.0566 -0.0770 -0.3684
20546W        W36355   6.275   0.151   1.049  0.1071 -0.0703 -0.0999
20547W        W36356   4.799  12.415   3.636 -0.0266 -0.1570 -0.0843
20548W        W36357  12.654  17.292  13.803  0.2992  0.2377  0.0626
20549W        W36358  18.482   2.982  13.003  0.1151 -0.0791  0.4945
20550W        W36359   1.794   7.916  13.813 -0.0777  0.0411  0.1295
20551W        W36360  17.919   8.567  11.009 -0.2872  0.0824 -0.0597
20552W        W36361  14.302  13.233  13.142 -0.1528  0.1171 -0.0668
20553W        W36362   0.913   3.416   0.484 -0.0931  0.1090  0.1341
20554W        W36363   9.345   0.040  11.908  0.0325 -0.0485  0.1000
20555W        W36364  14.410  15.643   3.261 -0.2324  0.3905  0.0881
20556W        W36365   6.538  13.041   4.127  0.1598 -0.0660  0.1953
20557W        W36366   0.851   6.777   0.855  0.2165 -0.1013 -0.1200
20558W        W36367  13.387   9.793  11.705  0.0090 -0.0234  0.3492
20559W        W36368   3.841   2.509  11.400 -0.1111  0.1034 -0.0437
20560W        W36369   5.095  15.908   1.822  0.0504 -0.2858  0.2905
20561W        W36370   1.873   1.618  11.566  0.1032 -0.0132 -0.3114
20562W        W36371  12.958   8.172   3.617  0.2176 -0.0165  0.0068
20563W        W36372  15.450   7.927  10.628 -0.1646 -0.0447  0.5943
20564W        W36373   8.663   5.380  15.212  0.1152 -0.0196 -0.1513
20565W        W36374   6.528  14.043   3.989  0.1425  0.1780  0.0187
20566W        W36375  13.095   6.812  15.237  0.0256 -0.2763 -0.3488
20567W        W36376  17.251  15.598   4.019  0.4397  0.0478  0.0768
20568W        W36377   8.386  10.999  11.646  0.2098  0.2566 -0.0726
20569W        W36378   8.096   1.729   0.827  0.3447  0.0770 -0.2944
20570W        W36379   0.947   5.681  12.570 -0.1784  0.0292 -0.2805
20571W        W36380   8.449   2.326  12.645 -0.0527 -0.1736  0.1553
20572W        W36381   8.588   3.896   5.050  0.0680  0.2303  0.1316
20573W        W36382   9.798   3.894  14.394  0.1119  0.0471  0.0267
20574W        W36383  15.488  14.058  12.635  0.1688 -0.0671 -0.0889
20575W        W36384  15.977   2.892   2.974 -0.0246  0.1003 -0.0793
20576W        W36385   6.903  14.727  15.089 -0.2784  0.1292 -0.2539
20577W        W36386  12.728   6.969  14.874 -0.1938  0.3336 -0.0338
20578W        W36387  15.955  11.641  14.496  0.2989  0.0762 -0.0830
20579W        W36388   2.681   7.423   3.984  0.1585  0.1516 -0.2440
20580W        W36389  11.860  12.987   2.226  0.0607 -0.0802  0.0429
20581W        W36390   5.999  17.031  15.297 -0.4944  0.1149 -0.0481
20582W        W36391  14.830  17.134   3.902 -0.1287 -0.1230  0.0115
20583W        W36392   6.633   7.070  13.360 -0.0902  0.1222 -0.2087
20584W        W36393  13.761  12.112   0.116 -0.4783  0.0291 -0.0236
20585W        W36394  11.657  14.857   1.067  0.1329 -0.1970 -0.2925
20586W        W36395  18.186   7.109   0.484 -0.1246 -0.2061  0.0690
20587W        W36396   5.660   1.188  11.347  0.1023  0.1167  0.0718
20588W        W36397  10.045   2.290  13.981  0.0110 -0.4156 -0.0422
20589W        W36398   5.679  11.697   1.566  0.0140 -0.0959  0.0917
20590W        W36399   2.486   6.016  10.275 -0.2241  0.1978  0.1153
20591W        W36400  16.223   5.938   2.410  0.1676 -0.1758 -0.2035
20592W        W36401   2.550   3.418  12.932 -0.0551 -0.1538 -0.1838
20593W        W36402   9.143  18.358  15.295 -0.0084  0.1573 -0.3677
20594W        W36403  14.279  17.481   9.993  0.0666  0.3116 -0.3377
20595W        W36404   0.504  17.711   0.712 -0.2111 -0.0534  0.1377
20596W        W36405  12.163  17.758  11.803 -0.0989  0.0425 -0.0873
20597W        W36406  11.494   8.547  15.095  0.1863  0.0089 -0.1108
20598W        W36407  18.366   5.517   2.790 -0.2898 -0.2365 -0.0962
20599W        W36408   5.383   2.846   0.375 -0.0365 -0.0404 -0.0894
20600W        W36409  13.085   3.039   4.211  0.0643 -0.1789 -0.0890
20601W        W36410  12.329   0.481  12.328 -0.3790 -0.0281  0.1990
20602W        W36411  11.981   7.086   5.415 -0.0210  0.1466  0.0753
20603W        W36412  16.082  12.563   2.840 -0.0085  0.0032 -0.1464
20604W        W36413   2.052   4.331   4.465 -0.0026  0.0805  0.2361
20605W        W36414   9.581   3.036  13.454 -0.0877 -0.2527  0.2207
20606W        W36415  17.774   0.108  13.301  0.0272 -0.0126  0.2036
20607W        W36416   4.278   3.820  10.997  0.0746  0.0647 -0.1103
20608W        W36417   9.749  13.150  14.810  0.3144  0.0719 -0.0409
20609W        W36418  10.597   9.649   1.052 -0.2320 -0.3162 -0.0787
20610W        W36419  10.363   8.415  13.585  0.0375 -0.1375 -0.0131
20611W        W36420   6.984  12.050   6.057 -0.2793 -0.1221 -0.0811
20612W        W36421  12.938  18.413  13.683  0.1847 -0.0846  0.2724
20613W        W36422  11.846   4.106  12.209  0.0753 -0.1672 -0.0028
20614W        W36423  10.657   9.522   4.187  0.2607  0.0429 -0.2135
20615W        W36424  15.441  16.334   2.282 -0.0224 -0.1188 -0.2562
20616W        W36425   6.175   2.189   3.610 -0.1257  0.1683  0.1067
20617W        W36426  15.676   6.106   3.197 -0.0485  0.2325 -0.1318
20618W        W36427  15.588  12.654   2.774 -0.2197 -0.1114  0.1835
20619W        W36428   7.671   3.404   2.243 -0.1413 -0.0414 -0.3899
20620W        W36429  13.685  18.374   2.370 -0.2872  0.2739 -0.2785
20621W        W36430  16.086  17.579  15.609 -0.1429  0.3813  0.2206
20622W        W36431  17.817   3.538  11.568 -0.2092  0.0272 -0.0066
20623W        W36432  10.879  13.923   3.337 -0.1497  0.3604  0.0017
20624W        W36433   7.809   7.056  14.651 -0.1589  0.0317 -0.0870
20625W        W36434  12.825  13.522   4.094 -0.1831  0.1186 -0.0168
20626W        W36435  18.114   2.392   1.694 -0.0405 -0.3276 -0.1112
20627W        W36436   3.134   0.361  12.328 -0.0203  0.1871 -0.3741
20628W        W36437   3.996  18.610   3.227 -0.0905  0.0485 -0.0635
20629W        W36438   2.182   5.480   2.381 -0.2407  0.1979  0.0259
20630W        W36439  17.519  10.786   2.781  0.0855  0.0912  0.0157
20631W        W36440  10.346  18.631   1.518 -0.3077 -0.0798 -0.0340
20632W        W36441   4.338   5.398   2.974  0.2937 -0.1961  0.0648
20633W        W36442  11.033   9.155   0.152 -0.0063  0.0570 -0.1554
20634W        W36443  18.092   2.341  14.885  0.1707  0.2071  0.2184
20635W        W36444  17.912  16.187   1.643  0.1333 -0.2840  0.0892
20636W        W36445  16.127  14.793   4.511  0.3471  0.2050 -0.2411
20637W        W36446   4.964   2.411   4.572 -0.0396 -0.0043 -0.0398
20638W        W36447  10.669   3.988  11.453  0.1700 -0.2306  0.1412
20639W        W36448   7.569  10.093   0.638  0.0660  0.2993  0.2094
20640W        W36449   3.023  17.013   5.132 -0.0301 -0.3072 -0.1042
20641W        W36450  12.843  10.717  13.579  0.3025  0.1519  0.2691
20642W        W36451   4.084   0.430   4.308 -0.0299  0.0159 -0.0803
20643W        W36452  15.110   8.162  13.648 -0.1182 -0.0799  0.0508
20644W        W36453   9.800   7.606  13.329 -0.0785  0.1091 -0.0069
20645W        W36454  15.666  17.068  12.767  0.1828 -0.0069 -0.2387
20646W        W36455  11.657   4.679   0.245 -0.0334 -0.3537  0.0263
20647W        W36456   5.267   6.577   0.547  0.2359  0.1588  0.1066
20648W        W36457   4.657   5.924  10.611  0.5969 -0.0526  0.0102
20649W        W36458  18.520   6.391  10.760  0.0430 -0.1070  0.4004
20650W        W36459  16.402  12.852   1.261  0.2040  0.1373 -0.0494
20651W        W36460  12.778  14.754  14.563  0.1005  0.2404  0.1329
20652W        W36461  16.307   2.009  13.789  0.1442 -0.0685 -0.0889
20653W        W36462  12.972  12.104   3.240  0.1200 -0.0576 -0.0974
20654W        W36463  16.200   0.848  12.602  0.1411 -0.0232 -0.0624
20655W        W36464   7.472   5.231   5.335 -0.1505  0.0541  0.1222
20656W        W36465  12.193   8.182  12.430 -0.1365  0.1775 -0.1366
20657W        W36466  18.136   5.043   3.759 -0.3504  0.0264 -0.1360
20658W        W36467  13.449   6.077   5.119  0.1367  0.0428 -0.1754
20659W        W36468   7.353   6.929  15.310 -0.2984  0.0812  0.2189
20660W        W36469  12.804  16.246   2.107 -0.2951  0.1132  0.0250
20661W        W36470   2.644   5.339  15.563  0.2296  0.0235  0.2536
20662W        W36471   6.683  16.219   1.275  0.1415 -0.0991 -0.0246
20663W        W36472  10.107   6.502   3.704  0.0829  0.0169 -0.2701
20664W        W36473   9.925  13.434  11.100 -0.2324 -0.3927 -0.2766
20665W        W36474   7.923   8.794   4.699  0.0494  0.0314  0.0810
20666W        W36475   9.966  11.386  15.109  0.0111 -0.1532  0.0262
20667W        W36476   5.645   3.540   5.374  0.2060  0.1389  0.1564
20668W        W36477  12.067   8.882  10.934  0.0170 -0.1954  0.0826
20669W        W36478  15.180   6.062   1.343  0.1818  0.2005  0.2414
20670W        W36479   3.262   6.401   4.381  0.0227 -0.0020 -0.0466
20671W        W36480  16.617  13.094   2.263 -0.1023  0.1207 -0.0604
20672W        W36481   9.639   9.130   2.988 -0.1839  0.1451 -0.0427
20673W        W36482  13.966   9.292  14.360 -0.0368  0.0019 -0.0893
20674W        W36483   0.249  14.066   0.832  0.2134 -0.0845  0.2248
20675W        W36484   9.219   8.469   1.035  0.0411 -0.0139 -0.1380
20676W        W36485  13.830   3.538  13.694  0.1000  0.0153  0.0682
20677W        W36486  13.413   0.062  12.840 -0.2557  0.0641 -0.2748
20678W        W36487   5.309   6.372  11.397 -0.2448  0.1916 -0.2587
20679W        W36488  15.762   4.079  15.567  0.4451 -0.0904  0.0165
20680W        W36489   4.954   7.510  13.965  0.2993  0.1748  0.1328
20681W        W36490  11.926   1.120  13.816 -0.0304  0.0015 -0.0315
20682W        W36491   6.629  18.444  12.163 -0.1535 -0.1049 -0.0137
20683W        W36492   8.158  11.200  12.812 -0.6013 -0.0340  0.3019
20684W        W36493   7.864  16.041  15.221  0.2841  0.0870 -0.1924
20685W        W36494  16.999  11.315   4.977 -0.1018  0.0635  0.0712
20686W        W36495  12.829   6.303  14.212 -0.0485  0.1280 -0.0944
20687W        W36496   9.300  11.477   0.239  0.0046 -0.3109  0.3092
20688W        W36497  12.277  17.388   4.064 -0.3559 -0.2472  0.3427
20689W        W36498   6.685   1.599  10.313  0.0664  0.1953  0.2052
20690W        W36499   7.015   7.248   4.003 -0.1307  0.1030  0.0117
20691W        W36500   1.793   3.442   4.528  0.0250 -0.1358 -0.2813
20692W        W36501   3.304  15.774   0.472  0.0016  0.1952 -0.0437
20693W        W36502  13.475   8.321  11.939 -0.0787  0.0700  0.0487
20694W        W36503   9.533  14.250  13.457  0.3173  0.2179  0.3841
20695W        W36504  16.922  13.877  14.647  0.3286  0.1096 -0.0047
20696W        W36505   0.262   1.849   5.690  0.2826  0.2627 -0.2377
20697W        W36506   8.732   8.329   4.411  0.0099 -0.0399 -0.1077
20698W        W36507  18.175  10.195   1.276  0.1807 -0.0064 -0.1956
20699W        W36508  15.360  16.477   0.374 -0.2224  0.2198 -0.2514
20700W        W36509   2.658  12.757  14.381  0.2590  0.2130 -0.0955
20701W        W36510  16.855  17.689  15.417  0.1303  0.0233 -0.0647
20702W        W36511  15.200  17.111  14.457  0.2229  0.2680  0.3210
20703W        W36512  18.235  14.100  15.112  0.2863 -0.2289  0.0909
20704W        W36513   2.506   9.305   2.022  0.0115  0.0138 -0.1223
20705W        W36514   4.389  12.932  14.605 -0.0339 -0.1699 -0.0528
20706W        W36515   0.664  15.316   0.158 -0.1435  0.0146 -0.0067
20707W        W36516   4.659  18.021   0.168  0.0110  0.0231 -0.0545
20708W        W36517  10.824   9.245  10.296  0.2396 -0.0058 -0.0993
20709W        W36518  11.722  14.203   3.581 -0.1420 -0.3235  0.1466
20710W        W36519  15.125   5.934   3.076 -0.0398 -0.1142  0.1538
20711W        W36520   0.435  16.250  14.460 -0.2689  0.4473  0.2304
20712W        W36521  18.638  14.944  12.573  0.2719  0.2320 -0.2549
20713W        W36522   2.267   0.473  13.903 -0.1656 -0.0024 -0.1813
20714W        W36523  18.373  11.851   1.441 -0.2288 -0.0380  0.0962
20715W        W36524  15.277   9.992   0.564 -0.0723  0.3177 -0.2356
20716W        W36525   8.223   8.176   4.206  0.1304 -0.0974 -0.0117
20717W        W36526   5.171   1.187  12.143  0.3947  0.4320  0.2427
20718W        W36527  14.553  16.847   4.489 -0.2264  0.2447 -0.0545
20719W        W36528  13.155   7.749   2.854 -0.1653 -0.0558  0.2384
20720W        W36529  18.239  11.493  14.927  0.1922  0.0771 -0.2931
20721W        W36530  13.431  13.904  14.100 -0.2702  0.1183 -0.4364
20722W        W36531   0.479  17.917   2.107 -0.2521  0.0537  0.0080
20723W        W36532   5.026  15.572  13.201 -0.3188 -0.0179 -0.4794
20724W        W36533   2.931   4.706   0.711  0.2100  0.0044  0.0335
20725W        W36534   3.376  15.147  11.612 -0.1677  0.1057 -0.0531
20726W        W36535   2.218  11.902   0.435 -0.2210  0.0001  0.2133
20727W        W36536  17.296   4.493   1.274  0.1579  0.1935 -0.0855
20728W        W36537   0.626  16.549  10.820  0.2175 -0.0356  0.1780
20729W        W36538   2.367   7.060   0.183  0.2009  0.2254  0.0275
20730W        W36539   0.886  11.692   9.014  0.2266 -0.1566 -0.0597
20731W        W36540  17.601   4.907  11.486 -0.1132  0.0874 -0.1688
20732W        W36541  18.440   6.558  10.270 -0.0332  0.3131  0.1790
20733W        W36542  11.842  14.859   1.972 -0.1674  0.1622  0.1803
20734W        W36543   7.533   3.610  11.653 -0.0892 -0.1861  0.1790
20735W        W36544  18.421   6.809   4.146  0.4663  0.0272 -0.3439
20736W        W36545   8.935  15.015  13.428 -0.0344  0.2621 -0.1733
20737W        W36546  13.366   0.511   2.754  0.0590  0.1298 -0.1980
20738W        W36547   2.221   8.717   5.041 -0.0655  0.4331 -0.3713
20739W        W36548  18.228   9.788  11.621  0.0188 -0.0873  0.1851
20740W        W36549   8.465   3.533   2.598 -0.0969 -0.1142  0.1902
20741W        W36550   2.139   5.594  11.399 -0.0955  0.4007 -0.2710
20742W        W36551   0.387   6.361  10.758  0.1770 -0.1694 -0.2032
20743W        W36552   5.980   9.634   2.049  0.0160 -0.1060 -0.0995
20744W        W36553   7.525   2.425  15.535 -0.1667 -0.0655  0.3349
20745W        W36554  11.629   4.798  15.303  0.1597 -0.1451  0.0917
20746W        W36555  11.637   7.915  15.537 -0.1101 -0.1096 -0.0089
20747W        W36556  11.288  12.535  11.970 -0.3769 -0.0301 -0.0135
20748W        W36557   9.711  13.738   2.459  0.0293  0.1514  0.2924
20749W        W36558  14.035  12.517   2.359 -0.2227 -0.1706  0.2694
20750W        W36559   2.625   6.635   0.271 -0.1688  0.2299  0.0332
20751W        W36560   0.711  11.833   3.963 -0.0011 -0.2161  0.1925
20752W        W36561   1.734   3.692  15.376  0.2565  0.0910 -0.1136
20753W        W36562  13.007  14.225  10.418 -0.0211 -0.4048 -0.0661
20754W        W36563   0.604  15.873   0.880  0.0661  0.1774 -0.0745
20755W        W36564  13.141   6.876  12.590 -0.0244  0.2997  0.1548
20756W        W36565  13.893   6.236   1.744 -0.3215 -0.1049  0.2382
20757W        W36566  16.069   6.298   5.235  0.0634  0.0097  0.1275
20758W        W36567   8.247   3.262  13.449  0.0867 -0.1092 -0.1314
20759W        W36568   6.410   2.865   3.437  0.3212 -0.2714 -0.1698
20760W        W36569   3.941   6.795  14.316 -0.0864  0.0786  0.0092
20761W        W36570   4.236   4.823   4.575 -0.0106 -0.2196 -0.4619
20762W        W36571  17.046   1.099   1.112 -0.3691  0.0640 -0.2495
20763W        W36572  15.113  12.453  10.836 -0.4888 -0.3521 -0.1558
20764W        W36573   7.652   4.528  12.289  0.0746 -0.0870 -0.1230
20765W        W36574   0.297  11.456   1.899  0.0953  0.2071 -0.0815
20766W        W36575   5.989  17.390   3.164 -0.1648  0.1843  0.0641
20767W        W36576   2.562  17.237  10.693 -0.1665  0.2495 -0.0078
20768W        W36577   6.575   9.656  12.789  0.1417 -0.1199  0.2956
20769W        W36578   1.987  14.571   4.960  0.1222  0.3523 -0.1215
20770W        W36579   4.985   2.679  14.424  0.0415  0.1264 -0.0860
20771W        W36580   7.527  18.186   3.995 -0.2937  0.0258  0.1063
20772W        W36581  17.396  10.440  14.474  0.1073  0.2297  0.0332
20773W        W36582  12.378   6.090   3.891  0.1158  0.0575  0.2154
20774W        W36583   1.832  13.223   3.229 -0.0632  0.0482 -0.3650
20775W        W36584  13.923   2.811  10.087 -0.3614  0.2042  0.1843
20776W        W36585   5.357   2.763   1.538 -0.0692 -0.1378  0.2060
20777W        W36586   0.996  11.330   1.621  0.3104 -0.0586  0.0780
20778W        W36587   5.010  11.439  14.462 -0.0483 -0.0127  0.2986
20779W        W36588   9.846   5.771   4.566 -0.3308 -0.1016 -0.1352
20780W        W36589  14.708  16.835   9.937  0.1996  0.1631  0.1605
20781W        W36590  15.460  10.697  12.904  0.1171  0.0804 -0.0636
20782W        W36591  14.504  12.185   0.494  0.0101 -0.2272  0.1292
20783W        W36592   2.380   9.193   5.202 -0.3670  0.0235  0.0172
20784W        W36593  12.048  10.622  14.560  0.1162  0.0112 -0.3762
20785W        W36594   2.069   3.299  10.620  0.2371 -0.1528  0.2896
20786W        W36595  16.294  11.951   9.728  0.0133  0.0866 -0.0658
20787W        W36596  10.194  10.091  11.461 -0.1490 -0.2197 -0.0333
20788W        W36597  14.917   3.759  13.581 -0.1158  0.0201 -0.1164
20789W        W36598   2.237   4.344   3.153  0.2342 -0.4121 -0.1802
20790W        W36599   4.461  13.996  12.618 -0.1418  0.3621 -0.0852
20791W        W36600   6.502   3.616   5.158 -0.0710  0.2571 -0.1847
20792W        W36601   4.586   0.060   1.585  0.0108  0.0100  0.1338
20793W        W36602  15.145  14.003   2.881  0.1784  0.0064 -0.2258
20794W        W36603   9.640  15.448   2.376 -0.1034 -0.1870  0.1258
20795W        W36604   5.267   1.794  13.752  0.3103  0.0999  0.1666
20796W        W36605   8.267  13.042   0.168 -0.0518 -0.1190 -0.2855
20797W        W36606  10.341  14.413   2.041 -0.1891 -0.1799  0.4848
20798W        W36607   6.173  13.549   3.915  0.0303 -0.4284 -0.0010
20799W        W36608   3.048   7.495  11.948 -0.0454 -0.1030 -0.2992
20800W        W36609  10.952   7.323   0.144  0.2102 -0.0075  0.1376
20801W        W36610  13.041  18.202   4.638  0.1822 -0.1484  0.0737
20802W        W36611   8.206  12.344  15.502  0.0332 -0.2494 -0.0678
20803W        W36612   1.142   4.954  14.898  0.3344 -0.0345 -0.1387
20804W        W36613   1.421  14.971  14.548 -0.1536  0.1490 -0.0260
20805W        W36614   9.449   5.452   0.654  0.1142  0.0258 -0.2425
20806W        W36615  18.083   9.876  11.109  0.2149 -0.3364  0.1824
20807W        W36616   7.275  11.987  14.929  0.1409  0.0475 -0.2967
20808W        W36617  16.245  13.185  15.594  0.0228 -0.0558 -0.1470
20809W        W36618   9.850   8.251  10.677  0.2224  0.0191  0.1815
20810W        W36619  17.143   0.769  14.514  0.1319  0.2671 -0.1058
20811W        W36620   7.715   3.247   5.353 -0.0329 -0.0051  0.1591
20812W        W36621  16.563  11.841   1.104 -0.2304  0.1452 -0.1523
20813W        W36622  18.510  15.387  10.584 -0.0285  0.2579  0.0901
20814W        W36623  12.140   8.431  12.935 -0.2366  0.2289 -0.0887
20815W        W36624   9.571   1.000  13.927  0.2203  0.1967 -0.3524
20816W        W36625   8.359  13.051   9.569 -0.1159  0.2039  0.4135
20817W        W36626   8.034  14.977  13.846  0.0749  0.1479  0.1078
20818W        W36627  12.564  12.244  13.887  0.0257  0.3406 -0.0437
20819W        W36628   2.344  16.009   3.204 -0.1348  0.1851  0.3328
20820W        W36629  13.818   4.422  15.213  0.0216  0.0133 -0.1364
20821W        W36630   4.876   5.142   0.838  0.2222  0.4305  0.1152
20822W        W36631   9.083   1.291   2.268  0.0399 -0.0195 -0.2088
20823W        W36632   5.441  17.521  14.302 -0.2945 -0.0247  0.1650
20824W        W36633   2.546  15.899   1.635 -0.2127 -0.1764  0.1360
20825W        W36634   5.050   1.323  13.686 -0.1629  0.1721  0.1241
20826W        W36635   9.789   9.299  14.762 -0.0249 -0.1083  0.0187
20827W        W36636   8.507  10.517   0.506 -0.2707 -0.1838 -0.2679
20828W        W36637  18.035  12.741   1.099 -0.2272 -0.0962 -0.1075
20829W        W36638  16.060  15.848   3.382  0.0489  0.0548  0.0781
20830W        W36639  12.323   7.564   3.930  0.0073  0.0874  0.1799
20831W        W36640  15.367   7.025  15.457 -0.0915 -0.1005  0.1861
20832W        W36641   5.201   9.204   2.164  0.0597 -0.1693  0.0970
20833W        W36642   9.427   0.904   2.705 -0.2608 -0.0547 -0.1069
20834W        W36643  14.294  13.398   2.504  0.0789 -0.0072  0.1098
20835W        W36644  15.094   0.621   4.447  0.1126 -0.1136  0.1949
20836W        W36645   9.488   0.526  14.112 -0.1052 -0.0729 -0.2154
20837W        W36646   5.176  18.277   5.674  0.0554  0.1790  0.0538
20838W        W36647  17.312  12.398  10.530 -0.1804 -0.4897 -0.2065
20839W        W36648  18.259   6.074  10.321 -0.1176  0.2980  0.2804
20840W        W36649   8.340  17.089   3.119 -0.0274  0.0186 -0.2618
20841W        W36650  16.181   3.601  14.335 -0.0724 -0.2161  0.2757
20842W        W36651  15.413   2.569  10.473 -0.4284 -0.2491 -0.1480
20843W        W36652   4.035   9.911   5.263  0.0376 -0.1579  0.1585
20844W        W36653  12.087   9.158   3.102 -0.0074  0.0741 -0.2146
20845W        W36654   2.563  13.558  15.405 -0.2556 -0.0811 -0.2288
20846W        W36655  13.761   3.833   1.533 -0.0675  0.0090  0.2895
20847W        W36656  10.025  16.852   0.170  0.0894  0.2165 -0.1359
20848W        W36657   1.360  11.891  13.684  0.1140 -0.0510  0.2069
20849W        W36658  18.254  10.339   9.604 -0.0838 -0.0988  0.1602
20850W        W36659  14.777  13.821   3.862 -0.1221 -0.4425 -0.3043
20851W        W36660   2.677   1.136   1.463  0.0443  0.4952 -0.1619
20852W        W36661   8.366   4.036  12.671  0.1928 -0.0349  0.1353
20853W        W36662  18.518   0.176  15.297  0.1399 -0.1055 -0.0711
20854W        W36663   3.202   2.276   3.599  0.4278  0.0810  0.0379
20855W        W36664   5.973  10.381   2.594 -0.1390  0.0810 -0.2056
20856W        W36665   1.489  13.323   4.801 -0.2317 -0.0832 -0.0210
20857W        W36666  17.050  14.482  10.545 -0.1791  0.1221  0.0995
20858W        W36667  18.463   8.829  15.063 -0.1257 -0.0328  0.1742
20859W        W36668   5.287  15.803  14.400  0.0721 -0.0552 -0.1173
20860W        W36669   0.532  18.316   3.596  0.0184 -0.2509  0.1709
20861W        W36670  10.990  12.167   5.975  0.1177 -0.0970 -0.0575
20862W        W36671  17.130   9.792   0.985 -0.2776  0.0182 -0.0432
20863W        W36672  17.564   0.812   0.419  0.0340 -0.1133  0.1271
20864W        W36673  11.581  17.191  14.415 -0.2691 -0.0191 -0.0694
20865W        W36674  18.094   0.720   2.485  0.0981  0.0135 -0.2485
20866W        W36675  13.613   0.796   4.898 -0.0265  0.0662  0.1981
20867W        W36676   4.443  15.535   3.805 -0.3009  0.0148  0.0074
20868W        W36677   9.418   9.423   3.345 -0.0097  0.6095 -0.0258
20869W        W36678  11.307   6.976  12.574  0.1482 -0.0671  0.1076
20870W        W36679   9.378  13.239   4.717  0.1381  0.2318  0.1789
20871W        W36680   9.172  15.260  14.909 -0.0312 -0.1146  0.1957
20872W        W36681  15.603  13.087   1.892  0.0466 -0.1981 -0.1483
20873W        W36682   8.906   7.083  12.647 -0.0308  0.0665  0.0061
20874W        W36683   8.950  17.408  13.891  0.1180  0.0829  0.0546
20875W        W36684  15.359  17.381   5.415  0.1995  0.1651  0.1291
20876W        W36685   7.642   9.189   0.998 -0.1643 -0.1035 -0.0530
20877W        W36686  15.330   1.507   1.212 -0.0814 -0.0295 -0.3756
20878W        W36687  12.082   9.075   4.031 -0.0457  0.2239 -0.0267
20879W        W36688  16.862   5.307  13.358 -0.0697 -0.0914 -0.1224
20880W        W36689  15.242  12.341   2.994 -0.4088  0.0101 -0.0690
20881W        W36690   4.896   2.161  13.926 -0.0582 -0.1054  0.1241
20882W        W36691  13.148  16.614   4.995 -0.2992  0.5992  0.2501
20883W        W36692   4.297   6.755   3.977  0.1771 -0.1824  0.0547
20884W        W36693  11.335  13.055  13.068  0.0707 -0.0804 -0.0267
20885W        W36694   7.989   6.034   0.793  0.1307 -0.0925 -0.1508
20886W        W36695   0.461  17.881  14.613  0.3476  0.2883  0.3389
20887W        W36696  17.816   1.042  12.021 -0.0038  0.0488  0.5072
20888W        W36697  11.258   4.361   0.768 -0.4444 -0.3031 -0.2053
20889W        W36698   1.487   4.125   1.300  0.1704 -0.2091 -0.0096
20890W        W36699   3.356   7.684  11.128  0.0742 -0.0775 -0.0747
20891W        W36700  11.292  10.470  13.328  0.1844  0.2405 -0.1370
20892W        W36701   3.736  17.707   5.298 -0.2638  0.0194  0.1012
20893W        W36702   7.994   8.448   3.782 -0.1518  0.1254  0.2928
20894W        W36703   9.062   8.085  13.030 -0.3285  0.0696 -0.0512
20895W        W36704   1.197   9.983  10.183  0.2633 -0.2132 -0.1029
20896W        W36705   5.563  14.125   1.812 -0.0479  0.4765 -0.0345
20897W        W36706  10.230   8.663  15.080 -0.1408 -0.0193  0.2145
20898W        W36707  13.770  13.161   1.281  0.0523 -0.2497  0.0480
20899W        W36708   4.529   4.029   4.705 -0.1805  0.6002 -0.0734
20900W        W36709   5.373  13.102  14.014 -0.0747 -0.3184 -0.0107
20901W        W36710   4.085   5.567  15.031 -0.0319  0.1213 -0.0330
20902W        W36711  12.128   8.331   2.239  0.1881 -0.1248  0.1212
20903W        W36712  13.042   6.425  11.156 -0.0718  0.1020 -0.1880
20904W        W36713   0.749   3.971  10.708  0.0682 -0.1680  0.1498
20905W        W36714  16.745   9.988  14.003  0.1098  0.2479 -0.3575
20906W        W36715  14.912  11.062   3.144  0.1284  0.0093 -0.0984
20907W        W36716  11.944  14.510   4.008  0.2751 -0.0622 -0.2291
20908W        W36717  15.677  14.814   9.513  0.0397 -0.0061 -0.0341
20909W        W36718   2.413   4.599  11.015 -0.0566  0.3079 -0.3580
20910W        W36719   3.271   4.644   1.245 -0.1384  0.1955  0.2657
20911W        W36720   9.309  15.768  14.570  0.0539 -0.3036  0.4354
20912W        W36721   1.388  10.584   2.725  0.2405 -0.1960 -0.1164
20913W        W36722   4.890   0.105  11.677 -0.0554 -0.0030  0.0072
20914W        W36723   1.242   7.343  13.174  0.0176  0.0692  0.0610
20915W        W36724  12.087   6.702   2.983  0.0666  0.0390  0.4178
20916W        W36725   5.702  17.111  14.192  0.0422 -0.0168 -0.0426
20917W        W36726   2.040   4.928   0.707  0.0322 -0.1532  0.2821
20918W        W36727   5.981  14.618   3.630  0.0946 -0.0574 -0.1507
20919W        W36728  13.115  12.950  13.282  0.0978 -0.2348  0.0071
20920W        W36729  12.544  16.662  15.426 -0.0417  0.2251 -0.0451
20921W        W36730   4.319   2.385   5.403  0.1492 -0.2026 -0.0109
20922W        W36731   5.927   3.510   1.517  0.1682  0.0110  0.1468
20923W        W36732  16.311   8.450  13.052 -0.1019 -0.0232 -0.4632
20924W        W36733   8.277  10.104   3.118 -0.3433 -0.1223 -0.1704
20925W        W36734  14.212  14.730   5.093 -0.0408 -0.1050  0.0994
20926W        W36735  10.207   4.184  15.110 -0.3132  0.0987  0.0019
20927W        W36736   2.359  13.766   3.589  0.1313 -0.0376  0.2222
20928W        W36737   5.145  11.593   3.186 -0.0238  0.1068 -0.0261
20929W        W36738   8.053  16.834   3.919  0.0973  0.1092  0.0156
20930W        W36739   5.998   4.597  13.369  0.1244  0.1681  0.3337
20931W        W36740   1.556   7.838   1.248 -0.1596  0.0144  0.2521
20932W        W36741   2.762   7.804  14.733 -0.3219 -0.1626 -0.4176
20933W        W36742  15.784  13.962  14.485 -0.2109  0.0791 -0.1838
20934W        W36743  11.762  17.920   0.735 -0.2440 -0.6172  0.0125
20935W        W36744   6.274  16.711   0.272 -0.1786  0.4666  0.0863
20936W        W36745   5.546  11.611  12.871  0.0229  0.0342  0.0693
20937W        W36746  18.128   5.653   3.637 -0.0407 -0.1435 -0.1550
20938W        W36747   0.030  17.973  12.420  0.1207  0.2618  0.1685
20939W        W36748   7.439   2.868   9.929 -0.2571 -0.3015 -0.1655
20940W        W36749  16.881  14.061  13.843 -0.0322 -0.0509  0.1090
20941W        W36750   2.622  14.870  11.772  0.1755  0.1993 -0.2669
20942W        W36751   1.429  16.317   3.195 -0.0609 -0.2726  0.0399
20943W        W36752   2.472  11.332  10.554  0.0426  0.2244  0.0479
20944W        W36753   5.740  12.774  11.206 -0.4046 -0.2836  0.1558
20945W        W36754   7.144   3.911  12.521 -0.1489 -0.0880  0.3672
20946W        W36755   6.405   8.739  15.390  0.0420 -0.0050 -0.1071
20947W        W36756   8.027   1.731   6.174 -0.0368  0.0827  0.2410
20948W        W36757   3.231   3.344   1.039  0.1853  0.1817  0.1993
20949W        W36758  15.302   2.512  11.711 -0.0723 -0.0530 -0.3231
20950W        W36759   7.841   8.704  13.064 -0.0359 -0.4159 -0.0006
20951W        W36760   9.302   7.826   1.073  0.2327 -0.1706  0.1258
20952W        W36761   8.823   4.281  14.487  0.1917  0.0272  0.2268
20953W        W36762   1.193   2.862   2.054 -0.1968 -0.0659 -0.0098
20954W        W36763  12.968   9.690  11.038 -0.1339  0.1635  0.2769
20955W        W36764   3.358  12.937  10.934  0.1657  0.0013  0.2322
20956W        W36765  14.530   1.517  13.651  0.4700 -0.3161  0.2083
20957W        W36766   5.263  11.119   4.081  0.0471  0.1918  0.0186
20958W        W36767   0.300   7.438  14.980  0.0671 -0.0350  0.0558
20959W        W36768   4.102   2.128   0.804  0.1075  0.1080 -0.1259
20960W        W36769   2.756   1.578  11.632 -0.0825  0.0202 -0.1323
20961W        W36770  10.583  10.026   4.872 -0.0580  0.0046 -0.2054
20962W        W36771  13.183   2.263   3.853 -0.0213  0.0404 -0.0281
20963W        W36772  11.255  12.615   3.880 -0.1162  0.3910 -0.0097
20964W        W36773   0.569   6.193  15.366 -0.2335  0.1309 -0.0097
20965W        W36774   5.276   0.109  13.012 -0.2254  0.2467 -0.1126
20966W        W36775   1.283  11.868   2.325 -0.2143  0.0816  0.2364
20967W        W36776  10.700   5.855  13.085 -0.1487 -0.0902  0.1160
20968W        W36777  17.299   9.496  11.327 -0.1159  0.2573  0.0451
20969W        W36778  14.080   6.064  13.982 -0.1036  0.1877 -0.1195
20970W        W36779  14.007  13.034  14.302 -0.0384  0.0773 -0.0425
20971W        W36780  10.637  13.898  11.896  0.2876 -0.2411  0.0133
20972W        W36781   8.170  13.543  12.329 -0.0141 -0.2241  0.1123
20973W        W36782  11.619  13.427  14.811  0.0906  0.0269  0.0093
20974W        W36783   2.304   2.961  14.461 -0.0686 -0.2788 -0.0852
20975W        W36784  12.521   8.113   0.886 -0.0479 -0.0849 -0.2265
20976W        W36785  15.006   7.087  12.673  0.1550  0.0943  0.0211
20977W        W36786   3.532  18.285  11.892 -0.0853  0.1058 -0.1662
20978W        W36787   8.433  12.244   4.336  0.4244  0.0263 -0.1273
20979W        W36788   9.751   3.998   2.617 -0.3502 -0.1423  0.3180
20980W        W36789  11.487   9.006   1.954  0.1212 -0.1047  0.3863
20981W        W36790   1.546  17.570   4.933  0.0001 -0.0345 -0.0157
20982W        W36791  13.520  10.073  15.212 -0.0284  0.0543  0.1060
20983W        W36792   8.192  10.973  11.131 -0.2052  0.1805  0.1333
20984W        W36793   5.399   9.219  11.203 -0.2710  0.0046  0.3229
20985W        W36794  10.480  14.225  14.333  0.2403 -0.2555  0.0173
20986W        W36795  16.598  12.287  14.375 -0.1812  0.1305 -0.1035
20987W        W36796   2.925  15.851   1.920 -0.0471 -0.3025 -0.0934
20988W        W36797   1.591   0.206   4.235  0.1163 -0.0946 -0.1467
20989W        W36798   7.729  16.357   2.288  0.1141  0.3591  0.0328
20990W        W36799  11.550  13.948   2.237 -0.2833  0.0013 -0.2261
20991W        W36800  15.595   2.626  12.286 -0.0079 -0.1411 -0.2090
20992W        W36801   8.086   7.467  13.432 -0.1920  0.4091  0.4465
20993W        W36802  17.031  13.499   0.587 -0.2799 -0.1572  0.1789
20994W        W36803   9.099   2.157   2.246  0.3292 -0.0069  0.0771
20995W        W36804  15.000  10.775  12.133  0.2041  0.0793 -0.1323
20996W        W36805   7.989   9.144  12.979  0.0187 -0.3503 -0.1774
20997W        W36806   9.373   1.624   3.521  0.1173  0.1560  0.1866
20998W        W36807   0.329   5.401   1.604  0.2566 -0.0510 -0.1657
20999W        W36808   8.083  15.974   0.407 -0.0993  0.0854  0.4024
21000W        W36809   5.286  16.072   2.342 -0.0828 -0.1344  0.1310
21001W        W36810   0.073   8.178  12.019 -0.0844  0.0775  0.0248
21002W        W36811   8.529  13.161  15.362  0.0160 -0.1115  0.0971
21003W        W36812  10.647   5.480   1.806 -0.1254  0.0442 -0.3114
21004W        W36813   3.515   9.723   4.113 -0.3568  0.0399  0.1299
21005W        W36814   4.646   9.336   1.177 -0.0944 -0.0370 -0.1927
21006W        W36815  16.781   1.472  11.935  0.2191 -0.0867  0.2234
21007W        W36816   0.939  12.501   1.601 -0.0094  0.1490  0.2998
21008W        W36817   7.367   3.999   3.566 -0.3144 -0.1737  0.0863
21009W        W36818   2.125   6.121  10.639 -0.3210 -0.3257  0.0901
21010W        W36819  12.919   1.425   2.832  0.0514  0.1172 -0.1966
21011W        W36820   3.115   2.750   2.478  0.1181 -0.2025  0.1943
21012W        W36821  13.596  11.118  14.361  0.0536 -0.2231  0.1951
21013W        W36822  16.925   0.798  10.932  0.0998  0.0306 -0.1733
21014W        W36823   4.148   4.639   5.302  0.2914  0.0413 -0.1148
21015W        W36824  15.137  13.500  11.353 -0.0145 -0.0081 -0.0502
21016W        W36825  18.189   4.042  14.197 -0.1945 -0.0543 -0.0637
21017W        W36826  16.560   0.800  13.655  0.3654  0.2964  0.1989
21018W        W36827  17.627   4.455  14.177  0.0481  0.0390  0.0210
21019W        W36828  15.108  18.077   2.672  0.1004 -0.3795 -0.0484
21020W        W36829  14.854   1.425   1.383  0.1178  0.2959  0.1422
21021W        W36830   5.098   9.251  14.482 -0.0076  0.1197 -0.1976
21022W        W36831   8.211  14.342   5.284  0.1249 -0.3133 -0.1972
21023W        W36832  18.334  10.447  10.159  0.0540  0.0726 -0.1141
21024W        W36833   0.684  11.882  10.405 -0.4030  0.2012  0.1811
21025W        W36834  17.279   6.793  11.388  0.0895  0.1973  0.0361
21026W        W36835  14.975   4.274   1.468 -0.1088 -0.2119  0.3568
21027W        W36836   2.141  13.043   2.157  0.0411 -0.2908  0.1616
21028W        W36837  10.543   2.107   1.735  0.1092  0.1110  0.1954
21029W        W36838   7.842  13.295   0.081 -0.3950  0.0379 -0.0225
21030W        W36839   8.855  16.704   5.014 -0.4155  0.0733 -0.0519
21031W        W36840   0.671   5.920   4.123 -0.1833 -0.1981 -0.1362
21032W        W36841  14.440  17.778  11.685  0.1175  0.2153 -0.0586
21033W        W36842   0.512  15.105  12.968 -0.1668  0.1019 -0.2874
21034W        W36843  10.981   4.762   4.860 -0.0229 -0.0539 -0.3374
21035W        W36844  11.688  15.283  10.179 -0.0270 -0.3084  0.1914
21036W        W36845   2.691   4.480  15.325  0.0520  0.1567  0.1344
21037W        W36846  13.342  11.539   1.425  0.2305  0.2407  0.1908
21038W        W36847  11.086  10.908   4.540  0.4250 -0.0340  0.2033
21039W        W36848   8.644   7.353  14.117 -0.0138 -0.4217 -0.5095
21040W        W36849   6.187   0.676  14.804 -0.2027 -0.0380  0.2916
21041W        W36850   5.687  11.629   0.577  0.3349 -0.1065 -0.0243
21042W        W36851   0.867  12.702  11.618  0.3096 -0.0976 -0.1349
21043W        W36852   3.071   8.864  15.300  0.0350 -0.0500 -0.0741
21044W        W36853   4.368  11.643   4.550  0.1289 -0.1139 -0.0018
21045W        W36854   1.150   6.436  10.477 -0.2101 -0.3658  0.3333
21046W        W36855   5.407   7.610   0.942 -0.0320 -0.0631  0.1898
21047W        W36856   0.724  13.234  12.557  0.0199  0.1200 -0.0477
21048W        W36857   5.581   8.795   4.648 -0.1695  0.0648  0.0603
21049W        W36858   5.018  14.231   0.161 -0.1714  0.1371 -0.0172
21050W        W36859   2.248   7.508  13.815 -0.1392 -0.1148 -0.1032
21051W        W36860   1.646  14.133   4.290 -0.0930 -0.3894 -0.0984
21052W        W36861   0.202  12.220   3.989  0.2441 -0.0643 -0.0628
21053W        W36862   1.770   2.570   0.318  0.0630 -0.2230 -0.1477
21054W        W36863   3.220   3.709   0.707  0.0583  0.2999 -0.0164
21055W        W36864   9.101  15.925   1.226 -0.2464  0.0025 -0.2082
21056W        W36865  13.481  11.624   3.256  0.2993 -0.0707 -0.0398
21057W        W36866   0.237   9.515   4.605 -0.4884 -0.0624  0.3367
21058W        W36867  13.075  15.501  15.602  0.0525  0.0216  0.1368
21059W        W36868   2.240   8.873  11.224  0.2992  0.1528 -0.4505
21060W        W36869  12.542   1.064   1.841  0.0245  0.1067 -0.1033
21061W        W36870   9.475   3.816   1.966 -0.4016  0.0376 -0.0411
21062W        W36871   9.762  16.163  13.037  0.0059 -0.3349 -0.1154
21063W        W36872   0.702  17.535  14.294  0.1353  0.0773  0.0115
21064W        W36873  11.754  12.868   5.154  0.1500 -0.2920  0.0060
21065W        W36874   4.226   3.179   1.207 -0.0255 -0.2596 -0.2163
21066W        W36875  10.587   9.591  14.634  0.0019 -0.3742  0.0094
21067W        W36876  15.524   3.776   4.543 -0.2490 -0.0447 -0.1128
21068W        W36877   0.416   7.244  12.059  0.2465 -0.0194  0.0810
21069W        W36878  11.123  13.739  10.311  0.1121 -0.1013 -0.2902
21070W        W36879   0.458   4.589  10.021  0.1013  0.0089  0.0439
21071W        W36880   4.006  12.427   0.378 -0.2709  0.2550  0.3013
21072W        W36881  16.202   7.720  15.102 -0.1319 -0.0749 -0.3022
21073W        W36882   4.335   2.492  11.315 -0.1194  0.0835 -0.0517
21074W        W36883  18.087   3.282   2.281  0.3394  0.3057 -0.0614
21075W        W36884  16.093  11.139  13.385  0.0083  0.3523 -0.1177
21076W        W36885  17.621   4.339   0.769 -0.0663 -0.0965 -0.0905
21077W        W36886  10.315  17.248   1.774  0.0058 -0.2550 -0.0598
21078W        W36887  14.866  13.901  14.944 -0.1026  0.0104 -0.1423
21079W        W36888  18.439   6.038   1.679  0.4350  0.1012  0.3100
21080W        W36889   6.083  15.933   2.429 -0.2137  0.0357  0.3170
21081W        W36890  14.826   1.321   2.783 -0.1823 -0.0414 -0.3363
21082W        W36891   0.728  11.760  13.634 -0.0938  0.3526 -0.5197
21083W        W36892   2.748   3.618  12.464 -0.3904  0.0152 -0.1185
21084W        W36893  12.687  15.411   1.043 -0.2135  0.0071 -0.1544
21085W        W36894   2.042  12.273   2.653  0.2594 -0.2111 -0.0896
21086W        W36895   9.925   9.307   4.796 -0.2479  0.1478  0.1474
21087W        W36896   5.241  12.952   0.683 -0.2689  0.3383 -0.1867
21088W        W36897   0.924   7.642  12.309 -0.1992 -0.0220 -0.2850
21089W        W36898   1.030   7.687   4.840  0.2281 -0.0366  0.1155
21090W        W36899   8.647   5.381  11.105 -0.1605  0.0212 -0.0602
21091W        W36900   2.301  12.168  13.460 -0.2914 -0.1195  0.2452
21092W        W36901  13.583  16.206  12.824 -0.5311 -0.0712  0.1215
21093W        W36902  11.302   7.960   3.496  0.1226 -0.0688 -0.2634
21094W        W36903   6.860   7.058   0.005  0.3339 -0.1783 -0.5012
21095W        W36904  12.345  14.654  12.071  0.0703 -0.0638  0.1763
21096W        W36905  12.594   2.841  14.103  0.1705 -0.1133  0.2147
21097W        W36906  15.709  14.374   0.177  0.2113  0.0176  0.2174
21098W        W36907  17.863   6.548   4.728  0.0151 -0.0801  0.3851
21099W        W36908  10.413   9.303  14.189 -0.0997 -0.1705  0.1387
21100W        W36909   9.910   5.680   2.400  0.0253 -0.1686 -0.2927
21101W        W36910  12.359  13.375   1.539  0.2742 -0.2514  0.0863
21102W        W36911   3.403  11.220   3.080  0.0468 -0.2525 -0.0612
21103W        W36912  15.068   6.110  12.761  0.2703  0.1727  0.0798
21104W        W36913  15.550   9.378   4.737  0.1360 -0.3157  0.2411
21105W        W36914   3.336   3.925   4.878  0.3783 -0.2791 -0.0669
21106W        W36915  12.398  13.957  15.084 -0.1699  0.0463  0.1753
21107W        W36916  18.130   3.848  13.395 -0.0025  0.0508  0.2994
21108W        W36917  11.460   7.821   3.974 -0.2704 -0.0086  0.4892
21109W        W36918  13.946  16.684  12.658  0.1596 -0.1842  0.0673
21110W        W36919  18.017  14.060   1.157 -0.0677  0.0116 -0.0825
21111W        W36920  11.078  14.735   3.149 -0.2098 -0.1017  0.0281
21112W        W36921   1.042  11.260  12.879  0.1187  0.0208 -0.0396
21113W        W36922  18.094  12.000  14.008 -0.0307 -0.0412 -0.1175
21114W        W36923   6.171  17.065  13.419 -0.1415  0.1531  0.1691
21115W        W36924   7.237   1.636  13.195 -0.1483  0.0483  0.2396
21116W        W36925  16.720  10.350   1.718 -0.0643 -0.1100  0.0123
21117W        W36926  13.510  11.943  11.867 -0.2694  0.1581 -0.0376
21118W        W36927   3.718   9.370  12.437 -0.0509  0.1732  0.2971
21119W        W36928  12.810   6.299   3.779  0.1347 -0.0287  0.1704
21120W        W36929  11.124   9.450   3.332  0.0122  0.0319  0.2223
21121W        W36930   9.317  13.320  15.055 -0.0978 -0.2587 -0.2215
21122W        W36931  17.760   8.478   9.411  0.1189  0.0558 -0.1174
21123W        W36932   5.763   2.005   1.330 -0.1498  0.0697 -0.0590
21124W        W36933  18.160   7.830  12.701 -0.1150  0.1378 -0.0004
21125W        W36934   9.192  17.690  10.707 -0.1442  0.0508  0.2121
21126W        W36935  14.535   2.019  14.065 -0.3676 -0.3960  0.2645
21127W        W36936  10.964  12.016   1.284  0.1896  0.1594  0.0012
21128W        W36937   8.671   7.765   2.109 -0.2277 -0.1616  0.0240
21129W        W36938  10.374   4.912   0.626 -0.0475  0.1634  0.0642
21130W        W36939  17.423   9.648  10.452  0.0132 -0.2189 -0.0170
21131W        W36940   3.416   4.649   9.664  0.1182 -0.0022 -0.2190
21132W        W36941   7.410  17.054  10.104 -0.0190  0.0003 -0.1845
21133W        W36942   9.879   7.563  12.778  0.2245  0.0027  0.0706
21134W        W36943   9.681  16.382   1.260  0.0500  0.0862  0.0343
21135W        W36944  14.596  14.658  12.201 -0.0335 -0.4415  0.1532
21136W        W36945  13.064   3.876   4.068 -0.1395  0.1303  0.1077
21137W        W36946   0.557  11.031   4.638  0.0459  0.2993  0.0545
21138W        W36947   5.004  14.307  13.570  0.1047  0.1163  0.1673
21139W        W36948  17.347  11.353   9.685 -0.0016 -0.0835 -0.1145
21140W        W36949  10.196  15.072   4.640 -0.3222 -0.1874 -0.3190
21141W        W36950  15.060  10.224  11.257 -0.0900  0.2349 -0.2259
21142W        W36951  12.563  15.000   1.452  0.1356  0.2085 -0.0235
21143W        W36952   6.476  10.455  11.055  0.4845 -0.1275 -0.2271
21144W        W36953  12.559   9.912   3.570  0.2007  0.0849 -0.1489
21145W        W36954  14.832   7.558  15.384 -0.0823 -0.3627 -0.1092
21146W        W36955  15.335  14.139  13.231 -0.4174 -0.1229  0.1052
21147W        W36956   8.093   3.632  11.585 -0.0484  0.1924 -0.2931
21148W        W36957   5.383  17.670  13.820 -0.0152  0.0243  0.0065
21149W        W36958   2.869  13.163  15.328 -0.0789  0.0453 -0.0356
21150W        W36959  13.667  14.104   3.254  0.3512  0.0752 -0.0409
21151W        W36960   1.740  12.975   5.061 -0.0915 -0.0412 -0.1339
21152W        W36961   6.998   2.898  11.986  0.2186 -0.0360  0.2299
21153W        W36962   1.550   1.436   1.779  0.2000  0.1755  0.0557
21154W        W36963   0.340  15.166  12.355  0.5885  0.2277 -0.1223
21155W        W36964  15.096   8.454  14.053  0.1003 -0.0319  0.0316
21156W        W36965  10.519   7.538  10.715 -0.0191  0.0409  0.0401
21157W        W36966  12.830  13.168  12.900 -0.2034 -0.0679  0.0420
21158W        W36967   2.595  11.913   1.042  0.0305 -0.0418  0.2948
21159W        W36968  10.291  11.103   1.600 -0.0230 -0.1409  0.1647
21160W        W36969   1.860  10.472  11.363 -0.1873  0.0107 -0.1161
21161W        W36970  16.311   8.255   4.223 -0.1312 -0.0483  0.1042
21162W        W36971   7.501   0.254  14.769 -0.3055 -0.1634 -0.0054
21163W        W36972   7.944   9.387   1.745  0.1167 -0.2622  0.1216
21164W        W36973  18.554   7.989  12.985 -0.0729  0.2422 -0.2247
21165W        W36974   4.713  12.179   0.704  0.0886 -0.1464  0.0272
21166W        W36975   1.279  11.829   4.161 -0.0224 -0.1124 -0.1816
21167W        W36976  16.196   8.255  11.538  0.0327 -0.0567 -0.0779
21168W        W36977  16.438  11.569   4.058 -0.4447 -0.0888  0.0351
21169W        W36978   9.068   4.374   3.030  0.2244 -0.1757  0.1222
21170W        W36979   5.568   0.095  14.623 -0.2049  0.2050 -0.0450
21171W        W36980   0.356   3.242   2.048  0.3097 -0.0050 -0.3925
21172W        W36981   3.903  14.928   4.184 -0.0399  0.1436  0.1009
21173W        W36982   3.297  13.762  12.975  0.0756  0.1398 -0.1076
21174W        W36983  18.508   8.027  13.682  0.3571  0.0978 -0.1240
21175W        W36984   9.404   7.722  11.220 -0.2018 -0.0869  0.0945
21176W        W36985   6.833   1.739   4.868 -0.3107  0.0447 -0.0410
21177W        W36986   2.307  18.065  12.281  0.0305  0.0565  0.1637
21178W        W36987  11.228  10.397   0.050 -0.0912  0.1706 -0.2143
21179W        W36988  17.379   6.935  15.619  0.1309 -0.3892  0.1765
21180W        W36989   2.733  11.224   2.580 -0.0395 -0.0163 -0.0067
21181W        W36990   5.952   2.560   4.395 -0.1379 -0.1848 -0.3360
21182W        W36991   0.735   3.068  13.424 -0.1336  0.0653 -0.0961
21183W        W36992  12.716  13.150  14.062 -0.2265  0.2045 -0.0946
21184W        W36993  12.454   8.355   3.431  0.1845 -0.2626 -0.0389
21185W        W36994  17.882  17.301  15.007  0.0437 -0.0436 -0.2045
21186W        W36995  18.462   3.215   4.350 -0.0134  0.0961 -0.3255
21187W        W36996  10.397  10.370  11.107 -0.0347  0.1927  0.3274
21188W        W36997   9.332  11.580   1.691  0.1737 -0.0488  0.2433
21189W        W36998  18.415   9.047   2.701 -0.1899  0.1385  0.3340
21190W        W36999  13.674   5.914  11.691 -0.0097 -0.2070  0.0085
21191W        W37000   4.261   2.365   4.903  0.2591  0.0439  0.0356
21192W        W37001   7.919  15.506   5.431  0.4421  0.0612  0.1255
21193W        W37002   2.973  11.718  12.121  0.4707  0.1409  0.0160
21194W        W37003  16.453  14.952   2.984 -0.2058  0.0560  0.0266
21195W        W37004  14.056  14.369   2.878 -0.0900 -0.3122  0.1739
21196W        W37005   0.121   4.377  10.461  0.1849 -0.0689  0.1785
21197W        W37006  15.860  15.743  11.891 -0.0266  0.5100 -0.2512
21198W        W37007  11.508   8.233  13.234 -0.3755 -0.2274  0.1651
21199W        W37008  14.988  15.452   4.966 -0.2518  0.1464 -0.1670
21200W        W37009  12.159   3.450   6.289 -0.0895  0.2285  0.1184
21201W        W37010   3.461  10.704  14.068  0.0558 -0.0677  0.0063
21202W        W37011   5.259   5.469  14.277 -0.1876  0.0845  0.2031
21203W        W37012  15.530   8.541   4.111  0.0640 -0.0325 -0.2643
21204W        W37013  10.336  15.352   1.977  0.2893  0.2034  0.1443
21205W        W37014   8.594   2.905  13.198 -0.1547 -0.0264 -0.2443
21206W        W37015  17.634   3.169  15.027  0.1192  0.1763 -0.1061
21207W        W37016   4.361  15.469   2.988  0.1720 -0.0861  0.0610
21208W        W37017  18.234   3.400   5.262 -0.2134 -0.0834  0.0427
21209W        W37018   4.666  15.251  10.634 -0.0668 -0.2213 -0.2777
21210W        W37019  17.684  10.542   2.406 -0.2456  0.0772 -0.0871
21211W        W37020   9.594   7.972  14.507 -0.1491  0.1200  0.2546
21212W        W37021   9.955  15.367  12.517  0.0182  0.1302  0.1235
21213W        W37022  10.846   1.874  11.976  0.2858  0.2010  0.3057
21214W        W37023  15.948   4.857   3.521 -0.3271 -0.1913  0.0473
21215W        W37024  11.127   6.176   2.379 -0.2584 -0.0831  0.2833
21216W        W37025   6.598  14.375   1.636  0.1770  0.1322 -0.0141
21217W        W37026  10.422  14.113  11.409 -0.1952 -0.1565  0.0893
21218W        W37027  13.867   6.031  13.536  0.1735  0.3448 -0.1040
21219W        W37028  17.021  13.114  13.280 -0.0030 -0.0415  0.1217
21220W        W37029  13.310  14.666  11.511 -0.2426  0.2009  0.1995
21221W        W37030   9.567   5.363   0.122  0.0136  0.0387  0.3783
21222W        W37031   3.131  15.077   5.586  0.2377 -0.3411  0.2017
21223W        W37032  18.227   2.821   4.556 -0.0799 -0.1925 -0.0025
21224W        W37033   3.732  14.153  12.904 -0.3952  0.0473  0.2397
21225W        W37034  12.533   9.390  13.629 -0.0834 -0.1654 -0.1906
21226W        W37035  10.152  10.726  12.533  0.0721 -0.2035  0.0668
21227W        W37036   9.253  14.497   0.945  0.1735 -0.0725 -0.1530
21228W        W37037  15.368  16.357  14.770  0.0057  0.1957 -0.0532
21229W        W37038   7.284   5.507  12.001 -0.3598 -0.0433  0.0037
21230W        W37039  10.067   9.676   1.189 -0.0896  0.3342  0.3670
21231W        W37040   0.957   6.153  13.681 -0.2850 -0.1803 -0.0218
21232W        W37041   2.348  12.841  13.588 -0.3856  0.0679  0.1740
21233W        W37042  12.128   8.703   3.135 -0.0736  0.0677  0.1821
21234W        W37043  18.306  17.923  14.073 -0.2688  0.0338 -0.3085
21235W        W37044  17.184  16.912  11.511  0.2949  0.0000  0.2479
21236W        W37045  13.934  17.718  13.891  0.0670  0.4799  0.1058
21237W        W37046   1.002   1.439  13.620 -0.2924 -0.1041 -0.0148
21238W        W37047   8.002   4.666  13.070 -0.1569  0.1569 -0.1147
21239W        W37048  11.985  15.704   2.440 -0.3110  0.0945  0.1634
21240W        W37049  10.856   1.446   0.274  0.1475  0.4145  0.0487
21241W        W37050   5.273  15.845  15.346  0.1999  0.1741 -0.0722
21242W        W37051   9.394  12.822  15.082 -0.0316  0.1817  0.0965
21243W        W37052   2.763   4.012   5.022  0.1881 -0.2211  0.0939
21244W        W37053  18.152   5.473  14.127  0.0319  0.1660 -0.0409
21245W        W37054   0.242  12.323   4.460 -0.0307 -0.1100 -0.2266
21246W        W37055   6.626  15.405   5.026 -0.1366 -0.1979 -0.3001
21247W        W37056   8.672   4.446   1.407  0.0935 -0.0689 -0.2007
21248W        W37057   9.241  10.129  15.212 -0.1320  0.0493  0.0483
21249W        W37058   2.844   6.266  14.958  0.3722 -0.5067  0.0947
21250W        W37059  18.174  17.657  10.646  0.1562 -0.0975 -0.3875
21251W        W37060  11.039   1.492  14.984 -0.1602 -0.0506  0.2829
21252W        W37061   7.267   6.990   4.587  0.0182 -0.0197 -0.2312
21253W        W37062   5.327   8.782  14.530  0.0535  0.0426 -0.1285
21254W        W37063   5.933  10.226  13.047 -0.1659  0.2212 -0.0350
21255W        W37064   5.544   9.941  11.801  0.1089 -0.4325  0.1203
21256W        W37065   1.478   0.692  10.832 -0.0758 -0.3645  0.1538
21257W        W37066   0.430   1.538   2.128 -0.1582 -0.0594 -0.0885
21258W        W37067   3.745  10.259   3.522 -0.0336 -0.1919  0.0367
21259W        W37068   8.399   1.289   6.256 -0.0471 -0.1090  0.0266
21260W        W37069   8.606   0.807  15.422  0.0584 -0.0371  0.0965
21261W        W37070   7.720  18.268  12.083  0.2164  0.1220  0.2840
21262W        W37071  12.837  17.591  14.132 -0.0753  0.1473  0.3056
21263W        W37072   0.811  15.293   5.003  0.0487  0.0549  0.1583
21264W        W37073   8.723   7.366   1.782 -0.0095 -0.2115 -0.0416
21265W        W37074   1.735   3.629   3.942 -0.0243  0.1880  0.1043
21266W        W37075   9.431   8.195  15.193  0.0737 -0.0943  0.0064
21267W        W37076  16.770   0.319  10.809 -0.0850 -0.4144  0.1742
21268W        W37077   2.281   3.436   5.427  0.0371 -0.1354 -0.1791
21269W        W37078   8.933   5.804  14.131 -0.4327  0.1853 -0.3822
21270W        W37079   8.499   1.787  15.121 -0.0170  0.0054  0.1123
21271W        W37080   3.451   2.296   2.594  0.0841  0.1242 -0.0456
21272W        W37081  17.737   3.419   2.658 -0.0674 -0.1201 -0.3532
21273W        W37082   6.138  14.807   0.047  0.0584  0.1892  0.1737
21274W        W37083  16.153  13.460  10.895  0.0673  0.0271 -0.0171
21275W        W37084   5.419   1.380   1.714  0.1412  0.2016 -0.0094
21276W        W37085  18.095  12.962   2.458  0.2174  0.1606 -0.1774
21277W        W37086  11.119  17.243   4.259  0.0372 -0.2878  0.0170
21278W        W37087   8.184  12.803   1.781 -0.2904 -0.3567  0.3230
21279W        W37088  15.291  18.445   4.481  0.0771 -0.0306  0.0605
21280W        W37089  10.920   5.351  13.055  0.0664  0.4196 -0.2482
21281W        W37090  14.150  16.147   3.083  0.1154 -0.3762  0.1546
21282W        W37091  16.435  14.534  11.416  0.0415 -0.3242  0.2220
21283W        W37092   2.069   1.206  11.242 -0.1004  0.0886 -0.0292
21284W        W37093  18.233   9.984  14.259  0.1844 -0.0313 -0.3718
21285W        W37094  16.695   1.428   1.221 -0.3297  0.0399  0.2800
21286W        W37095   9.343  16.658   5.243 -0.0928 -0.1229  0.0818
21287W        W37096  11.226  12.550   5.081 -0.0869 -0.0110 -0.1182
21288W        W37097  15.749   0.523  13.481  0.0513  0.2099  0.1775
21289W        W37098   8.031   7.736  13.840  0.0635 -0.0392  0.1340
21290W        W37099  17.791  14.771  14.558 -0.4363 -0.0221 -0.0563
21291W        W37100   4.925  15.138   0.253  0.3644 -0.1947  0.1114
21292W        W37101   5.830  10.397  15.596 -0.3157  0.0183  0.3472
21293W        W37102  13.781   8.074   3.616  0.0628  0.1452  0.0625
21294W        W37103  17.787  13.948  15.042 -0.0525  0.0770  0.2726
21295W        W37104   7.574   0.303   1.809 -0.1005  0.0645  0.1149
21296W        W37105  12.038  14.071  13.379 -0.2443 -0.0370  0.2008
21297W        W37106   1.414  10.221  12.304  0.0646  0.1659  0.0810
21298W        W37107   8.775   1.853   6.255 -0.2671 -0.1118  0.1189
21299W        W37108  13.272   8.120  14.829 -0.2092  0.0469 -0.0140
21300W        W37109   2.929   0.949  11.070  0.0398  0.2460 -0.1556
21301W        W37110   3.180   5.130  13.351  0.3046 -0.0144 -0.4022
21302W        W37111   2.377  18.546   0.909  0.2283 -0.4120  0.0503
21303W        W37112  17.136   9.303  10.281  0.0885 -0.0850 -0.0473
21304W        W37113  15.245   0.891   2.185  0.2287 -0.1177  0.1240
21305W        W37114  13.856  16.794  10.459  0.1215  0.2683 -0.0886
21306W        W37115  16.172   9.230   3.073  0.0636 -0.1714  0.2371
21307W        W37116   7.031   3.467  11.286 -0.2577 -0.0470 -0.0389
21308W        W37117   8.965   0.004   3.431  0.1981 -0.2077  0.0168
21309W        W37118   4.210  11.051  14.316  0.2012 -0.1330  0.1823
21310W        W37119  17.741   7.793  14.171  0.0703  0.0091  0.2055
21311W        W37120   7.889  17.096  15.156 -0.1625  0.0255 -0.1207
21312W        W37121  16.845   1.730   1.666  0.1506  0.2363  0.1126
21313W        W37122   0.565   1.530  13.347  0.1094 -0.1423 -0.2058
21314W        W37123  11.259   3.123   4.590 -0.4609 -0.2879  0.2816
21315W        W37124   9.216   1.700   3.038  0.0934  0.2915  0.2844
21316W        W37125  10.578  10.959   0.326 -0.0543  0.0774  0.1424
21317W        W37126   6.330  14.000  15.421 -0.1460 -0.3358  0.0959
21318W        W37127   8.687   7.687  14.527  0.3147  0.1056 -0.0440
21319W        W37128  16.743   2.174  10.641  0.0737 -0.0734 -0.0068
21320W        W37129   6.259   6.935  11.001  0.1929 -0.0650  0.0781
21321W        W37130  11.779   7.730   1.680 -0.1542 -0.2103  0.4021
21322W        W37131   3.264  11.697  11.188 -0.3383  0.0463 -0.1179
21323W        W37132  16.941   5.731  10.211  0.1107 -0.1843 -0.0423
21324W        W37133   7.159  15.040   9.952 -0.1815  0.1160  0.1872
21325W        W37134   9.236   3.758   3.873 -0.2553 -0.0408  0.0565
21326W        W37135   5.529   0.767  15.489 -0.0740  0.2273  0.1387
21327W        W37136   0.632   8.777  10.077 -0.0186 -0.0528 -0.2542
21328W        W37137  15.355   4.194  14.208 -0.0587 -0.0980 -0.1660
21329W        W37138  14.908   1.181   0.057  0.3270 -0.0463 -0.1017
21330W        W37139  14.092  11.615   0.848 -0.0068  0.1602  0.1472
21331W        W37140  18.456   3.740   3.665  0.0853  0.1240  0.1446
21332W        W37141  15.561  10.344  15.598 -0.0322  0.3018 -0.1118
21333W        W37142   6.920  12.344  14.923  0.2501 -0.0066 -0.0214
21334W        W37143  12.710  14.026   5.952  0.1382  0.0868 -0.1236
21335W        W37144   6.279  16.907  13.998 -0.1119 -0.0537  0.2096
21336W        W37145   2.096  14.047  12.052 -0.1502 -0.2607  0.1717
21337W        W37146   4.486   8.204  10.889 -0.2808 -0.0085 -0.0229
21338W        W37147  14.395  10.605  14.205  0.2860  0.1663 -0.0524
21339W        W37148  18.128   8.624   0.674 -0.0176 -0.0848 -0.0759
21340W        W37149  10.066  17.288   1.142 -0.1511  0.1898 -0.0345
21341W        W37150   3.265   9.065  13.969  0.2415 -0.1269  0.0265
21342W        W37151  11.358  11.548   2.534  0.0488  0.0573  0.0294
21343W        W37152   1.785   8.139  12.901  0.1624  0.1709 -0.1172
21344W        W37153  14.649   6.142  14.061  0.1438  0.1516 -0.0363
21345W        W37154  13.286   5.175   3.460  0.2243  0.4961  0.2332
21346W        W37155   5.751   5.632  11.757  0.3312 -0.0720 -0.1271
21347W        W37156   8.194  11.894  11.733 -0.1670 -0.1154  0.2648
21348W        W37157  15.863  15.878   0.075  0.0535 -0.0481 -0.1900
21349W        W37158   1.218   5.845  11.702  0.0710  0.3370  0.0952
21350W        W37159  14.251  18.544  14.541  0.3064 -0.0658 -0.0133
21351W        W37160  17.341   0.295  14.673  0.0945 -0.0464  0.2532
21352W        W37161   4.129   8.345   3.125 -0.0808 -0.0488 -0.0458
21353W        W37162   2.168  15.321  10.617  0.3979 -0.2107  0.5176
21354W        W37163   5.920   9.713  13.444 -0.1531 -0.1796 -0.0566
21355W        W37164   9.653  17.528  11.024  0.2180  0.0656  0.1866
21356W        W37165  10.612   0.831  14.072  0.1734 -0.1777  0.0591
21357W        W37166   8.956  11.656  13.148  0.1885  0.0931 -0.2370
21358W        W37167   8.354   1.653  14.599  0.2786  0.1708 -0.1118
21359W        W37168   5.971   6.082   5.310  0.1162 -0.3287 -0.1591
21360W        W37169   7.781   3.154  11.604 -0.1239  0.1880  0.0613
21361W        W37170   6.585  15.375   1.577 -0.1329  0.0846 -0.2182
21362W        W37171   8.762  15.458   4.217 -0.3563 -0.0369 -0.0112
21363W        W37172  13.572   8.247  15.254  0.1058  0.2451  0.1960
21364W        W37173  17.591  12.495  14.505  0.0273  0.2744 -0.1493
21365W        W37174   8.786  13.986   4.266  0.0955  0.0149 -0.1228
21366W        W37175  13.191  13.289   2.025  0.1517 -0.0308  0.2082
21367W        W37176   7.524  15.134   1.341  0.0182  0.0528  0.3175
21368W        W37177   4.843   6.539  14.402 -0.0965 -0.0407 -0.1063
21369W        W37178  14.885  18.360   3.825 -0.4904 -0.0519  0.3619
21370W        W37179   9.026  10.312   0.556  0.0536 -0.0924  0.0227
21371W        W37180   7.068   0.948   5.056  0.0837  0.0167 -0.0443
21372W        W37181   7.143   0.064  12.650 -0.1040  0.1135 -0.3013
21373W        W37182   8.108   2.834   1.526 -0.0002 -0.3289 -0.0560
21374W        W37183  18.563  12.128   5.301 -0.2230  0.7111  0.1516
21375W        W37184   3.782  15.126  15.055  0.1505 -0.0122 -0.1494
21376W        W37185   1.171  14.256   2.404 -0.1706  0.3843  0.1949
21377W        W37186   9.006   2.249  12.717  0.2707 -0.2547 -0.0474
21378W        W37187  15.817   7.602   0.213 -0.4171  0.1607  0.1434
21379W        W37188   6.772  16.343  13.302  0.1031 -0.2103 -0.0159
21380W        W37189   9.264  17.218  11.097 -0.3274  0.0382  0.0471
21381W        W37190  10.591   8.787  13.211  0.1876  0.1130 -0.1693
21382W        W37191   9.763  17.983  13.382 -0.1315 -0.1867  0.0107
21383W        W37192   0.829   6.078   0.655  0.0912 -0.1234 -0.2172
21384W        W37193  16.110   6.152  15.196  0.0254 -0.1034  0.0504
21385W        W37194   9.532   7.188  13.379  0.2369  0.1826 -0.1864
21386W        W37195   1.958   6.405   4.380  0.4381 -0.0986 -0.1542
21387W        W37196   2.938  13.790  10.495  0.0457 -0.1769  0.1266
21388W        W37197  10.184  17.320  14.519  0.0017 -0.2501  0.1826
21389W        W37198   1.153  15.123  11.746 -0.1282 -0.0214  0.0684
21390W        W37199  15.530   5.361   1.266 -0.1824 -0.0364  0.4794
21391W        W37200   4.191  11.411   0.470  0.2371 -0.1947 -0.2970
21392W        W37201  18.298   2.828   4.047 -0.1899 -0.1802  0.5428
21393W        W37202   0.432  11.082  10.534  0.3789 -0.1380  0.2058
21394W        W37203  15.870   7.598  13.431 -0.0854 -0.0493 -0.2639
21395W        W37204   4.040   0.057   0.521  0.1388  0.1411  0.0107
21396W        W37205   3.029  13.444  11.113 -0.3741  0.2478 -0.2181
21397W        W37206   1.643  16.427  12.249  0.0890  0.2427  0.1202
21398W        W37207  11.912  13.232  13.086  0.3317 -0.1283 -0.1976
21399W        W37208  13.688  12.950   0.275  0.2493 -0.0775 -0.1831
21400W        W37209   7.263  16.385   4.518 -0.3347 -0.1400 -0.0906
21401W        W37210  17.502  12.906   1.912 -0.2143  0.1326 -0.0613
21402W        W37211  14.952  12.345   3.440  0.2637  0.0980 -0.1152
21403W        W37212   7.597   6.024  14.446 -0.0847  0.0981 -0.1209
21404W        W37213   6.919  15.860   5.016 -0.1146  0.1523  0.0554
21405W        W37214   0.939  14.482   2.902  0.1806  0.0977 -0.0767
21406W        W37215   5.997   0.269  11.319  0.1575  0.0141 -0.2628
21407W        W37216   5.403   2.137   3.173  0.0932  0.2587 -0.4063
21408W        W37217   9.721  13.713  13.795 -0.0488  0.0151 -0.1058
21409W        W37218  16.853  17.901  13.141 -0.1277 -0.0656 -0.3508
21410W        W37219  18.452   6.132   0.374 -0.0036  0.0337 -0.1095
21411W        W37220   9.299  13.694  10.375  0.1572  0.1790 -0.1999
21412W        W37221  15.242   6.335  12.333  0.1073  0.0397 -0.0560
21413W        W37222   0.557   9.506  11.944  0.3866 -0.0286 -0.1249
21414W        W37223  11.973   0.145   1.813 -0.1127 -0.1676 -0.2655
21415W        W37224  16.303   1.281   2.782 -0.1409  0.0478  0.0505
21416W        W37225  15.716  13.553   3.553 -0.1078 -0.3505  0.1246
21417W        W37226  12.359  12.877   1.354 -0.2134 -0.2730  0.0847
21418W        W37227  10.423  18.079   6.251  0.0128 -0.2643  0.1508
21419W        W37228   0.371  10.074   0.209 -0.2803  0.4157  0.0445
21420W        W37229   5.537  16.565   2.714 -0.0073  0.3557  0.0146
21421W        W37230   6.596   6.884   3.951  0.0373  0.1554  0.0944
21422W        W37231   9.902  16.084  11.576 -0.0632  0.0992 -0.0993
21423W        W37232  16.406  12.928   3.814  0.2404 -0.1116  0.0886
21424W        W37233   4.208   7.447   1.407 -0.0964 -0.1749  0.0740
21425W        W37234   3.339  13.574  10.656 -0.3439  0.1464  0.1140
21426W        W37235  17.880   4.155  13.795 -0.1288  0.1788 -0.2075
21427W        W37236   4.683   4.118   0.710  0.1536 -0.1746 -0.0090
21428W        W37237  14.572   7.428  13.558  0.1768 -0.3914 -0.0952
21429W        W37238  15.956  18.177  11.019 -0.1183  0.0573  0.2822
21430W        W37239   2.227   3.538  15.562  0.2172  0.0745  0.2371
21431W        W37240  13.012   1.404   4.480 -0.1846 -0.2492 -0.1465
21432W        W37241   0.908   4.663   3.678  0.0568 -0.3652  0.1559
21433W        W37242   7.409  15.541   1.978 -0.0689 -0.2153 -0.3412
21434W        W37243   4.496   5.220   4.175 -0.1800 -0.0587 -0.0022
21435W        W37244  13.614   8.205  10.896  0.1826 -0.2482 -0.0215
21436W        W37245   7.031  14.401  15.463 -0.4155  0.1378  0.1312
21437W        W37246   3.468   9.834   0.526  0.1534  0.0901 -0.0203
21438W        W37247   1.539   1.630  10.758 -0.2721 -0.0745 -0.1912
21439W        W37248   7.321   5.810  13.921  0.1120  0.0042  0.1922
21440W        W37249   7.288  18.568   5.242  0.1230 -0.3475  0.1542
21441W        W37250  12.298   2.390  11.823  0.0704 -0.1419  0.1309
21442W        W37251   9.944  14.944   3.167  0.0972 -0.0460  0.0039
21443W        W37252   2.749  15.351  11.871 -0.4111  0.2401  0.0874
21444W        W37253   3.755  15.656   0.806  0.0911  0.1051 -0.2383
21445W        W37254  18.474   1.797   3.303  0.3720  0.0787  0.3667
21446W        W37255   3.458  14.649   3.162  0.1094 -0.2568  0.0564
21447W        W37256   0.184   7.307  12.530 -0.1691  0.0702  0.2557
21448W        W37257  10.148  12.267  15.163 -0.1060  0.0598 -0.0994
21449W        W37258   8.900   8.576   3.068  0.0977 -0.1700  0.1099
21450W        W37259   4.220  12.837   5.432  0.3309  0.3009 -0.0925
21451W        W37260  13.357   2.389   2.311  0.0567  0.2181 -0.0200
21452W        W37261   6.054  17.657  12.073  0.0748 -0.1127  0.0609
21453W        W37262   1.448  18.338   0.664 -0.0678 -0.2668 -0.1627
21454W        W37263  10.415  17.035   5.183 -0.2066 -0.1377 -0.1084
21455W        W37264  12.691  13.240   4.994  0.3801 -0.3826  0.0324
21456W        W37265   4.656  13.422  15.576  0.0139  0.2596 -0.2876
21457W        W37266  15.304   4.227   5.437 -0.2164  0.2085 -0.0129
21458W        W37267  15.804  16.647  11.454  0.1123  0.2146  0.1135
21459W        W37268   9.196   2.176   3.168 -0.0295 -0.0165 -0.2699
21460W        W37269  16.496   9.362   3.653 -0.1744 -0.0827  0.3246
21461W        W37270   7.474   8.186   9.890 -0.0932  0.0039 -0.1713
21462W        W37271   9.529  12.029   2.277  0.1358  0.0541  0.4644
21463W        W37272   1.820  12.980   3.705 -0.1122  0.2349 -0.1297
21464W        W37273  17.286   1.126  13.643  0.0959  0.1619 -0.1224
21465W        W37274  14.158  13.877  15.171 -0.3559  0.0922 -0.0229
21466W        W37275   5.397  17.470   4.619 -0.0070 -0.4226  0.1289
21467W        W37276  15.791  13.811  11.209  0.0663 -0.1042  0.2307
21468W        W37277   3.982   3.717   1.469  0.1640 -0.0713  0.0619
21469W        W37278   9.252  18.468   4.999  0.1892  0.1377  0.1419
21470W        W37279   2.481   4.159  12.258  0.0461  0.2168  0.1751
21471W        W37280   3.031   4.629  14.447  0.0529  0.2013  0.1859
21472W        W37281   1.532  17.104   1.595  0.1100 -0.0810 -0.1751
21473W        W37282   9.264   6.448   3.689 -0.0776 -0.1076  0.3923
21474W        W37283  18.028   8.766   0.058  0.3168 -0.0333 -0.1897
21475W        W37284  15.264  17.856  12.122  0.0440 -0.0138 -0.0512
21476W        W37285   5.048   6.581  15.186  0.1861  0.1967  0.1099
21477W        W37286   3.382  13.100  14.693 -0.4343 -0.4400  0.2340
21478W        W37287  11.161   9.549   0.468 -0.0357 -0.1181 -0.1492
21479W        W37288   5.770   2.327   4.036 -0.0606 -0.1905  0.3732
21480W        W37289  17.194   0.353   3.499 -0.1360  0.4639 -0.0712
21481W        W37290   8.719   2.493   1.432 -0.1943 -0.0129  0.0691
21482W        W37291   8.130  15.498  13.590 -0.0868 -0.2736 -0.2496
21483W        W37292  13.172  17.172  11.167 -0.0353  0.1760  0.1538
21484W        W37293  12.936  12.267  10.929  0.0046 -0.2055 -0.2670
21485W        W37294   4.936   2.513  12.205  0.0192  0.2687 -0.0175
21486W        W37295  13.865   5.969  12.301  0.0568 -0.0207  0.0889
21487W        W37296   8.486   4.592  13.999  0.1880  0.2160 -0.1505
21488W        W37297  15.934  16.747  11.948  0.2193 -0.0826  0.1641
21489W        W37298   7.134  16.007   3.387  0.1429 -0.0486 -0.2946
21490W        W37299   8.494  14.239  14.328  0.1606  0.0342 -0.1809
21491W        W37300   7.732   9.088   0.311 -0.0104 -0.3246  0.0967
21492W        W37301   3.504   8.929   4.631 -0.0448  0.3339  0.0171
21493W        W37302  15.037   0.082   1.393 -0.2322 -0.1554 -0.0773
21494W        W37303   1.075  15.737   4.985 -0.1561  0.2354  0.4594
21495W        W37304  11.891  13.260  10.298 -0.0233 -0.0481 -0.0869
21496W        W37305   5.893  18.669   0.729  0.0297  0.1816  0.0262
21497W        W37306  11.157   6.272  14.715  0.1787 -0.0149  0.0795
21498W        W37307   1.324   5.035  10.936 -0.1034 -0.1656 -0.3568
21499W        W37308  10.282  10.828   5.430 -0.1478 -0.0524  0.0911
21500W        W37309   1.324  11.792   1.320  0.1407  0.0425  0.0599
21501W        W37310  14.327  18.010   2.981 -0.0508 -0.3401 -0.1010
21502W        W37311  17.965  12.281   5.042 -0.2620 -0.3497  0.0116
21503W        W37312   3.931  10.773   1.354  0.0190 -0.2340  0.0148
21504W        W37313  11.294  18.521  11.675  0.1792  0.3475  0.2150
21505W        W37314   9.296   3.078   2.853  0.2241  0.1603 -0.2055
21506W        W37315   4.638  11.094  14.097  0.0669 -0.0178  0.3472
21507W        W37316  14.381   5.953   3.115  0.2922 -0.2206  0.1518
21508W        W37317  10.322   2.693  13.840 -0.2621  0.1561  0.1412
21509W        W37318   5.925  12.728   3.940 -0.2141 -0.1231 -0.1191
21510W        W37319   5.458  11.975   3.076  0.0452 -0.1805 -0.1444
21511W        W37320  11.659   0.997  14.403  0.1139  0.0798 -0.0432
21512W        W37321   4.204  10.032  13.714  0.1253  0.2474 -0.1327
21513W        W37322  16.798   8.395  12.741  0.1661  0.2313 -0.1291
21514W        W37323   0.110   4.507  12.461 -0.2339  0.0110  0.2273
21515W        W37324  14.743   2.488   1.800 -0.1050  0.0149  0.2883
21516W        W37325  16.534  17.840  14.267  0.3060 -0.0446  0.0359
21517W        W37326  17.620   2.023  13.400  0.1534 -0.1004 -0.3025
21518W        W37327   9.216  16.003   3.507 -0.0656  0.1810 -0.0097
21519W        W37328   2.320  17.307  14.054 -0.2222  0.2470 -0.0561
21520W        W37329  13.748  14.231   3.761 -0.3121 -0.1969  0.0448
21521W        W37330   0.064  13.569   4.766  0.0468 -0.1683  0.1472
21522W        W37331  14.429   9.766   0.144 -0.1089 -0.0785 -0.0636
21523W        W37332   1.066   9.920   1.634  0.0094  0.1912 -0.1249
21524W        W37333  18.623  10.010  15.578 -0.1103  0.1047  0.0866
21525W        W37334  11.909   6.344   0.281 -0.2216 -0.1437 -0.0154
21526W        W37335   2.958   7.266   2.383 -0.3868 -0.0392  0.2238
21527W        W37336  17.153   3.167  14.332  0.1117  0.0940  0.1349
21528W        W37337  17.002   0.847  13.959 -0.1220  0.1229 -0.0325
21529W        W37338   2.711   4.970  13.220  0.1879 -0.1308 -0.1396
21530W        W37339   8.062   1.448   3.483 -0.4356 -0.3883  0.2265
21531W        W37340   3.381   4.034  10.286  0.0492 -0.1145  0.3806
21532W        W37341  17.971  12.988  12.477 -0.3582 -0.1044  0.3848
21533W        W37342  16.002   1.530  13.108  0.4380  0.0280  0.2488
21534W        W37343   3.914  12.915   2.257 -0.1637 -0.0159  0.1316
21535W        W37344   2.883   5.318  15.105  0.1085  0.1916 -0.1151
21536W        W37345   9.582  15.921   9.872 -0.0995 -0.3375 -0.0391
21537W        W37346   0.866   1.069   4.730  0.0407  0.0968 -0.3541
21538W        W37347   2.701   7.145  13.072  0.1485 -0.1136 -0.1375
21539W        W37348  13.408  17.962   1.776 -0.0368 -0.0260  0.0318
21540W        W37349  17.271  11.594   0.570  0.2014  0.1030  0.0892
21541W        W37350   7.397   6.608  13.453  0.1395 -0.1442 -0.1229
21542W        W37351  14.763   5.698  12.555  0.1059  0.1037 -0.2588
21543W        W37352   9.946  14.797  12.144 -0.2523  0.3145 -0.2110
21544W        W37353  16.944   0.877   2.300  0.0240 -0.2424  0.0178
21545W        W37354   4.061  15.432  12.756  0.3068 -0.0162 -0.1758
21546W        W37355   9.670   3.654  12.205  0.0266  0.2068  0.0332
21547W        W37356   9.482   6.487  12.165 -0.0925  0.3069  0.0487
21548W        W37357  15.480   1.605   0.706 -0.3082  0.2328  0.0395
21549W        W37358   0.915  14.517   0.290 -0.1086  0.1586  0.2529
21550W        W37359  18.139  12.942  10.843 -0.1918 -0.3080  0.4760
21551W        W37360  17.883  12.271   0.888 -0.0154  0.0981  0.0829
21552W        W37361  14.926   1.151   4.516 -0.2363 -0.1042 -0.0295
21553W        W37362  13.294   8.569   1.611  0.1797  0.0600  0.1595
21554W        W37363   2.678  17.756  12.287 -0.1746 -0.0865  0.1261
21555W        W37364   7.924  15.324  14.195 -0.2256  0.0575  0.1174
21556W        W37365  13.255   2.177   5.416  0.1810 -0.1445 -0.2884
21557W        W37366   5.416   6.002  12.921  0.1382 -0.1486 -0.2075
21558W        W37367   3.699   4.426   0.733 -0.2999  0.0729  0.1079
21559W        W37368  16.406   9.806   3.979 -0.0005  0.0922  0.1667
21560W        W37369   8.772   6.868   2.089  0.1229 -0.1565  0.0983
21561W        W37370   0.753  12.505  11.127  0.1602  0.0723 -0.1075
21562W        W37371  16.234   8.285   0.675  0.1300  0.0880  0.0481
21563W        W37372  12.584  17.975  14.801  0.1049 -0.1741 -0.1899
21564W        W37373   1.181   2.235  13.013 -0.0152  0.3666 -0.1132
21565W        W37374   7.021  17.510  11.917 -0.1596  0.2436  0.0752
21566W        W37375  10.735  18.299  13.083  0.1332 -0.0596  0.0304
21567W        W37376   8.529   0.393   2.608 -0.0266  0.0401  0.1854
21568W        W37377   7.084   7.809   1.229  0.0400 -0.1327  0.0232
21569W        W37378   2.647   3.066  12.620  0.1865 -0.0395  0.1516
21570W        W37379  17.816  17.768   2.649  0.1245  0.1565 -0.2755
21571W        W37380  12.621  15.337  13.385  0.1108 -0.0432 -0.0677
21572W        W37381  10.618  15.571  11.267 -0.0478  0.2729  0.4080
21573W        W37382  15.698  17.452  13.711  0.1523  0.1865 -0.0896
21574W        W37383  17.742  13.187  10.968  0.0550 -0.1892  0.0515
21575W        W37384   5.162  12.385   2.390 -0.0260 -0.0723  0.4880
21576W        W37385  12.385  18.329   4.663 -0.0269 -0.0950  0.3603
21577W        W37386   7.721  16.560  15.035  0.2878 -0.0347 -0.2153
21578W        W37387  15.385  13.810  14.821  0.1135  0.2042  0.0205
21579W        W37388   6.297   4.143  15.167 -0.0445  0.0384  0.0212
21580W        W37389  10.433   8.111   3.332  0.3021 -0.3273 -0.1838
21581W        W37390   4.503   2.592   3.586  0.3530  0.0134 -0.0625
21582W        W37391  14.056   4.755  13.738 -0.0755  0.4515 -0.1208
21583W        W37392  15.613   9.078   5.109  0.1584 -0.0534  0.1435
21584W        W37393  16.912  11.806  15.377  0.1553 -0.0070 -0.0530
21585W        W37394   0.028   6.286   1.986 -0.1999 -0.1718  0.0362
21586W        W37395  11.810   7.918   3.529 -0.0291  0.0306 -0.0299
21587W        W37396  16.328  16.833   3.536  0.0916  0.3538 -0.0459
21588W        W37397   7.458   9.452   0.061 -0.1169  0.0451 -0.0389
21589W        W37398  10.305  15.541  15.518 -0.0728 -0.0105  0.3489
21590W        W37399  15.768  14.444   4.781  0.3519 -0.3906  0.3418
21591W        W37400  10.796   3.282   4.389 -0.1548 -0.1187  0.0735
21592W        W37401   6.782   0.582  14.754  0.1369 -0.1994 -0.2453
21593W        W37402  10.656   7.689  13.986  0.1013 -0.1646  0.0002
21594W        W37403   5.296  14.479   3.855 -0.1887 -0.0118 -0.2871
21595W        W37404   4.037   1.602   4.170  0.0757 -0.2233 -0.0113
21596W        W37405  16.687  14.046   3.664 -0.0300  0.1157 -0.3105
21597W        W37406   8.153   6.616   1.386  0.2335  0.0193  0.0568
21598W        W37407   4.302   5.231  13.705 -0.0562 -0.1297  0.0696
21599W        W37408  11.799  10.279  11.846 -0.1316 -0.0900  0.2790
21600W        W37409   7.469   1.161  14.570  0.2223  0.1514  0.1430
21601W        W37410   8.408  12.350  14.573 -0.2343 -0.0225 -0.1570
21602W        W37411   1.736   8.692  12.985 -0.1707 -0.0913 -0.2039
21603W        W37412  13.853   4.595  14.361 -0.1863 -0.2247  0.1378
21604W        W37413   5.352  16.108   3.497 -0.1248  0.0500 -0.1235
21605W        W37414   3.640  15.100   2.296  0.1603 -0.0166 -0.3147
21606W        W37415  12.739   1.848  11.363 -0.0498  0.1975 -0.0417
21607W        W37416  14.636  12.076  10.944 -0.0380 -0.1276 -0.1423
21608W        W37417   7.504   1.535  14.185 -0.3121  0.2505 -0.1343
21609W        W37418   7.480   5.327   4.321  0.1390  0.1975  0.0896
21610W        W37419  14.780  14.046   1.236 -0.3028 -0.0741 -0.0445
21611W        W37420  14.730   9.949   0.854 -0.1306  0.3232  0.2323
21612W        W37421   1.038  16.617   4.664  0.2549  0.1622 -0.0890
21613W        W37422  17.028  12.637   1.046  0.1477  0.1949  0.0657
21614W        W37423   5.488  16.614   0.465 -0.3854  0.0677 -0.3286
21615W        W37424  14.873  17.788   1.299 -0.0265 -0.1199  0.2254
21616W        W37425   4.267  13.748   0.178  0.2325 -0.1265  0.0869
21617W        W37426   1.231   8.362   4.214 -0.0205  0.2082  0.2988
21618W        W37427  16.987   0.089  13.375  0.1353  0.4273 -0.0154
21619W        W37428   9.044  18.119  14.788 -0.0860 -0.0961 -0.1575
21620W        W37429   5.846   2.548   0.541  0.0301 -0.0579  0.0217
21621W        W37430   4.516  17.155   3.234  0.0202 -0.1373  0.2250
21622W        W37431   3.562   2.535   0.006  0.1867  0.0122 -0.2849
21623W        W37432  12.233  16.322  11.455 -0.1208  0.4756 -0.3541
21624W        W37433   8.925  17.863  12.864 -0.1258 -0.0174 -0.2145
21625W        W37434   2.577   4.200  14.930 -0.0432  0.0906  0.1144
21626W        W37435   8.018   5.200   5.201  0.1663  0.1703 -0.2184
21627W        W37436   9.818  10.066   0.901  0.0678 -0.0897 -0.2626
21628W        W37437   0.421   9.092   3.662  0.2994  0.1429 -0.0403
21629W        W37438  14.918   6.566  14.909  0.1762  0.1179  0.0777
21630W        W37439   5.849  10.417  15.099  0.4508  0.0498  0.0069
21631W        W37440   8.916   9.445   3.209  0.1026 -0.0274  0.1760
21632W        W37441  13.781   8.174  14.803 -0.0237  0.0025  0.0517
21633W        W37442   9.057   5.910  12.145  0.2601  0.2293  0.2594
21634W        W37443  16.436   8.934  11.019  0.0517 -0.1785 -0.1680
21635W        W37444  18.586  14.912  14.447 -0.3951  0.1393 -0.0810
21636W        W37445   5.300   3.642  12.694 -0.4150  0.0594  0.1315
21637W        W37446  16.281   9.351  15.542 -0.0353  0.0976  0.1238
21638W        W37447  13.992   6.122   3.561  0.0662  0.0995  0.2382
21639W        W37448  14.400   5.691  14.054 -0.0477  0.2791 -0.0389
21640W        W37449   1.065   7.201  11.661  0.3247  0.1878  0.2060
21641W        W37450   8.581   1.324  13.819  0.4270  0.3335  0.0469
21642W        W37451   7.559   1.961   2.371  0.4314 -0.2689  0.3514
21643W        W37452   5.780   1.065  15.029  0.0372  0.0018 -0.2466
21644W        W37453   3.005  15.656  11.546  0.0243  0.0639 -0.0537
21645W        W37454  10.364  13.079   1.165  0.3011  0.2329  0.1548
21646W        W37455  17.937  10.766  15.309  0.0321  0.0826  0.2150
21647W        W37456   1.213   6.459   2.306  0.0546  0.1516  0.0406
21648W        W37457   0.760   0.132  11.886  0.0358  0.1036 -0.1849
21649W        W37458  17.488  16.450  15.116 -0.0349  0.3665 -0.2855
21650W        W37459  12.997  13.907  11.280  0.0690 -0.1791  0.0239
21651W        W37460  18.130  18.355  12.385 -0.2159  0.1145 -0.1882
21652W        W37461   3.971   7.516  14.322  0.0482  0.0548 -0.0187
21653W        W37462  12.643   0.404   2.404  0.6441  0.0440 -0.1570
21654W        W37463   8.448   9.720  15.490 -0.0549 -0.0992  0.1943
21655W        W37464   8.216   3.077  14.043  0.1689  0.1329 -0.3590
21656W        W37465  14.948   9.546  13.580  0.2312  0.0746 -0.0659
21657W        W37466   1.701  11.309  11.060  0.0984 -0.1520 -0.1718
21658W        W37467  12.048  14.861  11.295 -0.3699  0.3602 -0.0067
21659W        W37468  15.442  15.002  11.376  0.2942 -0.0077 -0.1428
21660W        W37469  17.823   5.896  15.247 -0.0654  0.0641 -0.1650
21661W        W37470  13.752  13.344  12.409  0.0935  0.1496  0.0411
21662W        W37471  11.449  11.399  12.619 -0.1338  0.2506 -0.4326
21663W        W37472  12.710  13.438  14.458 -0.0411 -0.1285 -0.1763
21664W        W37473  17.242  16.999   4.081  0.0449  0.1816  0.1679
21665W        W37474  16.589  14.681  14.295 -0.2818  0.0233  0.0922
21666W        W37475   5.470   2.950  10.538  0.0328 -0.3029 -0.2992
21667W        W37476  17.421   3.134   3.613  0.3530  0.0238 -0.2484
21668W        W37477  15.060  14.921   2.650 -0.1552 -0.2356  0.1599
21669W        W37478   3.976  10.625  14.337  0.1803  0.0658  0.1300
21670W        W37479   8.306   2.024  15.567 -0.0195 -0.0073 -0.0671
21671W        W37480  12.029  10.659   3.171  0.1249  0.0838 -0.0140
21672W        W37481  14.907   3.750  13.020 -0.2067 -0.1188 -0.1581
21673W        W37482   8.703   7.923  15.018  0.3164 -0.0367 -0.1944
21674W        W37483  17.244  17.638   0.100  0.1552  0.1506  0.1737
21675W        W37484   4.470  18.430   3.298  0.0032 -0.0561  0.1832
21676W        W37485   6.342  14.398   1.238 -0.1220  0.3958  0.0545
21677W        W37486   1.759   2.050   0.680 -0.0434  0.1225 -0.0272
21678W        W37487  15.427   6.015   2.316 -0.1145 -0.0199  0.1243
21679W        W37488  11.177   7.574   3.272  0.4301  0.0171  0.1195
21680W        W37489   3.737  12.156   3.307  0.1424  0.1365 -0.4661
21681W        W37490   9.722   0.941   1.781  0.1480 -0.0787  0.1738
21682W        W37491  17.211  17.813  12.828 -0.1479  0.0963  0.2281
21683W        W37492  13.054  14.684  15.050 -0.1029  0.0896 -0.2600
21684W        W37493   9.522   1.037  15.151  0.0730  0.0195 -0.1653
21685W        W37494   6.133   9.169  14.627  0.1192 -0.0370 -0.0257
21686W        W37495   0.565  10.705   0.044  0.0502 -0.2033  0.1828
21687W        W37496   9.781  12.859   1.939 -0.0696 -0.0956 -0.2052
21688W        W37497  17.185   5.836   0.908 -0.2901  0.1808 -0.0508
21689W        W37498  13.523   7.449   2.692  0.0238 -0.1347  0.1365
21690W        W37499   6.879  11.653  14.868 -0.0586  0.2759  0.1217
21691W        W37500   1.177  11.287   1.138 -0.1880 -0.1599  0.0884
21692W        W37501  16.071  12.178   3.373  0.0229 -0.0142 -0.0875
21693W        W37502   8.651   1.196   0.159  0.3020 -0.1414 -0.0662
21694W        W37503   1.662  15.064  15.008  0.1884  0.1771 -0.0892
21695W        W37504  18.280   3.983  11.308  0.1032  0.2328 -0.0522
21696W        W37505   6.097  15.295   1.532 -0.3410  0.0472  0.1015
21697W        W37506  12.394  12.520   3.071  0.2965 -0.1014 -0.1151
21698W        W37507  16.585  17.893  12.196  0.0376 -0.3922  0.0709
21699W        W37508   9.093  12.845  11.657  0.3780 -0.0413 -0.0113
21700W        W37509  11.703  11.799   5.552 -0.2588  0.4073 -0.0552
21701W        W37510  13.059   9.154  11.044  0.0696  0.3528  0.2310
21702W        W37511   8.609   6.503  13.512 -0.0401 -0.1452 -0.1751
21703W        W37512   3.618   2.150   2.102  0.0941 -0.1199 -0.1633
21704W        W37513   8.220  12.906   3.678 -0.2029 -0.1699  0.1734
21705W        W37514   2.017   7.526   2.453 -0.1218  0.1911  0.0676
21706W        W37515   7.175  11.706  15.374  0.0214 -0.0526  0.0079
21707W        W37516   3.617   3.250   0.719  0.1106 -0.1851  0.0908
21708W        W37517  15.135   8.851   0.215 -0.0447 -0.1418 -0.1163
21709W        W37518   5.084   9.559   4.021  0.2410  0.0071  0.3397
21710W        W37519  12.288  11.576   6.220 -0.1666 -0.0969  0.0900
21711W        W37520  11.076  10.511  12.881 -0.0225  0.0164 -0.0796
21712W        W37521   2.155  10.057  14.158  0.1550 -0.0664 -0.0829
21713W        W37522  12.672  17.684  11.108 -0.1246 -0.1862  0.1267
21714W        W37523  15.474  11.527   2.070  0.1621  0.0281 -0.1764
21715W        W37524  14.869  16.833   1.331  0.2484 -0.0745 -0.2707
21716W        W37525  15.415   4.574  11.894 -0.1874 -0.0439 -0.0330
21717W        W37526  16.889  16.645   1.468  0.1382  0.4384  0.1587
21718W        W37527  11.713  12.059   0.528  0.4817 -0.1041 -0.0159
21719W        W37528   7.259   1.426   2.143 -0.3780  0.4619  0.1358
21720W        W37529  10.985   2.328   4.375 -0.0047  0.1460  0.2036
21721W        W37530   2.668   2.387   1.443  0.2509  0.0497  0.0564
21722W        W37531   9.558   5.962   2.591  0.0054  0.2417  0.1292
21723W        W37532   8.132  18.393  11.797  0.1896  0.1463  0.1641
21724W        W37533  14.875  10.983   0.151 -0.1525  0.1165  0.1738
21725W        W37534   2.651  11.692   2.389 -0.0114  0.2158 -0.3260
21726W        W37535   8.212   4.286  11.532  0.1338 -0.1094 -0.0191
21727W        W37536  10.254   0.046   5.677  0.2610  0.1013  0.1410
21728W        W37537   3.056   8.663  13.739  0.3357  0.2804 -0.1198
21729W        W37538   1.743  10.179  11.778 -0.0094 -0.1818  0.4407
21730W        W37539  11.361   7.528  15.608 -0.1516  0.1088  0.1650
21731W        W37540  11.862  17.063   4.090 -0.2092 -0.1283 -0.1023
21732W        W37541   5.331  14.295   1.009 -0.4201  0.1684  0.0276
21733W        W37542   9.348   4.996  13.952  0.1511 -0.0360  0.3382
21734W        W37543  16.646   4.532   5.399 -0.2681 -0.2950 -0.2635
21735W        W37544   0.979  18.153   1.574  0.2090  0.3289 -0.0998
21736W        W37545  13.452   8.631  15.572 -0.1651  0.2468 -0.1874
21737W        W37546  13.502   3.790  13.949  0.1932  0.1579  0.0200
21738W        W37547  13.726   4.609  12.583 -0.0989  0.0691  0.0732
21739W        W37548   5.686  12.854  10.137  0.0479 -0.0387  0.0366
21740W        W37549   3.033  16.369  14.959 -0.1529  0.0723  0.1589
21741W        W37550   1.829   3.150   5.475 -0.0243 -0.2344  0.0235
21742W        W37551  16.119  15.608  14.347 -0.2050 -0.1628  0.0540
21743W        W37552  14.845   2.066  15.332  0.0086  0.0157 -0.1915
21744W        W37553  18.496  17.493   4.450  0.1301  0.0238  0.3895
21745W        W37554  15.557   1.641   4.593  0.2087  0.1914 -0.2520
21746W        W37555   7.081   1.435   4.184 -0.0823  0.2523 -0.1455
21747W        W37556   5.772  17.132  12.537  0.2908 -0.2861 -0.2360
21748W        W37557   0.553  11.664  14.961  0.0509 -0.0380 -0.2797
21749W        W37558   1.880   0.661  14.103  0.0258 -0.0024 -0.3088
21750W        W37559   2.398   3.000  14.010  0.1166 -0.0255  0.0384
21751W        W37560  18.616  16.773   4.060 -0.0132  0.0510  0.1400
21752W        W37561   1.057   9.803  12.262 -0.4135 -0.0022 -0.1748
21753W        W37562   6.736  10.641  11.451  0.0730 -0.0630  0.4297
21754W        W37563   4.806   0.003  13.125 -0.2784  0.3626  0.0294
21755W        W37564   6.564  12.631  12.329 -0.0640 -0.0741  0.0675
21756W        W37565   6.507  15.280  12.246  0.1185 -0.1070  0.1447
21757W        W37566   6.898   2.364   2.492  0.0312 -0.0076 -0.0590
21758W        W37567  13.336  11.672  13.508  0.0350  0.0775 -0.1592
21759W        W37568  15.459   0.879  14.962  0.1436  0.2607  0.1132
21760W        W37569  14.326  11.222  11.823 -0.0338  0.2187 -0.1328
21761W        W37570   1.597  18.414  13.302 -0.0110 -0.0253  0.1685
21762W        W37571  14.060  11.307  13.523  0.0292  0.5229 -0.2327
21763W        W37572   0.834  12.527   4.673 -0.0334 -0.1284  0.2183
21764W        W37573  14.090  12.959  14.803  0.4884  0.1966 -0.2359
21765W        W37574   4.162  15.528  13.263  0.0959 -0.2378  0.1383
21766W        W37575  17.883   1.601  13.286  0.1312  0.0073  0.4176
21767W        W37576   9.292   2.274   5.507 -0.1156 -0.0149 -0.1690
21768W        W37577  14.796  15.141  15.448 -0.1840  0.0983 -0.0129
21769W        W37578   4.871   3.771   1.008 -0.1118 -0.1250 -0.0766
21770W        W37579  15.277   3.057   2.355  0.1702 -0.0440 -0.0036
21771W        W37580  10.745  15.894  11.602  0.0459  0.3066 -0.3625
21772W        W37581  12.616  14.176   4.790 -0.2410  0.2951 -0.0017
21773W        W37582   5.623   5.680   2.666 -0.1952  0.5194 -0.2826
21774W        W37583  15.950  12.196  14.363 -0.1252 -0.0573  0.0996
21775W        W37584  18.125   7.997   2.399 -0.1940  0.2513 -0.0964
21776W        W37585  16.369   1.262  10.322 -0.2891  0.0955 -0.0599
21777W        W37586  11.808  18.627  13.118 -0.1035  0.1442 -0.1008
21778W        W37587  16.800   9.330  15.356 -0.0169  0.1416  0.0822
21779W        W37588   0.039  14.298  11.400 -0.0825 -0.4203 -0.1693
21780W        W37589   7.042   7.494   0.284 -0.0618  0.0849  0.3466
21781W        W37590   6.319   2.353  10.708 -0.0191 -0.0492  0.2579
21782W        W37591  13.579  16.685  15.130 -0.1785  0.2843  0.0688
21783W        W37592   7.056  12.801  11.105  0.1040  0.1331 -0.0961
21784W        W37593   0.522  12.973   2.771 -0.2008 -0.0461 -0.2301
21785W        W37594  15.566   3.777   0.285  0.0975 -0.0842 -0.0995
21786W        W37595   3.136   4.182   2.975 -0.2186  0.0711  0.2359
21787W        W37596   2.305  17.147  12.138  0.0520 -0.2991 -0.1253
21788W        W37597   1.083  10.328  12.743  0.0706 -0.0281  0.1440
21789W        W37598   5.197  11.699   2.193 -0.1490 -0.3325  0.0358
21790W        W37599   5.104   8.356   0.436 -0.0138  0.0559  0.2492
21791W        W37600   6.520   0.689  15.603  0.0616  0.2441 -0.0562
21792W        W37601   6.214  15.508  15.130 -0.0036 -0.1520 -0.0387
21793W        W37602  12.854  16.735   1.482  0.3813  0.2612  0.0700
21794W        W37603   0.740   6.442   2.318 -0.1217 -0.1584  0.1973
21795W        W37604   2.455   9.189   3.106  0.0143  0.0177 -0.1200
21796W        W37605  12.377   0.834  11.627 -0.4501  0.3460  0.1054
21797W        W37606  16.774  12.123   0.693  0.0692  0.2622  0.2134
21798W        W37607   4.177   0.587   5.345 -0.1991  0.1483  0.3839
21799W        W37608   3.432   8.667   9.995  0.1537  0.0202  0.0477
21800W        W37609  12.591  14.101   2.002  0.0266 -0.0115  0.1539
21801W        W37610   6.793   9.256   3.934 -0.0774  0.1066 -0.0779
21802W        W37611  12.315   8.236   4.367  0.1741  0.2636  0.1190
21803W        W37612  11.057   2.086   6.031 -0.1140 -0.2010  0.1716
21804W        W37613   6.873  12.193  12.340 -0.0273  0.0656 -0.2846
21805W        W37614   7.918   8.049   5.122 -0.3368  0.0079 -0.1908
21806W        W37615  11.166   8.145   2.639 -0.2503 -0.2359 -0.1625
21807W        W37616  12.001   0.424  11.585  0.1646 -0.2932 -0.1217
21808W        W37617   6.291  16.376  14.148  0.0846 -0.3819  0.1622
21809W        W37618   7.816  14.224   4.692  0.1766  0.0647  0.2361
21810W        W37619   8.102  11.960   2.562  0.0486 -0.0401  0.0633
21811W        W37620  17.352  15.003  14.437 -0.0879  0.0117  0.2057
21812W        W37621  16.220   7.793   0.418  0.0910  0.3388  0.0255
21813W        W37622   0.458   8.972   3.132  0.0103  0.0169 -0.0115
21814W        W37623  12.156  12.578  11.832 -0.0705 -0.3889 -0.0734
21815W        W37624   6.782  12.575   0.801  0.2192 -0.0663 -0.2232
21816W        W37625  14.581   2.848   0.959 -0.2333  0.0046 -0.0527
21817W        W37626   2.638   4.038   1.481  0.0840  0.2454 -0.2250
21818W        W37627   7.137  13.217   5.092 -0.0882  0.0127  0.0043
21819W        W37628   2.861  13.607   4.101 -0.3625 -0.0620  0.0179
21820W        W37629  15.574  13.845   2.670 -0.0370  0.0159  0.1662
21821W        W37630  17.881  14.326   2.091 -0.1189 -0.1101 -0.1582
21822W        W37631   8.436   5.661  12.757  0.0152 -0.0316  0.0501
21823W        W37632  12.470  12.055   5.960 -0.0595  0.0192  0.1654
21824W        W37633   5.831  12.495   5.307 -0.0082 -0.1996 -0.0400
21825W        W37634   2.556   8.914  15.407  0.0716 -0.3698 -0.0827
21826W        W37635  17.880  17.156   1.652 -0.0007 -0.0510 -0.4135
21827W        W37636   9.225  15.884   4.852 -0.0814  0.0573 -0.2573
21828W        W37637  18.516  16.922  11.259  0.2565 -0.3645  0.4463
21829W        W37638  17.668  13.376  11.448 -0.0550 -0.1125 -0.2141
21830W        W37639   7.185   3.403   1.409  0.3105 -0.1243  0.0654
21831W        W37640  17.250  10.411   2.971  0.2523 -0.0242  0.1748
21832W        W37641   5.194   0.261  10.493  0.0678 -0.0483  0.3378
21833W        W37642   4.594  16.578   4.269  0.1315 -0.1698  0.0075
21834W        W37643  10.942   2.976  12.844 -0.5955  0.1765 -0.0678
21835W        W37644   3.330  15.118  15.291  0.1849 -0.0237  0.0075
21836W        W37645   6.158  17.275  11.128 -0.2347  0.0857  0.1612
21837W        W37646  11.728  12.353  13.601 -0.1058  0.0370  0.2103
21838W        W37647  14.071  11.191  15.609  0.1289  0.1460  0.2978
21839W        W37648   9.739  14.789   0.823 -0.5410 -0.0946  0.1890
21840W        W37649   7.227   6.628  14.887 -0.0889 -0.2695 -0.0006
21841W        W37650   3.238  11.126  15.409  0.1741  0.0187 -0.0845
21842W        W37651   2.903   8.496   0.886  0.1133 -0.1612 -0.0048
21843W        W37652  10.664  12.202   5.541  0.2005 -0.2423  0.1230
21844W        W37653   6.636  12.274  13.297  0.1124 -0.1915  0.0504
21845W        W37654   7.608   1.377   3.788 -0.0113  0.2566  0.1570
21846W        W37655  10.948   0.051  14.319 -0.3329  0.0304  0.1151
21847W        W37656   8.310  12.305   0.909 -0.0559 -0.2414 -0.0615
21848W        W37657  11.646   5.864   3.696  0.0638 -0.0923  0.0857
21849W        W37658  15.004  14.288  12.503  0.0217 -0.1818 -0.2555
21850W        W37659   5.968  17.424   3.696 -0.1530  0.0682  0.0861
21851W        W37660  12.920   3.205  11.521 -0.2116 -0.0200  0.1550
21852W        W37661  12.210   6.955   2.476 -0.0540  0.4006 -0.4365
21853W        W37662  12.767   8.699   4.835 -0.1997 -0.2511  0.1796
21854W        W37663   6.531  15.243   4.551 -0.0631  0.1284 -0.1588
21855W        W37664   6.684   4.217  11.588 -0.5094  0.0034  0.3338
21856W        W37665   8.096  12.808   4.724  0.2169  0.0918 -0.1247
21857W        W37666  10.835  15.543  15.330 -0.0402  0.1978  0.0165
21858W        W37667   5.017   0.272  14.807  0.3926  0.1095  0.1350
21859W        W37668   1.006  10.266   3.493 -0.0995 -0.1053 -0.0111
21860W        W37669   2.731   2.990   0.271  0.0111  0.0820  0.3268
21861W        W37670   8.505  11.019  13.124 -0.0490 -0.0692  0.0027
21862W        W37671   8.527   9.179  14.229 -0.0137 -0.0188  0.0781
21863W        W37672  10.174   1.887   2.082  0.0302  0.1413 -0.1954
21864W        W37673  17.909   4.975  15.127  0.3887 -0.1097 -0.0283
21865W        W37674   6.771   4.673   3.107  0.2325  0.1293  0.0436
21866W        W37675  18.287  12.621   2.863  0.0490  0.1628 -0.0145
21867W        W37676   5.263  18.452   4.499 -0.0539  0.0925  0.1927
21868W        W37677   1.516   6.863   5.451  0.1823  0.0615 -0.2506
21869W        W37678  12.683   1.180  14.243  0.1891 -0.1458  0.0642
21870W        W37679   4.445   4.309   5.540  0.1315 -0.1006 -0.2517
21871W        W37680  15.252  17.256  13.556  0.0593  0.2013  0.0452
21872W        W37681  14.378  13.066   0.566  0.2634 -0.0460  0.0436
21873W        W37682   1.208  14.893  15.020 -0.2064  0.3831  0.1714
21874W        W37683  11.529  18.343   3.607 -0.0703  0.1119  0.2873
21875W        W37684  14.505   3.081  11.692 -0.2236 -0.0417 -0.1472
21876W        W37685   0.564  16.395  15.547  0.2947 -0.0374 -0.0771
21877W        W37686  11.446   3.411   0.833 -0.2269 -0.0112  0.1153
21878W        W37687   6.904  11.169   2.201 -0.2859  0.0343 -0.1579
21879W        W37688   5.611   0.769   1.137 -0.0240  0.1278  0.0485
21880W        W37689  11.417   8.532  11.632  0.0892 -0.2530  0.1004
21881W        W37690   1.783   4.768   2.025 -0.2345 -0.4103 -0.0928
21882W        W37691   4.403   7.205  12.501  0.0401  0.1523  0.0360
21883W        W37692  18.022  12.645  13.513 -0.1772 -0.1618  0.0129
21884W        W37693  12.243  10.489   3.897 -0.0710 -0.0846  0.0273
21885W        W37694   3.289   1.772   1.164  0.3444 -0.1904  0.0909
21886W        W37695   0.014   4.789  12.851  0.2657  0.1201  0.0840
21887W        W37696  11.367   3.112  12.502 -0.1680 -0.1505  0.1445
21888W        W37697   0.794   2.637  15.461 -0.0351  0.1046 -0.0791
21889W        W37698   5.978  15.402  12.265 -0.4962  0.0340  0.1370
21890W        W37699  16.395  17.910   4.468  0.1018 -0.0067  0.0193
21891W        W37700   0.254  10.503   5.331 -0.2140 -0.2469  0.0352
21892W        W37701  16.307   8.061   2.377 -0.1334 -0.0900 -0.0243
21893W        W37702   1.122  15.877  11.283 -0.0679 -0.2900 -0.1278
21894W        W37703   0.581   8.863   0.139  0.1895 -0.1039  0.1997
21895W        W37704   8.953  12.107  13.479 -0.1543 -0.1376 -0.0782
21896W        W37705   2.693   3.353  11.141 -0.1958  0.0445  0.0559
21897W        W37706   7.777   5.439   2.540  0.0844 -0.1188  0.0576
21898W        W37707   3.054   2.482  14.405  0.0251 -0.1495  0.0545
21899W        W37708   8.422   9.120  13.762 -0.0980  0.1478  0.2100
21900W        W37709  15.850   4.751  12.008  0.1063 -0.4217 -0.1561
21901W        W37710   7.161  11.970   1.667  0.1970 -0.1975 -0.1770
21902W        W37711  13.907   9.105  14.873  0.1659 -0.0276 -0.0278
21903W        W37712   2.044   7.976  10.730  0.1755  0.0052 -0.2490
21904W        W37713   5.113   5.280   3.349 -0.1252  0.2146  0.0446
21905W        W37714  15.332  10.340   1.461  0.0668  0.3098 -0.4085
21906W        W37715   3.299   9.543   3.158 -0.0075  0.1482 -0.0963
21907W        W37716  13.831   9.685   2.070  0.0984  0.1958  0.0561
21908W        W37717   7.999   2.619  12.633 -0.2431 -0.0194 -0.3954
21909W        W37718  17.658   4.017   0.289 -0.2335 -0.1280  0.0411
21910W        W37719   9.475   4.609   1.714 -0.1436  0.1629  0.0164
21911W        W37720   1.313   0.208   0.482 -0.1016  0.0056 -0.3473
21912W        W37721   1.575  13.805  13.289 -0.3829  0.0908  0.1043
21913W        W37722  13.920  14.779   0.761  0.0239  0.0489  0.0763
21914W        W37723   6.228   8.229  11.390  0.1737 -0.0654 -0.2073
21915W        W37724  15.271   3.540   4.141 -0.0765 -0.2010 -0.1450
21916W        W37725  16.774  13.235  13.860  0.4315 -0.0276  0.1904
21917W        W37726   4.168  10.168  14.797 -0.2903  0.2703  0.1478
21918W        W37727   6.212   3.111  15.281  0.1545  0.0418 -0.2994
21919W        W37728   0.404   4.344  15.086  0.0893 -0.2611 -0.1728
21920W        W37729  10.578  12.620  11.335 -0.0349 -0.0837 -0.0234
21921W        W37730  10.483   5.242  10.219  0.4311 -0.0398 -0.1362
21922W        W37731   9.722  11.534  10.909 -0.0051 -0.0041 -0.0073
21923W        W37732   6.879  11.620   3.584  0.1292 -0.1242 -0.1217
21924W        W37733   9.688   4.743   3.104 -0.1373 -0.4222 -0.0828
21925W        W37734  17.620   0.716  14.613 -0.2379 -0.1078  0.0646
21926W        W37735   1.527  17.906   0.005 -0.0376 -0.2621 -0.0826
21927W        W37736  17.518   3.986   3.638  0.2168  0.0180 -0.0396
21928W        W37737  14.540   0.207  10.475  0.1031  0.3866 -0.2109
21929W        W37738   6.709   3.502   1.194 -0.1400  0.3276 -0.1318
21930W        W37739  18.661   4.182  14.115  0.2542 -0.0199  0.2803
21931W        W37740  11.335   0.201   5.398 -0.1711  0.0588 -0.0453
21932W        W37741   6.907   6.352  12.585  0.1540 -0.4095  0.2478
21933W        W37742  13.135   9.040   4.078  0.0121 -0.3015  0.2234
21934W        W37743   6.499  16.472   4.901 -0.0663  0.0409  0.0359
21935W        W37744  10.201   2.084   3.834 -0.0286  0.2893 -0.0844
21936W        W37745   0.771   9.052  11.868 -0.0084  0.2147  0.1612
21937W        W37746   2.547  10.021  11.402 -0.2471 -0.0325 -0.0342
21938W        W37747  11.446  14.562  12.503 -0.0983 -0.1055 -0.0557
21939W        W37748  10.649   8.825  14.883 -0.0486 -0.0447 -0.1627
21940W        W37749   4.532  15.244  15.079 -0.1197 -0.1964  0.0044
21941W        W37750  12.038  11.651  11.845 -0.0375  0.2483 -0.4081
21942W        W37751   0.955  13.832   4.382 -0.0895 -0.1070  0.2056
21943W        W37752  17.190   9.793  15.145 -0.2503 -0.0495 -0.1997
21944W        W37753  12.394  13.508  12.838 -0.1846  0.2071 -0.0251
21945W        W37754   6.672   8.469   1.645  0.0037  0.0529 -0.3813
21946W        W37755  11.500  10.481  12.618  0.1238 -0.2207 -0.3065
21947W        W37756  13.009   2.832   3.749 -0.0429  0.0178  0.2903
21948W        W37757   2.248   3.365  11.762 -0.0924 -0.2734 -0.1659
21949W        W37758   4.514  11.516  13.809  0.0816 -0.3023  0.0334
21950W        W37759   1.382  13.398  14.634  0.0697  0.0137 -0.1330
21951W        W37760  18.141  12.611  13.031  0.2971  0.1062  0.0905
21952W        W37761   1.847  14.001  13.833  0.2510 -0.0520  0.1497
21953W        W37762   5.217  12.326  14.668  0.4509  0.1004  0.0423
21954W        W37763   4.241   9.492   1.568 -0.2940 -0.0860 -0.2061
21955W        W37764   5.210   1.721   2.122  0.2204  0.1486 -0.2783
21956W        W37765  14.958  10.276  12.669  0.0188 -0.1531  0.2428
21957W        W37766   7.519   3.441  12.464  0.3630 -0.0767  0.0310
21958W        W37767   1.802  18.164   2.487  0.0278 -0.2478 -0.0697
21959W        W37768  11.549   2.416   2.103  0.1531 -0.2357 -0.0254
21960W        W37769   1.924   5.064   2.524 -0.0135 -0.0627  0.5016
21961W        W37770   3.874  11.777   1.306 -0.2382 -0.0069 -0.0635
21962W        W37771   6.945  17.770   0.822 -0.1048 -0.2765  0.2006
21963W        W37772  14.527   2.961   1.852  0.1220  0.0982 -0.3315
21964W        W37773  17.130  10.973  15.586  0.0112 -0.0364  0.0017
21965W        W37774  14.851  13.802   0.841 -0.3356 -0.1008 -0.1506
21966W        W37775  11.584   9.507  10.013 -0.2058  0.0614  0.2016
21967W        W37776   4.140  17.372  13.265 -0.0998 -0.1470  0.2114
21968W        W37777  11.826   9.898  10.968 -0.0075 -0.0898  0.0782
21969W        W37778  14.942   2.781   0.519  0.1440 -0.1271 -0.1075
21970W        W37779   8.270  10.861  14.820 -0.0771 -0.1279  0.1725
21971W        W37780   5.458  12.076  11.564 -0.1454  0.0838  0.3682
21972W        W37781  12.196   6.221   2.942  0.1137 -0.3117 -0.1511
21973W        W37782   7.484   8.481   4.469 -0.1594 -0.2205  0.0743
21974W        W37783  15.170   1.677   2.113 -0.2332 -0.4005  0.2518
21975W        W37784   7.355  10.274  12.907 -0.2261  0.1105 -0.0826
21976W        W37785  15.524   5.282  14.867 -0.0056 -0.1385  0.1913
21977W        W37786  11.875  11.834  12.370 -0.1952 -0.4574 -0.2573
21978W        W37787  12.938   3.132  15.511  0.1754  0.0631  0.0891
21979W        W37788  15.569   2.521  11.228 -0.1673  0.1306  0.0144
21980W        W37789   0.506   6.853  13.607  0.2263 -0.1429 -0.3943
21981W        W37790  16.348   4.789  12.201  0.1977  0.1625 -0.0203
21982W        W37791  16.982   2.047  13.696 -0.0016  0.1749 -0.0994
21983W        W37792  13.125  12.256  11.409 -0.1067  0.0924  0.0474
21984W        W37793  16.774   5.662   1.278  0.4094  0.1400  0.1618
21985W        W37794   2.486   6.237  11.433  0.0843 -0.0232  0.3322
21986W        W37795   4.119   7.985  14.146 -0.1660  0.2444  0.0737
21987W        W37796   5.814  15.366   5.025 -0.1080  0.0825 -0.0109
21988W        W37797   7.716  11.617  13.129 -0.0513 -0.2262 -0.2180
21989W        W37798  17.723   6.311   1.738 -0.2817 -0.1243 -0.1129
21990W        W37799  10.654  10.199   1.022  0.1899 -0.1440 -0.2350
21991W        W37800  16.657  17.419   2.993  0.1592  0.0226 -0.1482
21992W        W37801   9.904   4.129   1.815  0.1395 -0.2699  0.1334
21993W        W37802   0.384   9.536  10.529 -0.0490  0.0602 -0.3182
21994W        W37803  15.085  17.291  12.211  0.1938 -0.0058 -0.2051
21995W        W37804  15.627   6.059  14.596 -0.3632  0.2950  0.0587
21996W        W37805  16.845  11.380  14.690 -0.1579 -0.2245 -0.1839
21997W        W37806  10.703   9.023  12.810  0.1978  0.1989 -0.0753
21998W        W37807  11.099  13.686  12.040 -0.6533 -0.1682  0.0828
21999W        W37808  11.919  12.301  14.573  0.1845  0.0549  0.0795
22000W        W37809   5.881   6.880   1.133  0.0410  0.1423 -0.1741
22001W        W37810   0.248   6.008   3.727  0.2422 -0.1634  0.2762
22002W        W37811   3.409  17.799   1.947  0.1222 -0.2622  0.4434
22003W        W37812  11.656  12.616  11.102 -0.1221  0.2571 -0.2664
22004W        W37813   1.629   7.124   3.138 -0.0283 -0.0448  0.4198
22005W        W37814   9.348   9.608  15.175  0.2347 -0.2086 -0.0814
22006W        W37815   7.909   5.020  12.143 -0.0506  0.2213 -0.2874
22007W        W37816  13.636  16.495   5.249  0.2252 -0.0248  0.1733
22008W        W37817   8.314  12.503   5.065  0.0099 -0.2669  0.2369
22009W        W37818  14.796   4.148   0.623 -0.0927  0.1135 -0.2971
22010W        W37819   0.654  16.110  12.675  0.3597 -0.2520 -0.1101
22011W        W37820   8.306  12.057  12.285  0.2359  0.0969  0.1324
22012W        W37821   2.485  14.080  14.625  0.0616  0.3375 -0.0100
22013W        W37822  12.793  10.894  11.106  0.3505 -0.0471 -0.1590
22014W        W37823   8.662   0.722  13.770 -0.1647  0.0217  0.2598
22015W        W37824  16.522   3.891   3.607  0.2504 -0.1669  0.2136
22016W        W37825  12.071   6.478   2.539  0.2496 -0.2458  0.0917
22017W        W37826   2.865  14.277   1.460  0.1751  0.3153  0.1002
22018W        W37827  14.158  13.015   0.068 -0.2619  0.0610  0.1387
22019W        W37828  11.235  18.228  12.062 -0.0456  0.3030  0.0791
22020W        W37829   7.804  17.866   1.930 -0.0170 -0.1359 -0.2950
22021W        W37830   3.798   0.663   3.522 -0.0792  0.0919 -0.2458
22022W        W37831   0.450  16.408   1.410 -0.1555  0.2857  0.0981
22023W        W37832   6.039  14.309   1.685 -0.2343  0.0854 -0.0859
22024W        W37833   0.829   8.199   3.534 -0.3230  0.2260 -0.0153
22025W        W37834   0.176   5.994   0.058  0.0157 -0.0667  0.0380
22026W        W37835  17.119  10.709  11.901  0.0173  0.0755 -0.1713
22027W        W37836  11.404  10.424  12.133  0.0493  0.1711 -0.1581
22028W        W37837   0.762  11.179   2.012 -0.4129  0.1828  0.2245
22029W        W37838  16.685  16.489  14.631 -0.3107  0.1565  0.0170
22030W        W37839   1.575   0.269  14.883  0.2095 -0.1245 -0.1519
22031W        W37840   6.244   9.204   1.236  0.0210 -0.3567  0.0647
22032W        W37841  11.564   3.694   2.512  0.0664 -0.1210 -0.2817
22033W        W37842   0.304  13.567   0.914  0.1722 -0.0616  0.2205
22034W        W37843  16.205   4.149  13.574  0.1414  0.0335  0.0377
22035W        W37844  14.910  14.103  13.954  0.1522  0.0547  0.2372
22036W        W37845  11.154   6.553   5.516 -0.0663  0.0100 -0.2892
22037W        W37846   8.391  15.837  14.916  0.3929  0.0367  0.1778
22038W        W37847   9.771  14.254   2.628  0.0767  0.3571 -0.1047
22039W        W37848  16.369   0.809   2.000 -0.1235 -0.2985  0.0334
22040W        W37849   3.547   1.379   0.923 -0.2794  0.1782 -0.1138
22041W        W37850  12.220  14.162  12.237 -0.1573 -0.2484  0.1124
22042W        W37851   2.192   2.251   2.234  0.0012 -0.0852  0.1324
22043W        W37852  14.003  15.572  15.611 -0.0264 -0.1014  0.2171
22044W        W37853   7.347  12.751   4.079 -0.3293  0.1783  0.2129
22045W        W37854  15.032  11.921   5.862  0.2376  0.2017  0.1441
22046W        W37855  13.906  13.256  11.944  0.0393  0.1811 -0.0969
22047W        W37856  10.655   5.536  14.335 -0.2740  0.0090  0.1203
22048W        W37857  15.767   9.197  14.222  0.3390  0.1478 -0.2401
22049W        W37858   2.883   9.615   4.724 -0.1306  0.1053  0.0280
22050W        W37859   9.379  16.441   2.654  0.1235  0.0931 -0.0020
22051W        W37860  13.641  10.494   6.334 -0.1701  0.0451 -0.2944
22052W        W37861  11.616   9.891   3.565  0.0281  0.0411  0.0322
22053W        W37862   6.624   8.793   1.190  0.1467  0.0183  0.0665
22054W        W37863  11.915   9.780  14.884  0.3603 -0.1306  0.3260
22055W        W37864   8.736   0.339   2.073 -0.0387 -0.1336 -0.0530
22056W        W37865  13.423  16.788   1.040  0.0729 -0.0739 -0.2277
22057W        W37866  13.428   9.018  13.213  0.2503  0.0529 -0.0532
22058W        W37867  14.415   1.587   5.033 -0.2674 -0.2001  0.0887
22059W        W37868  13.393   5.971  10.361 -0.1162 -0.1352 -0.2723
22060W        W37869  12.168  17.327   0.417  0.0776 -0.3505  0.1295
22061W        W37870  15.953  10.590   4.060  0.1267 -0.3093 -0.0360
22062W        W37871   1.013  10.497   1.658  0.0161 -0.1133  0.1356
22063W        W37872  14.796  17.657  12.355 -0.2511 -0.1946 -0.1939
22064W        W37873   9.298  17.189   3.209  0.2819  0.1858 -0.2200
22065W        W37874  13.469  10.535  14.295  0.1738 -0.1756 -0.1393
22066W        W37875   2.351   2.025  12.400 -0.4419  0.0834 -0.4428
22067W        W37876   1.267   4.603  13.998  0.0906  0.3685 -0.3641
22068W        W37877   5.336  17.180   1.144  0.1061  0.2274  0.0830
22069W        W37878   9.435  14.787  11.919 -0.0242 -0.2371 -0.2898
22070W        W37879  13.941   5.629   0.918  0.2246  0.0583  0.2431
22071W        W37880   4.795   7.382  15.363 -0.2598 -0.0202 -0.1066
22072W        W37881   3.378   9.186   1.587 -0.1032 -0.0755 -0.0273
22073W        W37882  16.439   6.164  12.865 -0.1722 -0.1747  0.0764
22074W        W37883   2.379   7.646   0.970 -0.3149 -0.2433 -0.0050
22075W        W37884  15.523   8.264  14.165  0.1417 -0.0786  0.2330
22076W        W37885   8.169  14.218  10.746  0.0005 -0.0858 -0.0164
22077W        W37886   6.393  12.385   5.371 -0.1770  0.3307 -0.1908
22078W        W37887   7.348   2.423   2.317 -0.5145  0.1906 -0.0117
22079W        W37888  10.133   6.371  14.809  0.1060  0.3380 -0.0612
22080W        W37889   9.217  16.401   4.256  0.1709  0.0505  0.0328
22081W        W37890   3.674   0.933   0.429  0.1788  0.2236 -0.2644
22082W        W37891  18.343  15.389   3.537  0.3104  0.2891 -0.0637
22083W        W37892  12.570  10.354  14.884  0.0782  0.1030 -0.1823
22084W        W37893  15.311   2.270  15.337  0.2488  0.5626 -0.0449
22085W        W37894  14.964   7.808  11.974 -0.0782 -0.0134 -0.2825
22086W        W37895  16.952  15.715  10.514  0.0788  0.0061 -0.1245
22087W        W37896  15.189  17.709   3.036 -0.1178  0.2573 -0.2965
22088W        W37897   4.192   3.378   1.726 -0.2008 -0.0699 -0.0238
22089W        W37898  16.003   6.497   1.543 -0.1349  0.1515 -0.1010
22090W        W37899  16.803   9.112   4.232 -0.0351  0.1397 -0.2295
22091W        W37900   6.381   6.097   6.135 -0.0216  0.2519  0.0013
22092W        W37901  14.139  15.580  10.474 -0.0103 -0.0365 -0.2443
22093W        W37902   8.976  15.367  13.855  0.1069 -0.0877  0.3571
22094W        W37903  14.871  14.082  12.999  0.2283  0.0750 -0.0459
22095W        W37904  10.997   3.270  13.243 -0.0524 -0.2026  0.0882
22096W        W37905  17.310  14.705  13.267  0.0515  0.2793  0.0158
22097W        W37906  10.744   3.865   5.799 -0.0384  0.1997  0.0948
22098W        W37907   8.608   9.118   2.826  0.0069  0.1252 -0.1200
22099W        W37908   0.381  15.415  13.709  0.0603  0.2584 -0.0042
22100W        W37909  16.276   4.427   3.624  0.3290  0.1660  0.2987
22101W        W37910  10.408  10.470   4.636 -0.1179  0.0599  0.1534
22102W        W37911   3.554   2.698  10.344 -0.0595 -0.1689 -0.1996
22103W        W37912  15.671  16.445   2.720 -0.0788  0.3052 -0.0270
22104W        W37913   4.184  15.208   0.750  0.0160 -0.0130 -0.3382
22105W        W37914  15.963   0.644  11.173  0.2301 -0.0498  0.1116
22106W        W37915  16.999  13.078  14.854 -0.0739  0.2895  0.2170
22107W        W37916  16.909   3.315   1.325  0.0022  0.2730 -0.1618
22108W        W37917  15.364  10.071  10.837  0.1744 -0.2572  0.0069
22109W        W37918  17.074  18.667   5.573 -0.0015 -0.3217 -0.0623
22110W        W37919   0.741  16.190   4.761 -0.4761 -0.0489  0.3272
22111W        W37920   9.084  15.327  15.473  0.0019 -0.0476  0.1400
22112W        W37921   1.705  11.696   3.971 -0.1836  0.0561 -0.1748
22113W        W37922   6.890  13.508  12.148  0.0942 -0.1188  0.2733
22114W        W37923   6.608  12.594  11.248 -0.2604 -0.0294 -0.0769
22115W        W37924   5.085   3.550   3.111  0.0901 -0.0468  0.2039
22116W        W37925   9.716   0.397  15.039  0.0325  0.2470 -0.1416
22117W        W37926   2.791   5.971   2.910  0.1005 -0.0602 -0.1511
22118W        W37927   5.440  16.265   4.373  0.0249  0.3715 -0.1007
22119W        W37928   9.495   0.468  12.595 -0.0480 -0.0467  0.0561
22120W        W37929   1.728  11.771  11.289  0.1642 -0.2709  0.2775
22121W        W37930   3.909   9.260   4.694  0.1222  0.2073 -0.3186
22122W        W37931   7.826  11.124   0.905  0.0287 -0.0841 -0.0567
22123W        W37932  14.971  17.866  10.793  0.2960 -0.2792 -0.0490
22124W        W37933   4.045   7.187  15.198 -0.0316  0.0804 -0.2563
22125W        W37934  10.795   3.102   2.627  0.3623 -0.2521 -0.1263
22126W        W37935  15.783   4.677  10.911  0.0946  0.0295 -0.1195
22127W        W37936  14.451  15.491  14.190 -0.1659  0.1305 -0.0103
22128W        W37937   3.569  13.782   2.604 -0.0352  0.1909  0.0706
22129W        W37938   9.874  18.013  14.837 -0.0806 -0.0520  0.2576
22130W        W37939  13.134  10.700  10.805 -0.0017 -0.2000 -0.0472
22131W        W37940  14.696  14.691  15.596  0.1943  0.0090 -0.2962
22132W        W37941   4.134  12.267  11.164 -0.0610 -0.0224 -0.1756
22133W        W37942  10.423  13.922   3.644 -0.1715  0.1006  0.3150
22134W        W37943   6.429   8.104   2.967  0.0893 -0.0549 -0.1432
22135W        W37944  17.719   5.387   1.436  0.0288  0.3099  0.1982
22136W        W37945  11.043   4.224  15.184 -0.0219 -0.2935  0.0568
22137W        W37946  12.455   9.909   0.454 -0.2119 -0.0474  0.1326
22138W        W37947  16.649  12.807  14.618  0.0159 -0.1367  0.0238
22139W        W37948  14.883  11.792   4.795  0.2687  0.1951 -0.0363
22140W        W37949  11.598  17.970  13.390 -0.1846 -0.0376  0.1022
22141W        W37950   9.509  16.744  12.045 -0.0284  0.0037 -0.0349
22142W        W37951   5.033   7.394   1.698  0.1338  0.1442  0.0092
22143W        W37952  13.069  17.148  12.101 -0.0669 -0.1832 -0.2006
22144W        W37953  12.448   9.466  15.136 -0.2360  0.0776  0.0388
22145W        W37954   9.243  13.777   4.840  0.2857  0.0106  0.1807
22146W        W37955  12.293   0.817   1.477 -0.1091  0.0718  0.4120
22147W        W37956  15.678  15.483   1.884  0.0040 -0.0503 -0.3323
22148W        W37957   0.108   0.013  12.742 -0.0162  0.3063 -0.0153
22149W        W37958   8.406   5.024  13.124 -0.0105 -0.0428 -0.1028
22150W        W37959  16.070  12.912  13.879 -0.1905 -0.0052 -0.0241
22151W        W37960   9.205  16.218  14.718 -0.3011 -0.1089  0.0861
22152W        W37961   7.115   6.972  11.545  0.1905 -0.0066  0.0548
22153W        W37962   2.188  16.743  13.104  0.4501  0.2075 -0.1172
22154W        W37963  12.076   9.679   4.260 -0.1121  0.4125  0.0069
22155W        W37964   2.511  10.407  15.009  0.2392 -0.2388  0.2296
22156W        W37965  16.348  10.196  15.141  0.1934  0.0881  0.2208
22157W        W37966   8.283   1.334  12.395  0.0283 -0.0585  0.6158
22158W        W37967   7.748   0.452   2.427  0.2254  0.1528 -0.2251
22159W        W37968   5.099  11.414   0.360  0.2525 -0.2968  0.1832
22160W        W37969   2.502   4.542   1.456 -0.2957 -0.0836  0.0751
22161W        W37970  12.095   1.667   3.733 -0.0415 -0.3346 -0.1611
22162W        W37971  16.397   7.052  11.241 -0.0344  0.0266 -0.1621
22163W        W37972  15.609   2.179  11.937 -0.1161  0.2432 -0.1204
22164W        W37973   0.988  14.736  14.337  0.1090  0.1589 -0.2038
22165W        W37974   6.765   9.862   2.056  0.1196 -0.0702 -0.0082
22166W        W37975  11.808   2.473  10.545 -0.0746  0.1267  0.1330
22167W        W37976  10.316  11.645   1.727 -0.0139 -0.1604 -0.1391
22168W        W37977   4.312   4.677   3.522  0.2009 -0.1732  0.3796
22169W        W37978   4.810   1.197  14.144  0.2581 -0.2045  0.2427
22170W        W37979   3.582  16.777   1.548 -0.2230 -0.0101 -0.1091
22171W        W37980  18.032   0.397  12.905  0.0416  0.1874  0.2239
22172W        W37981  14.795  18.206   4.452 -0.0495  0.2123  0.3098
22173W        W37982  17.212  15.106   3.745 -0.2147  0.2113  0.1508
22174W        W37983   1.166   7.612   2.778  0.2447 -0.1918  0.0093
22175W        W37984  10.158  10.680   3.706  0.0711 -0.1385  0.0576
22176W        W37985   9.431   6.347   3.062 -0.1159  0.1633 -0.1831
22177W        W37986  12.911   4.406   2.399  0.1180 -0.2056 -0.0251
22178W        W37987  12.245  10.911  15.049 -0.0179  0.0964 -0.5652
22179W        W37988  13.493  14.964  13.955  0.2877 -0.0696  0.0208
22180W        W37989   9.069   5.229  13.369  0.1052 -0.2163 -0.5964
22181W        W37990  16.060   9.814   0.203 -0.0065 -0.4771  0.0016
22182W        W37991   7.910  12.520  13.452 -0.0664  0.0359  0.0633
22183W        W37992  12.889   6.143  14.750  0.0351  0.1630 -0.0405
22184W        W37993   7.191   8.327  13.772 -0.2367  0.2717 -0.2096
22185W        W37994  15.476  11.677  11.262  0.2651 -0.2582 -0.3573
22186W        W37995  17.788  12.809  15.423  0.1009  0.0226 -0.0330
22187W        W37996  11.451  13.834   4.227 -0.0211  0.2839  0.3832
22188W        W37997   1.770   4.324  10.746 -0.1029  0.0813  0.0935
22189W        W37998  13.400   5.445   0.977  0.4426  0.0160 -0.1516
22190W        W37999   3.455   3.904  13.802 -0.0970 -0.0342 -0.1274
22191W        W38000   1.251   3.630   3.696  0.1314  0.0211  0.1809
22192W        W38001  14.797  16.284  14.618  0.0394 -0.0352 -0.2378
22193W        W38002   0.766   4.767   0.043  0.0778  0.0181  0.2307
22194W        W38003   7.109   8.698   0.982  0.1803  0.0041 -0.1557
22195W        W38004  13.474   4.713  10.905 -0.0649  0.1803  0.0344
22196W        W38005  11.624   0.406   4.070 -0.2338 -0.2065  0.0407
22197W        W38006   2.590   8.692  13.519 -0.0048 -0.2515  0.3001
22198W        W38007  17.843   9.431   9.930  0.0072  0.0441 -0.0250
22199W        W38008   8.912   3.451   2.431 -0.0413 -0.0938  0.0737
22200W        W38009  18.613   7.494  14.392 -0.3204  0.2655 -0.0778
22201W        W38010   8.180   7.402  14.306  0.2316  0.0013  0.3159
22202W        W38011   3.460   9.827  12.659  0.2511 -0.1604 -0.0666
22203W        W38012  10.154  10.602   1.591 -0.2392 -0.1133  0.2600
22204W        W38013   8.597   9.316   4.218  0.1894 -0.0093  0.4087
22205W        W38014   9.606  14.599  10.829 -0.0124 -0.3003 -0.1657
22206W        W38015   7.451   0.010  12.267  0.0485  0.0222 -0.2329
22207W        W38016   8.177  12.516  14.087 -0.2920  0.1321 -0.0630
22208W        W38017  13.461  13.214  13.549  0.3113 -0.1344  0.0504
22209W        W38018   9.060   1.072   3.609 -0.2408  0.2810  0.0080
22210W        W38019  10.473   1.329  14.176 -0.0433 -0.2018 -0.0077
22211W        W38020   4.867  13.922  13.872 -0.0555 -0.5658 -0.1749
22212W        W38021   3.815   8.781  14.268  0.1739  0.2802  0.0739
22213W        W38022   5.547   6.126  11.813 -0.1169 -0.1518 -0.2720
22214W        W38023   8.445  18.586   0.319  0.1532 -0.2967  0.3618
22215W        W38024  11.631  14.541  11.124  0.1398 -0.0959 -0.1991
22216W        W38025   4.415  11.066  10.824  0.1391 -0.0189  0.1994
22217W        W38026   9.786   9.453   5.314  0.0788  0.2393 -0.2290
22218W        W38027  17.791   2.890   1.462  0.1491  0.0774 -0.0037
22219W        W38028  16.300  16.412   2.952  0.3467 -0.1862 -0.0459
22220W        W38029  18.125  12.337  11.590 -0.1614  0.2142  0.1042
22221W        W38030   7.314   9.070   3.188  0.0050 -0.2094  0.1898
22222W        W38031  10.572   9.259   0.068  0.1557 -0.0242 -0.0318
22223W        W38032   9.450  17.754   0.923 -0.1322 -0.0602  0.1751
22224W        W38033   1.426   4.892  11.491  0.0668 -0.1765 -0.0862
22225W        W38034   2.053  14.912   1.740  0.2292 -0.0659 -0.1061
22226W        W38035  15.018  10.930  13.249  0.1935 -0.1744  0.0668
22227W        W38036   4.331  16.692  12.241 -0.4605  0.3747 -0.0908
22228W        W38037   1.079  15.640   3.089 -0.0928  0.2742 -0.1327
22229W        W38038   2.843  12.795  12.719 -0.0177  0.0854 -0.1483
22230W        W38039   2.879  18.447   4.544 -0.0561 -0.0362  0.2663
22231W        W38040  12.846   2.244   0.050 -0.2542 -0.1584 -0.0600
22232W        W38041   4.862  17.690  11.652 -0.0255  0.0390  0.0440
22233W        W38042  13.854  12.587  15.600  0.1905  0.1123  0.1317
22234W        W38043   6.523  13.096  12.219 -0.1068 -0.0705 -0.0890
22235W        W38044  12.348  12.099  14.355  0.0734  0.0882 -0.0613
22236W        W38045   2.278   4.413   0.125  0.2730  0.0468 -0.2310
22237W        W38046   3.310  17.620   0.503  0.0902  0.2339 -0.1452
22238W        W38047  18.311  16.107   0.824  0.3498 -0.1934  0.1779
22239W        W38048   9.441  18.372  13.404 -0.1197 -0.0048 -0.2207
22240W        W38049  16.701  10.504   0.602  0.0235  0.0593 -0.0270
22241W        W38050   7.401  15.247  11.482 -0.0655 -0.0821  0.1297
22242W        W38051   1.933   7.733   3.504  0.2467 -0.1337  0.0814
22243W        W38052  12.094  10.755  13.198  0.4689  0.1100  0.5652
22244W        W38053  16.128  18.582  15.486  0.2138  0.2815  0.0702
22245W        W38054   4.641   3.844   0.302 -0.1165  0.3299  0.2418
22246W        W38055   5.538   2.643  14.370  0.2518 -0.3667  0.4247
22247W        W38056   1.453   6.480  15.542 -0.1296 -0.0102  0.2688
22248W        W38057   2.799   8.919  14.269 -0.1834 -0.0336  0.5709
22249W        W38058  17.322  16.549  10.422  0.3133 -0.1873 -0.1163
22250W        W38059   2.006  12.970   4.553 -0.3913 -0.0660  0.1959
22251W        W38060  14.571  13.773  14.559 -0.2220  0.2742  0.0112
22252W        W38061  11.090   3.798  11.315 -0.0311 -0.1986  0.0896
22253W        W38062  16.878  14.821   3.274  0.1166 -0.1405 -0.1288
22254W        W38063  14.148   7.240   2.613  0.0034  0.0966 -0.3191
22255W        W38064  16.671   1.226  10.945 -0.3170 -0.1357  0.2476
22256W        W38065   6.255   6.550  12.463  0.0573 -0.0210 -0.0125
22257W        W38066  12.405  10.886  11.480  0.1370  0.0254 -0.3837
22258W        W38067  10.893   3.027   5.716 -0.2634 -0.1493  0.3896
22259W        W38068   1.916   2.370   5.184  0.2176 -0.1907 -0.2826
22260W        W38069   6.248   9.988  12.647 -0.0390  0.0915 -0.2961
22261W        W38070  18.642   5.012  11.710  0.0424  0.0361  0.2096
22262W        W38071   1.034   4.580  13.491  0.0715  0.0209  0.1654
22263W        W38072   8.608   0.046  13.006 -0.4128 -0.2040 -0.0984
22264W        W38073   8.678  13.225   2.677  0.0240  0.5002 -0.2262
22265W        W38074   7.403  10.526   3.158 -0.1735 -0.0376 -0.2355
22266W        W38075  10.070  12.776   0.632 -0.1233 -0.1631  0.2238
22267W        W38076   9.372  14.573  14.082 -0.2001  0.0700  0.1537
22268W        W38077  10.929  11.265  14.189  0.1854 -0.0996 -0.1089
22269W        W38078   4.859  17.820  13.636  0.1015  0.1378  0.2528
22270W        W38079  14.460   0.712   5.227  0.1594  0.0657  0.0611
22271W        W38080  17.265   8.382  10.551  0.1543 -0.1399 -0.2152
22272W        W38081  12.834   8.740  11.151  0.0986 -0.0049 -0.1303
22273W        W38082  10.846  10.849   4.011 -0.0394 -0.3230  0.2133
22274W        W38083   8.965  16.154   1.709 -0.1879 -0.2769 -0.1179
22275W        W38084  13.928   8.964  10.769 -0.0058  0.2296 -0.1672
22276W        W38085   1.047   7.864  10.009 -0.1985  0.1040  0.0349
22277W        W38086   5.632  16.129  12.651  0.0764 -0.3210 -0.0855
22278W        W38087  11.114   0.479   1.190 -0.1224 -0.0378  0.2613
22279W        W38088   4.879  14.034  13.098 -0.2130  0.0965 -0.1751
22280W        W38089   4.706  17.357  13.494 -0.0610 -0.0636  0.0298
22281W        W38090   9.906   7.221  14.884 -0.1476 -0.1506  0.2333
22282W        W38091   1.895   1.103  14.358 -0.2317 -0.3084 -0.0037
22283W        W38092  11.303   6.877   1.835  0.2757 -0.1205 -0.0743
22284W        W38093   8.748  12.630  13.372  0.1813  0.0841  0.0636
22285W        W38094   4.281   0.458   1.557 -0.2798  0.3560 -0.0614
22286W        W38095  16.912  16.371   5.059  0.0543  0.1464 -0.0186
22287W        W38096  18.222  13.799   1.569 -0.1209 -0.0993  0.1528
22288W        W38097   9.122  15.890  11.512 -0.0175  0.0504 -0.2120
22289W        W38098   0.300   0.487  11.402  0.1219  0.3495  0.2195
22290W        W38099   8.931   9.422  13.994 -0.3602  0.2687  0.1458
22291W        W38100   2.491  16.827   3.409  0.1839 -0.2849  0.1467
22292W        W38101   0.161   7.763   1.469  0.2436  0.0200  0.0829
22293W        W38102   2.062   9.172  12.461  0.1312  0.0547  0.1668
22294W        W38103   4.040   1.266  15.057  0.0546  0.1259  0.1763
22295W        W38104  11.374   6.030  14.042 -0.0931 -0.0690 -0.0100
22296W        W38105  11.831  11.817   0.059  0.0719  0.0241  0.2989
22297W        W38106  17.198   6.407  12.054 -0.2045  0.2521  0.2424
22298W        W38107  11.292  17.025  11.491 -0.3052 -0.0345 -0.0074
22299W        W38108  10.979   1.906   1.489  0.0364 -0.1558  0.1108
22300W        W38109  16.545   8.657  11.770 -0.1372 -0.0249 -0.1277
22301W        W38110   8.560  17.268  11.265  0.1252 -0.2074  0.0231
22302W        W38111  16.780  12.474  10.373 -0.0083  0.3997  0.0421
22303W        W38112  14.773  16.888  15.258 -0.1251 -0.1303 -0.1760
22304W        W38113   4.459   7.607   3.735 -0.0950  0.1012  0.2080
22305W        W38114  14.101  15.276   3.512 -0.2478 -0.2797 -0.3704
22306W        W38115   3.669   3.557   3.517 -0.2036 -0.2096 -0.0815
22307W        W38116  16.200   5.836  10.260 -0.3070  0.1069  0.0001
22308W        W38117   6.186  17.182   0.426 -0.1855  0.3586 -0.0778
22309W        W38118   5.124  17.696  12.620 -0.1883 -0.1665 -0.0440
22310W        W38119   2.093   7.178  12.860  0.0019 -0.5630  0.3830
22311W        W38120   4.939   2.696  12.682  0.2286 -0.0693 -0.1509
22312W        W38121   6.451   9.891  13.216  0.0642 -0.1496 -0.0245
22313W        W38122   0.246   1.653   3.507  0.0035 -0.0145  0.1831
22314W        W38123  16.495  10.728   3.091  0.0668  0.0127 -0.1265
22315W        W38124  14.314   4.192   1.351  0.2569  0.1466  0.1717
22316W        W38125   0.729  16.257  11.234 -0.1328 -0.0146 -0.1560
22317W        W38126   9.967   8.667  14.498  0.1742 -0.0371 -0.0963
22318W        W38127  11.412   3.804   3.416 -0.0738  0.1475 -0.0420
22319W        W38128   0.490   6.326   1.013  0.0574 -0.1421  0.2757
22320W        W38129  16.690   4.514  11.989 -0.3770  0.4317 -0.2375
22321W        W38130   8.046  10.954  14.360  0.1655 -0.2696 -0.1735
22322W        W38131   6.421  13.603  14.380 -0.1070  0.0348 -0.1347
22323W        W38132  16.638  16.329   1.792  0.0753  0.0333  0.3981
22324W        W38133  15.613   5.471  12.284 -0.0197 -0.1188  0.0397
22325W        W38134   3.048   0.132   4.194 -0.1880  0.0057 -0.1610
22326W        W38135   0.228   5.700  15.299 -0.1701 -0.3693  0.1543
22327W        W38136   3.334   6.677  12.436  0.0061 -0.1622  0.2118
22328W        W38137   6.339   2.346  12.319  0.0874  0.0016  0.0416
22329W        W38138  18.542  12.681   3.404  0.0759 -0.0839  0.1719
22330W        W38139  10.459   0.502   3.688 -0.0587 -0.1334 -0.2381
22331W        W38140   5.367  14.225  12.481  0.1609  0.0984 -0.0490
22332W        W38141   4.377   3.452  12.431  0.0167 -0.1984 -0.0444
22333W        W38142  18.094  17.780  12.321 -0.0191  0.3714 -0.3394
22334W        W38143   7.509  18.026   5.774  0.0761 -0.0691 -0.3920
22335W        W38144   3.946  10.959  12.709 -0.0547 -0.0662  0.1276
22336W        W38145  13.925  17.434   4.044 -0.0159  0.1138  0.3411
22337W        W38146   8.720  14.453   0.914 -0.1567 -0.1182 -0.2126
22338W        W38147  10.511   2.910   2.998  0.3150 -0.2067 -0.1488
22339W        W38148  10.551   0.562   4.683 -0.0067  0.0726 -0.1541
22340W        W38149   8.207   0.453  15.418  0.1286  0.0661 -0.0848
22341W        W38150  13.830  11.761  13.610 -0.1085 -0.1859  0.2830
22342W        W38151  16.016   6.923  11.525 -0.0599  0.0818 -0.0836
22343W        W38152  14.821  13.066   9.471 -0.2516  0.0136 -0.1129
22344W        W38153  14.279   7.952   3.558  0.0479  0.0432  0.0866
22345W        W38154   0.893  15.260   5.511  0.2144 -0.1771 -0.2812
22346W        W38155   7.018   3.684   0.233  0.1043  0.1339 -0.2705
22347W        W38156   5.812   3.018   1.314  0.1033  0.1793  0.1710
22348W        W38157   9.329   8.157   0.063  0.0272 -0.2799 -0.1783
22349W        W38158  16.570  15.063   0.123 -0.2430 -0.3772  0.0438
22350W        W38159  13.531  17.445  10.970  0.1708  0.0895 -0.2575
22351W        W38160  12.797  10.041  15.182 -0.1198 -0.0890  0.0106
22352W        W38161  15.021   0.063  13.962  0.1032  0.0431 -0.4063
22353W        W38162   4.829  12.778   0.697 -0.2016 -0.1403 -0.1400
22354W        W38163  17.191  10.217  14.929 -0.1807 -0.5085  0.3214
22355W        W38164   7.001   7.699  11.174 -0.1041  0.0728  0.0746
22356W        W38165  12.374  12.888   5.282  0.1429 -0.0171  0.2479
22357W        W38166  11.516   0.902   0.299  0.0650 -0.2324  0.0043
22358W        W38167   7.575   6.264   3.358 -0.2689 -0.0636  0.2387
22359W        W38168  18.430  10.788   0.467 -0.1362  0.1734 -0.1303
22360W        W38169   5.153   1.755  14.661 -0.2596 -0.1511 -0.0413
22361W        W38170  12.993   8.528  14.679  0.0105 -0.0696  0.0405
22362W        W38171   0.110  10.075  12.000 -0.1541  0.0472 -0.0766
22363W        W38172  16.687   8.302  10.495  0.0756 -0.3199 -0.0162
22364W        W38173   8.987  12.986   4.934  0.3609  0.0062 -0.0873
22365W        W38174   6.625  15.288  13.016 -0.3057 -0.0522  0.3376
22366W        W38175  13.433   0.553   1.230 -0.1429 -0.3390 -0.0764
22367W        W38176  13.640  14.555  14.317  0.2053  0.0032  0.0646
22368W        W38177  13.096  12.659   1.911 -0.1473  0.0713  0.6295
22369W        W38178  10.219   8.838  11.058  0.3914  0.1000 -0.2448
22370W        W38179   3.235   7.406   1.902 -0.3044 -0.0185  0.1562
22371W        W38180  16.974   6.597   1.344 -0.0224 -0.1281  0.2919
22372W        W38181   8.234   2.724  15.019 -0.0289  0.0998  0.0405
22373W        W38182   4.560   4.355   1.690  0.2110  0.0217 -0.3161
22374W        W38183  13.334   8.463  12.406 -0.0397  0.0472 -0.3090
22375W        W38184  10.704   8.122  14.839  0.1041  0.3640 -0.0624
22376W        W38185  15.022   3.275   3.334  0.2454  0.2457  0.1417
22377W        W38186  13.600  16.106   0.451  0.0798  0.0915  0.2900
22378W        W38187  16.057  14.225  11.214 -0.0390 -0.0491  0.1684
22379W        W38188  17.241  15.539   5.002  0.1221  0.0293 -0.3387
22380W        W38189   6.746  13.652   1.527  0.0103 -0.0589  0.2040
22381W        W38190   6.445   7.700  10.696 -0.0409 -0.0415 -0.0488
22382W        W38191  14.860  16.796  12.133  0.2671  0.1355  0.1436
22383W        W38192   1.372   8.195   9.789 -0.0667 -0.0031  0.0764
22384W        W38193  13.541   0.109  11.689  0.1780  0.2263 -0.1397
22385W        W38194  13.899  17.588   2.970  0.2356 -0.1154  0.0794
22386W        W38195  14.360   9.030   2.535  0.0330 -0.0230  0.2949
22387W        W38196  18.544  11.222   3.517  0.0886 -0.2237  0.0581
22388W        W38197   0.184   1.105   4.684  0.1369 -0.1126 -0.0765
22389W        W38198   9.343   6.985  12.302 -0.0696  0.0835 -0.0597
22390W        W38199  11.679   3.511  14.267  0.0795 -0.0483  0.0284
22391W        W38200  12.025  10.145   0.146  0.1006 -0.4002  0.0839
22392W        W38201   6.780  12.906  15.346  0.0924 -0.0003 -0.0021
22393W        W38202   7.022  10.507   4.241  0.1337  0.0129 -0.1485
22394W        W38203   7.796   7.970  13.450  0.1861  0.0670  0.4347
22395W        W38204  17.679  16.095   3.231  0.2826 -0.0525  0.2123
22396W        W38205  14.917  11.496   2.657 -0.0458  0.2841 -0.1385
22397W        W38206  15.641   0.029  12.646  0.3293 -0.0174 -0.2880
22398W        W38207  11.773   6.369   1.385 -0.1193 -0.1224  0.0062
22399W        W38208  12.135  12.176   3.772  0.3946 -0.1588  0.2474
22400W        W38209  10.639   1.303   0.770  0.1690  0.2943  0.0221
22401W        W38210  10.780  12.805  15.505  0.2546 -0.2328  0.1013
22402W        W38211   6.837  12.696   1.301 -0.0167 -0.0465 -0.0874
22403W        W38212  13.795   9.169  12.218  0.1383 -0.0411 -0.1983
22404W        W38213   8.754   4.901  11.036  0.0032 -0.1623  0.0024
22405W        W38214  10.908  15.854   0.653 -0.1206 -0.1704  0.0095
22406W        W38215  15.171   2.087  13.439  0.2713 -0.1057  0.3726
22407W        W38216   0.431  11.125  15.257 -0.2336 -0.1133  0.0138
22408W        W38217  15.114   4.981   2.647 -0.0402 -0.0582 -0.1828
22409W        W38218  16.175   4.557   4.148 -0.1052 -0.0182  0.0899
22410W        W38219   9.168  15.762  12.117  0.1553  0.1071  0.0759
22411W        W38220   8.878   7.705  13.252 -0.3384  0.0267  0.0357
22412W        W38221   3.798  17.122   1.822 -0.0647 -0.3039  0.1029
22413W        W38222   5.843   2.254  13.021  0.3067  0.1986  0.0815
22414W        W38223  11.526   2.158  13.037 -0.3682 -0.1745 -0.1777
22415W        W38224   0.308  15.487   3.974  0.2405 -0.0961 -0.1048
22416W        W38225   5.345  13.096  11.951  0.0528  0.0387 -0.0894
22417W        W38226  17.137   1.871   0.591 -0.1059  0.3937 -0.0615
22418W        W38227  14.477   0.006   2.890 -0.1529 -0.0963 -0.0603
22419W        W38228  10.181  17.143  13.542 -0.0665  0.0785 -0.0055
22420W        W38229  10.274   9.370   5.202  0.0622  0.0031  0.0568
22421W        W38230   2.335  18.397   1.808  0.0820  0.0731  0.1649
22422W        W38231   3.121   0.602  11.809 -0.2091 -0.0284 -0.1315
22423W        W38232   5.829  16.878   0.169  0.5084 -0.0482 -0.0787
22424W        W38233   2.223   1.726   2.183  0.3147 -0.0905  0.0211
22425W        W38234   7.049  16.806  15.375 -0.2616  0.1665  0.1668
22426W        W38235   7.264  17.990  11.130 -0.0962  0.0826 -0.2062
22427W        W38236  13.202   3.880  13.152 -0.0691  0.1211 -0.0177
22428W        W38237   3.536   7.610  11.906  0.0823  0.0054 -0.2067
22429W        W38238   7.142   9.699   2.313  0.1013  0.1310  0.0452
22430W        W38239   1.691   2.173   4.628  0.0109 -0.0049 -0.2309
22431W        W38240  15.136  11.873   3.327  0.0785  0.1134 -0.1671
22432W        W38241  14.593  18.391   1.184 -0.3080 -0.3144 -0.3320
22433W        W38242  18.482  10.129   3.710  0.1174 -0.1041 -0.0563
22434W        W38243  14.192  10.626  13.743 -0.0103 -0.0214 -0.0306
22435W        W38244  10.748  14.525   3.404  0.0260 -0.2900 -0.0742
22436W        W38245  16.395   3.614  13.462  0.0167 -0.3574  0.1300
22437W        W38246  13.155   0.250  13.571  0.0921  0.4309 -0.0482
22438W        W38247   2.643  13.266  14.215 -0.0237  0.3075 -0.0623
22439W        W38248   3.686  18.646   4.780  0.2281 -0.0344 -0.0451
22440W        W38249  18.419  13.742   5.157  0.0407  0.0840  0.1301
22441W        W38250   3.562   5.724  13.747 -0.4126 -0.0077 -0.3133
22442W        W38251   2.404  12.724  12.392 -0.2194 -0.2706 -0.3350
22443W        W38252   4.120  17.086   2.353  0.0773  0.0633  0.3127
22444W        W38253   7.001   5.953  12.313  0.2442  0.0067  0.0678
22445W        W38254  10.936   9.703  12.240 -0.0831 -0.0831  0.0505
22446W        W38255   9.663  14.204  13.940  0.0538 -0.0790  0.2461
22447W        W38256   1.813  16.511   1.469 -0.0100  0.0471  0.4270
22448W        W38257   5.422   3.356  12.294 -0.0122 -0.0163  0.0935
22449W        W38258  12.080  16.216   2.529 -0.0742 -0.1045 -0.0384
22450W        W38259   7.799   7.729   2.182  0.2567  0.0339  0.1302
22451W        W38260   7.472  16.290   3.583 -0.2374 -0.3958 -0.3924
22452W        W38261  17.633   1.324   1.450  0.4517 -0.1895  0.2098
22453W        W38262   0.283  13.887   3.178 -0.2452  0.2302 -0.0848
22454W        W38263   5.921  12.520  14.577 -0.1022 -0.0347 -0.1460
22455W        W38264   3.136  11.859  14.878  0.2297  0.2531 -0.2721
22456W        W38265   8.870  16.714   3.989  0.1750 -0.1079  0.1832
22457W        W38266   9.307   8.180   2.067 -0.1905  0.1050  0.2690
22458W        W38267   0.078   8.629   0.003  0.0005  0.1707  0.0359
22459W        W38268   9.312   3.973  14.271  0.0765  0.1931  0.1584
22460W        W38269  13.701   4.092  14.419  0.1700 -0.0786  0.0852
22461W        W38270   3.245  12.289   4.555  0.1979  0.1223 -0.2126
22462W        W38271   2.071  18.316  14.224  0.2351  0.1183  0.0222
22463W        W38272  14.956  10.144   3.184 -0.1804 -0.1404 -0.3440
22464W        W38273   4.205  10.966   1.694 -0.1421  0.2649  0.0517
22465W        W38274   4.571  12.486   0.299 -0.2908  0.0591 -0.1077
22466W        W38275   7.362  14.426   3.345 -0.1449  0.2965  0.1004
22467W        W38276  12.219   3.029   5.564 -0.1399 -0.0114 -0.2918
22468W        W38277  16.239   9.779   3.507  0.0395 -0.0302 -0.1090
22469W        W38278   5.109   9.081   3.841 -0.0709 -0.3021  0.1133
22470W        W38279  16.962  13.634   5.592 -0.3116 -0.1283  0.0615
22471W        W38280   5.307   7.863   5.604  0.3163  0.1854 -0.0445
22472W        W38281   0.776  14.776   3.329  0.3060  0.0196  0.2023
22473W        W38282   3.669  13.036   1.830 -0.1302  0.0703  0.0547
22474W        W38283  16.545   5.380   4.434 -0.0529 -0.1743  0.2217
22475W        W38284   3.921   5.133  10.716  0.1508  0.1192  0.1257
22476W        W38285  12.438   5.507  12.761  0.0263 -0.0037  0.1400
22477W        W38286  10.640   3.056  13.573 -0.2544  0.1620 -0.0913
22478W        W38287  16.677  17.425  14.755  0.1171  0.3148  0.0432
22479W        W38288   1.070   2.869   4.476  0.1540  0.2583  0.1317
22480W        W38289  10.351   2.464  12.219  0.3250 -0.0481 -0.4423
22481W        W38290   2.487   2.145   2.790  0.0164  0.1307 -0.0993
22482W        W38291  13.847   8.108   1.058  0.1324  0.0866 -0.0281
22483W        W38292  11.712  17.213   2.839 -0.0001  0.0117 -0.1350
22484W        W38293   6.026   6.397   3.395  0.2247 -0.0011 -0.0846
22485W        W38294   3.359   7.652   2.412 -0.1332  0.0226  0.0955
22486W        W38295  14.078   9.945   5.096 -0.0767 -0.0955  0.0699
22487W        W38296   2.470  18.122   2.944 -0.0407 -0.1556 -0.1987
22488W        W38297  17.079  14.890  10.877  0.0671 -0.2663 -0.0751
22489W        W38298  10.616   4.949   1.878 -0.0931 -0.1992 -0.3323
22490W        W38299  13.243   6.111  14.419  0.0568  0.1752 -0.1744
22491W        W38300   3.385   3.738   4.319 -0.1679  0.3732  0.1020
22492W        W38301   8.634   2.065  14.504 -0.1004 -0.0966 -0.1397
22493W        W38302   5.679  13.538  14.761 -0.0199 -0.2386 -0.1534
22494W        W38303  12.709  12.468   5.093 -0.0548  0.1172 -0.1465
22495W        W38304   2.008   3.367   1.721 -0.2618  0.1541 -0.1346
22496W        W38305   7.009   0.083  15.128 -0.0344 -0.0352  0.0026
22497W        W38306   9.057   9.191   2.383  0.0395  0.0178 -0.0980
22498W        W38307  11.284  11.095   0.714  0.1713  0.1178 -0.1326
22499W        W38308  11.441  10.601   2.312 -0.2263  0.1590  0.0987
22500W        W38309   0.985  18.236  13.295  0.1860 -0.2525 -0.1338
22501W        W38310  15.223   9.714   3.276 -0.0039 -0.4978  0.4840
22502W        W38311  15.239   0.069   3.501  0.0475 -0.3113 -0.0086
22503W        W38312   3.733  17.866   0.697  0.1108 -0.1449 -0.1839
22504W        W38313  15.378   9.614  13.808 -0.1255 -0.1315 -0.1303
22505W        W38314   5.791  17.755   1.596 -0.1774 -0.0721  0.1301
22506W        W38315   8.563   9.781  14.913 -0.1200 -0.1077  0.0261
22507W        W38316   6.551  12.174   0.222  0.1987 -0.0641 -0.0945
22508W        W38317   0.152   6.180  11.571  0.1989  0.0981 -0.4394
22509W        W38318   5.191  16.810  11.450  0.0476  0.0036  0.1120
22510W        W38319   0.503  13.067   0.978 -0.0874  0.1948  0.1668
22511W        W38320  15.993   3.068  12.625  0.1894 -0.1485 -0.1493
22512W        W38321   5.604   3.026   2.807  0.1396  0.0526  0.1061
22513W        W38322  10.953  13.511  11.059 -0.1273 -0.1349  0.0476
22514W        W38323  17.857  15.233  10.736 -0.0909  0.3229 -0.0510
22515W        W38324   8.984  13.065   2.304  0.1111 -0.1138  0.0837
22516W        W38325  14.694   6.306  11.126 -0.0678 -0.0495 -0.0453
22517W        W38326   5.613   2.808   3.861  0.0566 -0.0770 -0.1277
22518W        W38327   8.431  11.147   2.019  0.0571  0.1395 -0.0667
22519W        W38328  15.240   4.838  12.719  0.2755 -0.0501 -0.0141
22520W        W38329   4.751  15.370  11.476  0.0313 -0.3158  0.0744
22521W        W38330  15.791  12.442  13.843 -0.0554  0.3066  0.0376
22522W        W38331   4.487   0.561   5.706  0.1119  0.1772 -0.0671
22523W        W38332   9.590   2.009  15.531  0.3194  0.0861  0.1756
22524W        W38333   4.285  11.627  12.469 -0.1818 -0.3160 -0.0501
22525W        W38334   5.335   8.281  11.358  0.0431 -0.1818 -0.0549
22526W        W38335   5.815  11.643   1.007 -0.2668  0.0958 -0.0259
22527W        W38336   9.743  13.156   5.729  0.0088 -0.0723  0.0569
22528W        W38337   5.159   2.591  13.972 -0.1776 -0.1924 -0.0847
22529W        W38338  11.077   5.518  15.605  0.0679 -0.0686  0.3188
22530W        W38339  14.653  11.828  10.522 -0.1568 -0.0655  0.1082
22531W        W38340   3.147   2.585  11.039  0.1628  0.1428 -0.2058
22532W        W38341  18.143  11.501  12.949 -0.0089  0.2440  0.1629
22533W        W38342   7.228   6.298   3.036  0.1439  0.4578 -0.3367
22534W        W38343  15.240  14.985   0.811 -0.1726  0.2054 -0.0960
22535W        W38344  11.791  18.304  11.549  0.0471 -0.0610 -0.1061
22536W        W38345   3.362   8.823   3.614 -0.0962  0.1694  0.1426
22537W        W38346  10.794  13.104   5.709 -0.1262 -0.0550 -0.0800
22538W        W38347  13.041  12.414   2.818 -0.2267 -0.0669  0.1283
22539W        W38348  12.069   0.602  14.684 -0.2675 -0.1932  0.3038
22540W        W38349   6.944  14.612   3.620 -0.2220  0.0693 -0.3318
22541W        W38350  14.863  14.219   0.136  0.0488 -0.0542  0.1209
22542W        W38351   3.808  10.087   4.041  0.1440  0.0446  0.3827
22543W        W38352  16.622  12.330  13.464  0.1818  0.1000 -0.0023
22544W        W38353   6.754  17.574   1.240 -0.2195 -0.0482 -0.1115
22545W        W38354  12.618   7.137   0.346  0.0360  0.0405  0.0821
22546W        W38355  14.075   0.319  14.412 -0.0158 -0.3663 -0.0969
22547W        W38356  16.758   2.207   4.972 -0.0305  0.1166  0.4743
22548W        W38357  11.595   5.549  15.541  0.0253 -0.0843 -0.2305
22549W        W38358   9.354  12.109   1.728  0.2314 -0.1083  0.2307
22550W        W38359   0.764   9.109  10.461  0.2341 -0.0578  0.1171
22551W        W38360  16.471   5.273  11.352 -0.1320  0.1286  0.2126
22552W        W38361   5.817   7.801  14.629 -0.2026 -0.0951  0.4565
22553W        W38362   5.226   6.230  14.530 -0.0338  0.1166 -0.0541
22554W        W38363  18.480   9.497  12.926  0.0957  0.1108  0.1254
22555W        W38364   6.000  18.336   2.257  0.1489 -0.0580  0.2783
22556W        W38365   3.088  11.384  12.485  0.0633  0.2407  0.1383
22557W        W38366   1.314   8.469   0.297  0.1344 -0.0555 -0.1708
22558W        W38367   3.227   0.867   0.358  0.1013  0.1687 -0.2197
22559W        W38368   0.847   8.231  13.161 -0.0532  0.3086 -0.0692
22560W        W38369   6.415  12.631   0.082  0.1422 -0.1485  0.1848
22561W        W38370   0.589   2.399  10.325 -0.0131  0.1357 -0.0078
22562W        W38371  15.952  18.052  11.519 -0.1071  0.2894  0.2440
22563W        W38372   8.848   9.565   2.627  0.2846  0.5199  0.0354
22564W        W38373   4.686  10.228   0.291  0.0939  0.0104  0.2433
22565W        W38374   2.444  16.317   9.730 -0.0259  0.0300 -0.0656
22566W        W38375   5.494  13.378   1.423  0.0485 -0.0878  0.0209
22567W        W38376   6.760   8.831  10.426 -0.2854  0.0409  0.0716
22568W        W38377  14.142   4.465  12.940 -0.1234  0.3512  0.1193
22569W        W38378  18.181  13.753   9.818  0.2081  0.1233 -0.3979
22570W        W38379   5.647  16.675  12.916 -0.1264  0.2378  0.2432
22571W        W38380  16.819   8.012   3.646  0.1615  0.0006  0.0970
22572W        W38381   4.232  18.198   4.904  0.1214 -0.4825  0.1299
22573W        W38382  10.299   4.961   2.234  0.0384 -0.0329 -0.1877
22574W        W38383   1.267   3.749  15.191 -0.1272  0.1608 -0.0953
22575W        W38384  15.686  11.384   3.418  0.3698  0.0740  0.2768
22576W        W38385  18.147  16.211  13.322  0.1296  0.1149 -0.2968
22577W        W38386   3.729   6.372  15.102 -0.1300  0.2496 -0.0210
22578W        W38387  10.210  18.274   3.322  0.1232 -0.3784 -0.2264
22579W        W38388   2.973   4.898  15.447  0.4144  0.1710  0.1794
22580W        W38389   0.337  16.488  15.033 -0.2294  0.2109  0.0494
22581W        W38390  12.008  11.537   5.180 -0.0102 -0.0874 -0.1073
22582W        W38391  13.440   7.277   0.353 -0.1691  0.0231  0.4834
22583W        W38392   9.082  16.947  12.887 -0.0574 -0.0227  0.0143
22584W        W38393  13.946  14.801   1.291  0.0621 -0.2421  0.0878
22585W        W38394   1.323   5.970   2.352 -0.2855 -0.0889  0.0705
22586W        W38395   1.270   5.913  10.558 -0.1879 -0.4756 -0.2118
22587W        W38396  11.349   0.908  13.026 -0.1762  0.1195  0.3911
22588W        W38397   2.506  13.608  10.378  0.1741 -0.1595 -0.2566
22589W        W38398   5.463   0.370   5.309 -0.3705  0.2175 -0.2703
22590W        W38399  14.628   6.684   4.322  0.1773 -0.1945  0.1504
22591W        W38400  15.322  14.903  14.194 -0.2189  0.1406 -0.2245
22592W        W38401  13.200  18.652  14.089 -0.2823 -0.4018 -0.0185
22593W        W38402   8.962  15.370  12.310 -0.2609  0.1747  0.0827
22594W        W38403   2.214   7.058  15.099 -0.2822 -0.0434  0.1572
22595W        W38404  17.665  12.932   0.430  0.1920  0.2763  0.3019
22596W        W38405  14.075  16.412  11.716  0.2159  0.1355  0.1786
22597W        W38406  15.969   7.706  12.936  0.0292 -0.0298  0.0483
22598W        W38407  10.653   8.750  14.171 -0.2230 -0.1427  0.0447
22599W        W38408  17.279  10.888   2.317 -0.2075  0.2177  0.3897
22600W        W38409   9.385  12.146  14.356 -0.0972  0.1450  0.1847
22601W        W38410   0.444  14.508   0.491  0.0652  0.2550  0.1304
22602W        W38411   2.580  11.073   3.636 -0.0148  0.0350 -0.0691
22603W        W38412   2.237   7.869   9.763 -0.0420 -0.2729  0.1586
22604W        W38413   6.068  11.761  12.933 -0.0450  0.1657  0.0950
22605W        W38414  13.544  11.781   3.848  0.0699 -0.1221  0.1273
22606W        W38415  10.435   5.855  15.467 -0.1771  0.0109 -0.1481
22607W        W38416  13.542   7.777  14.529  0.1260 -0.1214  0.1277
22608W        W38417   4.337   3.521  14.246  0.0971 -0.0293  0.0526
22609W        W38418  11.842  14.593  13.452  0.4799 -0.3443  0.3238
22610W        W38419  15.628  15.948   3.649 -0.1760 -0.0791 -0.0573
22611W        W38420  10.148  18.124   5.282  0.1537 -0.1100 -0.3518
22612W        W38421   3.676  15.565   5.662  0.0853 -0.2238 -0.1397
22613W        W38422   3.934   2.548  12.717 -0.0049 -0.0158  0.2502
22614W        W38423  15.319  10.918   3.404 -0.2337 -0.1227 -0.3610
22615W        W38424   6.740  10.098  12.824 -0.1141  0.1574  0.1854
22616W        W38425  10.778  13.635  13.749  0.1363 -0.1809 -0.2609
22617W        W38426  17.153   5.879   5.605 -0.0260 -0.1910  0.2266
22618W        W38427  18.598   9.215   2.191  0.1418  0.1121  0.0994
22619W        W38428   5.207  11.647   0.787 -0.2416  0.1877  0.0516
22620W        W38429   2.761   4.889   1.146  0.0093  0.2529  0.0728
22621W        W38430   6.640  10.033   0.635  0.0384  0.1658  0.1432
22622W        W38431  14.754   8.812  14.179 -0.1619 -0.0885 -0.0371
22623W        W38432   0.541  14.537  14.139  0.1808 -0.2929 -0.2017
22624W        W38433  12.317   1.907   0.389  0.1316  0.4171  0.3095
22625W        W38434  16.612  10.924  14.884 -0.0113 -0.0272  0.0520
22626W        W38435   8.341  14.603  13.960 -0.1875 -0.2883  0.2612
22627W        W38436   9.569  10.520  15.149 -0.0847 -0.1603  0.1017
22628W        W38437  16.448  10.276   3.347 -0.3586 -0.0416  0.0828
22629W        W38438   7.104   5.778   1.047 -0.1866 -0.1238 -0.0547
22630W        W38439   2.709   4.526   2.968  0.1703 -0.1925 -0.0637
22631W        W38440   3.342   2.936  14.311  0.0013 -0.1688 -0.0824
22632W        W38441   0.515  11.905   0.101 -0.2962  0.0977  0.3314
22633W        W38442  12.246   9.052  14.247  0.2593  0.1638 -0.2562
22634W        W38443  17.529  18.112  11.291  0.1607  0.1196  0.1274
22635W        W38444  14.237   4.608  10.630  0.0110  0.2220  0.1002
22636W        W38445  16.620  16.587   2.522 -0.0177 -0.0108  0.3003
22637W        W38446  15.442  16.241   5.256  0.1321 -0.2087 -0.0015
22638W        W38447   1.970  18.403  12.134  0.0589  0.0094 -0.0366
22639W        W38448  15.594   8.836   4.568  0.0942 -0.0474 -0.0349
22640W        W38449   7.590  13.813   5.048 -0.2626 -0.2233 -0.0252
22641W        W38450  12.978  13.058  12.194  0.1038  0.0673 -0.0937
22642W        W38451  13.739  14.036  13.753  0.2448  0.2039 -0.2529
22643W        W38452  15.846   1.383  14.213 -0.1006  0.0827  0.3367
22644W        W38453   1.617   2.395  10.599  0.1113  0.2259 -0.2524
22645W        W38454  10.398  15.844   4.240 -0.1287 -0.1295 -0.3028
22646W        W38455   1.530   9.293  12.055 -0.3111 -0.2449 -0.2951
22647W        W38456  14.210  12.361  14.779 -0.0340  0.4561 -0.2194
22648W        W38457   3.009   1.940  11.869 -0.1769  0.0442 -0.3972
22649W        W38458   5.021   6.651  12.694  0.0371  0.1695 -0.0244
22650W        W38459  13.697  12.889  13.927  0.0825 -0.2607  0.0642
22651W        W38460   3.961  10.021   0.231  0.2468  0.2842 -0.0198
22652W        W38461  15.321  10.743   4.991 -0.5116 -0.0374 -0.0276
22653W        W38462   0.357  11.308  14.401 -0.0748  0.1528  0.2287
22654W        W38463  15.322   2.512   1.669 -0.1681 -0.2447 -0.5901
22655W        W38464   9.334  18.484  14.881 -0.1481  0.1780  0.1812
22656W        W38465  11.978   6.692  13.687  0.1441  0.0938 -0.3007
22657W        W38466  11.783  15.813  15.567 -0.2170  0.0780  0.2521
22658W        W38467  13.027   3.525   0.450 -0.1420 -0.1548  0.0412
22659W        W38468   0.405  17.424   5.022 -0.3077  0.2828  0.0085
22660W        W38469   5.679  11.595  14.748 -0.2953  0.0105 -0.2758
22661W        W38470   6.687  10.793   1.820 -0.0071 -0.0553  0.3042
22662W        W38471   5.608  15.707   2.438 -0.0600 -0.0979 -0.2302
22663W        W38472   0.774   2.178  11.227  0.1191 -0.3400 -0.1111
22664W        W38473  15.638   4.845   0.481 -0.0118  0.0398  0.0645
22665W        W38474  10.088   3.960   1.289  0.2946 -0.1920 -0.0388
22666W        W38475   4.485   3.469   0.739 -0.2077  0.4070 -0.1409
22667W        W38476   0.163   0.457  14.040  0.2722  0.1670 -0.0011
22668W        W38477   7.331   7.481   4.392 -0.0921  0.0106  0.0225
22669W        W38478  16.343  13.222  13.623  0.1149 -0.3508 -0.0292
22670W        W38479   9.448   7.185   4.343  0.0975 -0.2275 -0.0217
22671W        W38480   8.493   0.562  12.890 -0.0339  0.1634  0.0954
22672W        W38481   7.420  18.478   4.455 -0.0887 -0.0165 -0.3173
22673W        W38482   4.273   7.721   0.567  0.3028  0.0679  0.0285
22674W        W38483  13.582   5.580   3.605 -0.0504  0.0563  0.3847
22675W        W38484  16.365   5.718  15.139  0.2726 -0.1562  0.3244
22676W        W38485  12.828   4.769   5.058  0.0051  0.1699 -0.1001
22677W        W38486  10.581   6.860   0.060  0.1344 -0.0514 -0.1456
22678W        W38487  14.140  14.181   1.905  0.1144 -0.1096  0.0838
22679W        W38488  17.751  11.173   4.217 -0.1674  0.0750 -0.1134
22680W        W38489  14.892  10.054  13.566  0.2604  0.0680  0.1386
22681W        W38490  11.042   3.794  11.816 -0.0648  0.0765 -0.0433
22682W        W38491   4.134   3.914   3.083 -0.4471 -0.0244 -0.1054
22683W        W38492   4.256   9.138   3.246  0.0975  0.1973  0.0536
22684W        W38493   4.499  14.288  13.925  0.4022  0.0817 -0.1011
22685W        W38494  16.257  15.449   3.123  0.2949 -0.1362  0.0298
22686W        W38495  10.538   0.407  12.017 -0.0161  0.0236  0.1721
22687W        W38496  12.426  13.861  14.618 -0.1758 -0.2543 -0.0481
22688W        W38497   4.660  11.701  14.757 -0.3122  0.0053  0.2736
22689W        W38498   5.905  14.809   4.646 -0.1355  0.0310  0.1841
22690W        W38499  18.137  12.631   0.564 -0.0305 -0.0383  0.0720
22691W        W38500  14.971  16.863  12.660 -0.2429 -0.2407  0.1771
22692W        W38501   9.258  11.248  10.937 -0.1211  0.1357  0.1993
22693W        W38502   3.610  10.731  10.913 -0.0209 -0.0510 -0.0010
22694W        W38503  11.589  18.426   1.761  0.0906  0.2158  0.0850
22695W        W38504  17.780  13.062  14.187 -0.0354  0.0377 -0.0359
22696W        W38505   0.050  17.745  10.925  0.0217  0.2403 -0.0419
22697W        W38506   9.777   2.587   2.614 -0.2627 -0.1966  0.0353
22698W        W38507   9.839  10.893  14.059 -0.1621  0.1143 -0.0163
22699W        W38508  11.174  17.468   3.416 -0.2262  0.1400  0.2927
22700W        W38509  17.697   4.626   2.146  0.2083  0.0917 -0.2360
22701W        W38510   4.899  15.767   4.801 -0.0558 -0.1299 -0.2049
22702W        W38511  14.498   8.630   5.253  0.0257 -0.1531 -0.1876
22703W        W38512   4.349   8.306   5.285  0.0328 -0.2407  0.0682
22704W        W38513   2.659   3.551   4.254 -0.1836 -0.3755 -0.0335
22705W        W38514  16.669   3.780   2.345 -0.0664  0.3740 -0.1326
22706W        W38515   5.242  17.767   9.830 -0.3307 -0.2094  0.1213
22707W        W38516  12.340   3.190  13.556 -0.0515  0.2449  0.0429
22708W        W38517  13.442  14.630   2.941 -0.0126 -0.1084  0.1973
22709W        W38518   9.784   5.073  10.921 -0.1220 -0.2160 -0.2353
22710W        W38519   6.675   5.753  11.084  0.1249  0.0040 -0.1253
22711W        W38520  10.886  10.994  12.858 -0.2192  0.1949  0.2900
22712W        W38521  13.059  12.335  15.138 -0.2291  0.4135  0.2073
22713W        W38522  13.096  16.889  13.011 -0.0607 -0.1181 -0.3690
22714W        W38523   0.511  13.843  13.182  0.0354  0.2041 -0.4471
22715W        W38524   3.145  10.764  11.122  0.4996  0.3069  0.1253
22716W        W38525   9.573   8.732   4.928  0.2643 -0.4306  0.2809
22717W        W38526   5.977  14.140   5.904  0.3053 -0.1366  0.2572
22718W        W38527   3.144   3.178   4.876  0.1379 -0.0301 -0.0632
22719W        W38528  13.340   8.323   2.426 -0.0058  0.1252  0.1533
22720W        W38529  12.636   1.737  14.356  0.1310 -0.0596  0.1822
22721W        W38530   2.841   3.813  14.027 -0.3230 -0.1983 -0.1641
22722W        W38531   4.684  14.825  14.871  0.1470  0.1085 -0.1962
22723W        W38532  13.717   0.205  14.110  0.2540  0.1445  0.0897
22724W        W38533   1.849  15.339   6.119  0.1019  0.3625 -0.1209
22725W        W38534   9.883  10.992   2.411 -0.0395  0.1585 -0.1022
22726W        W38535   7.950  17.347  12.546 -0.0409 -0.0177  0.4133
22727W        W38536  17.300   1.726   4.319  0.0119 -0.0604  0.3963
22728W        W38537   4.048  16.823  12.823 -0.1395  0.4361 -0.1396
22729W        W38538  13.356  16.832   5.524  0.3845  0.3728 -0.1258
22730W        W38539   6.482   2.195  15.279 -0.1832 -0.0595 -0.2790
22731W        W38540   8.631  11.706   4.168 -0.0815 -0.2842 -0.1957
22732W        W38541   7.459   3.650  14.865 -0.1675 -0.0204  0.1987
22733W        W38542   0.494   5.080   9.637 -0.2341 -0.0765  0.1037
22734W        W38543  11.468   5.936  14.535  0.1706  0.0305 -0.2038
22735W        W38544   0.781   1.013   1.399  0.0777  0.1191  0.0327
22736W        W38545   0.544   2.069   9.529 -0.2095  0.1292 -0.2465
22737W        W38546   1.428   6.206   2.766 -0.0892  0.1738  0.2621
22738W        W38547  15.540   2.423  13.267 -0.1758  0.2298  0.0030
22739W        W38548  14.253   2.899   0.593 -0.0699  0.0863  0.3256
22740W        W38549   7.580   0.269   0.530 -0.1157  0.0773 -0.0430
22741W        W38550  16.522   6.087  13.436 -0.1176  0.3049 -0.2204
22742W        W38551   0.328   3.579  12.843  0.2623 -0.1078 -0.0188
22743W        W38552  17.850  14.717  10.731 -0.4894 -0.0583  0.3370
22744W        W38553   6.819   8.611   4.476  0.1295 -0.2308 -0.5390
22745W        W38554  11.505   8.005   1.254  0.2274  0.0647  0.3370
22746W        W38555   3.105  10.749   2.208  0.2658  0.0978 -0.0042
22747W        W38556  18.182   8.247  10.709  0.1142  0.1076  0.0027
22748W        W38557   7.873   9.713  13.226  0.0527 -0.0950  0.2139
22749W        W38558  12.144   0.550   4.555  0.2277 -0.4066  0.1206
22750W        W38559  15.987  18.312   1.593  0.3780 -0.0744 -0.1286
22751W        W38560  16.136   0.816   5.790  0.2530 -0.2160  0.0813
22752W        W38561  14.101   7.187  11.183  0.1059 -0.0396 -0.1581
22753W        W38562   7.144  13.662   3.383 -0.0835 -0.1367 -0.2193
22754W        W38563  14.531   1.921  14.969  0.3106  0.1803  0.0463
22755W        W38564  17.857   3.081   0.899  0.0308 -0.0517 -0.0073
22756W        W38565   6.811  18.507   2.279 -0.2201 -0.4480 -0.1298
22757W        W38566   2.041   5.341   4.400  0.0306  0.1862 -0.1349
22758W        W38567  13.888   5.733   3.220 -0.1800 -0.2203  0.2616
22759W        W38568   7.761  10.006  11.381 -0.1791  0.3276  0.2902
22760W        W38569   9.782   8.082   2.075 -0.0504 -0.3311  0.0467
22761W        W38570  16.664  16.914   4.828  0.0821  0.3192  0.0381
22762W        W38571   1.229   6.067  14.108 -0.1256  0.1767  0.0720
22763W        W38572  12.080   5.080   2.034 -0.2794 -0.3074  0.0436
22764W        W38573   3.467  16.734  14.317 -0.0750  0.0942  0.1878
22765W        W38574   4.614   5.249   2.015 -0.1681 -0.1042  0.0568
22766W        W38575   6.015  10.563  10.879 -0.3690  0.0490  0.0813
22767W        W38576  13.594   2.575  13.197  0.0643  0.0977 -0.0341
22768W        W38577  12.814   5.705  14.483 -0.0548 -0.0748  0.1854
22769W        W38578   7.149   2.511   4.989 -0.1447 -0.0419  0.0221
22770W        W38579  16.114  13.678  10.352 -0.3423  0.0656 -0.1398
22771W        W38580   0.840  12.073  12.485  0.0370  0.1078 -0.1933
22772W        W38581   9.364   4.632  15.342  0.1368  0.1888  0.1067
22773W        W38582  11.958   1.799   1.472  0.0441 -0.1029 -0.2172
22774W        W38583   1.604  14.598   4.038  0.4011  0.0287  0.1994
22775W        W38584  17.257   1.639   3.024  0.1345 -0.2033  0.0490
22776W        W38585   6.450  16.827   2.608 -0.1638 -0.1525  0.2333
22777W        W38586  16.845   1.988   1.147 -0.0051 -0.0845 -0.3051
22778W        W38587  13.923  18.635  12.715  0.2854 -0.1292 -0.2346
22779W        W38588  16.435   3.142   2.940 -0.3700  0.1575 -0.0822
22780W        W38589   4.354   3.066  13.384 -0.3081 -0.0123 -0.0980
22781W        W38590   3.551   2.748  13.042 -0.1144  0.0272  0.2673
22782W        W38591   7.782  15.809  10.974  0.0495  0.0471  0.0491
22783W        W38592  15.805   7.776  14.068  0.0729 -0.0497  0.1274
22784W        W38593  12.155   9.120  11.876 -0.2119 -0.1494 -0.0058
22785W        W38594  10.958  17.064   1.151 -0.0400  0.0808 -0.1504
22786W        W38595   3.857   4.004   2.089  0.2548  0.1709  0.0024
22787W        W38596   1.400  18.412  14.022  0.1657  0.0149  0.0672
22788W        W38597  13.482   8.979   2.541  0.0049 -0.0100 -0.2475
22789W        W38598   3.785   2.990   3.252 -0.1013  0.0267 -0.2767
22790W        W38599   8.448  17.422  13.824  0.2224 -0.2007 -0.1189
22791W        W38600   8.283  12.993  11.413  0.0642 -0.0521  0.0778
22792W        W38601   8.281   6.546  13.980  0.1129 -0.0491  0.0955
22793W        W38602  10.138   2.579   6.182 -0.0289  0.1760 -0.1600
22794W        W38603  11.173  10.817   1.856 -0.0773  0.0908 -0.0448
22795W        W38604   3.899   0.900  14.660 -0.0208  0.1200  0.3295
22796W        W38605   1.614   2.196   3.970  0.1776 -0.0589 -0.1219
22797W        W38606   0.006  14.769   2.746 -0.0978 -0.2212  0.0383
22798W        W38607   0.284   7.706  12.801  0.1126  0.1422 -0.0654
22799W        W38608   0.386   0.463  12.743 -0.2038 -0.1965  0.1051
22800W        W38609   2.678   0.517  11.023  0.2751 -0.1783  0.0493
22801W        W38610  15.230  16.997  13.041  0.0062 -0.1870 -0.0331
22802W        W38611   5.274  13.297   4.194  0.2521  0.1091  0.1249
22803W        W38612  14.934   0.274  13.346  0.2149 -0.0590  0.1745
22804W        W38613   8.247   8.279   3.380 -0.0152  0.4027  0.0509
22805W        W38614   3.771  12.298   2.539  0.0460 -0.0676 -0.2489
22806W        W38615  11.161  12.299   1.661  0.1956 -0.0570  0.0288
22807W        W38616  12.498   7.812   3.465 -0.0505 -0.1578 -0.1420
22808W        W38617   0.156   1.598  13.033  0.0061 -0.2185  0.1259
22809W        W38618   4.648   6.240  12.277  0.2027  0.0496 -0.0231
22810W        W38619   5.833  15.170   2.788  0.1174  0.0129 -0.3063
22811W        W38620   8.679  10.153  11.602 -0.3162  0.0189  0.3248
22812W        W38621   5.189   4.880   3.669 -0.2311  0.0412 -0.1627
22813W        W38622  10.265   7.238  12.781  0.0907  0.0936 -0.1070
22814W        W38623  10.804  14.630   4.863 -0.0676 -0.4459  0.3961
22815W        W38624   0.819   8.635   0.535  0.0510  0.2329  0.0860
22816W        W38625   5.300  10.942   0.547 -0.3394 -0.1563 -0.0152
22817W        W38626  16.079   7.973   1.933  0.3927  0.4977 -0.0608
22818W        W38627   5.069   9.266  13.918 -0.3651 -0.1336 -0.2771
22819W        W38628  10.167  10.204   1.265 -0.5048  0.0554  0.1373
22820W        W38629   2.264  14.372   0.270 -0.2324 -0.1797 -0.2799
22821W        W38630   8.462   3.650   1.069 -0.3213 -0.0328 -0.3096
22822W        W38631  17.426   8.950  15.041  0.0553  0.4947 -0.0828
22823W        W38632  10.881   8.771  12.416  0.3376  0.3067 -0.0077
22824W        W38633   5.293   1.144  15.157 -0.1355 -0.0940  0.0276
22825W        W38634  17.876  18.514   1.641  0.0411 -0.5620  0.1134
22826W        W38635   4.710   2.869  14.807 -0.1216  0.2605  0.1783
22827W        W38636  11.272   6.321  11.477 -0.2230  0.2035  0.1686
22828W        W38637  13.588   2.035   0.919  0.0687  0.0425 -0.2734
22829W        W38638   1.911   0.936   2.258  0.0467  0.1773  0.3289
22830W        W38639   2.764   3.353   0.678  0.2083 -0.0019 -0.2276
22831W        W38640   6.376   4.722  13.660 -0.0610  0.1279  0.2943
22832W        W38641  12.194  16.854   4.425 -0.0114 -0.3356  0.1560
22833W        W38642  13.199   8.975   5.002  0.0670  0.1866  0.1683
22834W        W38643  13.552   5.220  10.839  0.1272 -0.0789  0.1811
22835W        W38644   3.456   2.523  11.723  0.2498 -0.0251 -0.2628
22836W        W38645  15.079   0.566   1.823 -0.2246 -0.1247 -0.0526
22837W        W38646   2.126   8.489  10.797  0.0669  0.1200 -0.0821
22838W        W38647   2.287  16.461   3.596  0.2982  0.1607 -0.0580
22839W        W38648  11.879   3.093  13.127 -0.1009 -0.5006  0.0438
22840W        W38649   0.560   4.733  13.741  0.0880  0.1280  0.1772
22841W        W38650  18.060   4.115  15.031  0.0443  0.3199  0.2366
22842W        W38651   2.917   8.444  15.455  0.0423  0.1663 -0.0249
22843W        W38652  14.893  17.239  14.807  0.4027  0.1998  0.0451
22844W        W38653  10.294   8.071   0.105  0.1890  0.1722 -0.5027
22845W        W38654  16.625   1.467  13.038  0.1744 -0.3582 -0.2009
22846W        W38655   8.890   3.048   2.046 -0.0685 -0.2395 -0.2950
22847W        W38656  18.517  17.172   1.187  0.1418  0.4225 -0.3300
22848W        W38657   0.382  16.641  13.347 -0.0391 -0.1940  0.0365
22849W        W38658   5.919  13.206  15.122  0.2532  0.1088 -0.0606
22850W        W38659   6.261   2.980  14.401  0.0787 -0.0830 -0.2735
22851W        W38660  11.207   4.909  12.280 -0.1777 -0.0409  0.2460
22852W        W38661   5.188  16.732  14.860 -0.0972 -0.0074 -0.0282
22853W        W38662   6.355   6.092  14.759  0.0796  0.1199  0.0191
22854W        W38663   0.151   0.155   2.083  0.2545 -0.2096 -0.0414
22855W        W38664   4.677  17.751   4.117  0.0010  0.0215 -0.4447
22856W        W38665   7.392   5.607  15.402 -0.1145  0.0419  0.1404
22857W        W38666  13.850   8.546   0.767  0.1547 -0.0419 -0.0684
22858W        W38667  12.097   2.918  12.593  0.1635 -0.2230  0.2265
22859W        W38668   2.848  17.174   3.709  0.1992  0.0881  0.1174
22860W        W38669   4.085   5.137   0.194 -0.0110  0.1858  0.2789
22861W        W38670   6.943   1.475  12.615 -0.1715  0.1128 -0.0760
22862W        W38671   1.829  13.264   0.869  0.0675  0.1700  0.1001
22863W        W38672   6.336   0.109  11.748  0.1108  0.2369 -0.2690
22864W        W38673   9.159   3.236  11.336  0.1797  0.0175 -0.0335
22865W        W38674  16.072  13.570   3.208 -0.0641  0.0385 -0.0798
22866W        W38675   8.274   1.909  13.235 -0.1393 -0.2364  0.2471
22867W        W38676  15.180  13.767  15.311  0.0509  0.0066 -0.0971
22868W        W38677   0.774  12.774  14.147  0.3615  0.0715  0.2108
22869W        W38678   2.290  14.008  14.220 -0.0703 -0.3330 -0.2502
22870W        W38679  11.072   9.937  11.308 -0.2013 -0.1697 -0.0722
22871W        W38680   3.414   4.874   0.751  0.1922  0.0161 -0.3143
22872W        W38681   0.522   9.768   4.971  0.0191  0.0657 -0.0592
22873W        W38682   6.603  17.406  12.799  0.1003 -0.2692  0.0130
22874W        W38683  13.160   2.251  15.010 -0.2245  0.0484 -0.0104
22875W        W38684   3.908  13.618  14.947  0.0468  0.3363  0.0037
22876W        W38685  15.592  13.601  12.747  0.0680  0.1193  0.1243
22877W        W38686  18.341  15.393  14.390  0.5803  0.0246  0.0662
22878W        W38687  18.212  17.553   2.080 -0.2207 -0.2503 -0.0001
22879W        W38688  13.283  13.103  12.786 -0.2897  0.1348 -0.0924
22880W        W38689   4.707  13.677  13.475 -0.0664  0.2312 -0.1255
22881W        W38690   3.560   9.173  10.855 -0.0232  0.1742  0.1570
22882W        W38691   1.021  10.381  13.795  0.1319  0.2532 -0.1338
22883W        W38692   1.902  17.264   2.926 -0.0227  0.0767 -0.1005
22884W        W38693  17.936  13.476   4.134  0.0372 -0.2960 -0.0506
22885W        W38694  14.126  15.988  11.435 -0.0233  0.1793  0.0051
22886W        W38695   8.821   6.329  10.960 -0.1283 -0.1039 -0.4388
22887W        W38696  14.904  12.335   0.180 -0.1366  0.2574  0.1116
22888W        W38697   5.452  11.387   5.134  0.0678  0.0159  0.1953
22889W        W38698  15.945   6.244   1.068 -0.0531 -0.0963  0.1202
22890W        W38699  12.152   8.503  14.382  0.0191  0.2755 -0.0170
22891W        W38700   7.912  14.742   3.979 -0.0597 -0.0563 -0.0578
22892W        W38701  11.144   8.674  13.230  0.0442  0.0713  0.1844
22893W        W38702   0.676  12.886  10.732  0.0089  0.3063  0.3048
22894W        W38703   2.200   8.965  13.213 -0.1143  0.1981  0.0748
22895W        W38704   5.192   9.568   3.169 -0.6706 -0.1750 -0.3752
22896W        W38705  15.879   0.369  14.832  0.0982 -0.1124  0.2858
22897W        W38706  15.702  15.220  14.058 -0.1053 -0.0838  0.0813
22898W        W38707  17.141  10.752   0.576  0.2064 -0.2877  0.0000
22899W        W38708   0.984   9.563   4.964  0.2023 -0.1592  0.2658
22900W        W38709  17.990   1.461   4.768  0.0814  0.0415 -0.0299
22901W        W38710   3.265  18.245  15.173 -0.1170  0.2657  0.0518
22902W        W38711  16.664   8.582  12.248  0.1385  0.1868  0.0336
22903W        W38712  12.594  12.182  15.285  0.1800 -0.0439 -0.2618
22904W        W38713   4.216   8.723  11.590  0.2107 -0.3148 -0.1794
22905W        W38714   1.777  15.956   2.300  0.1410  0.0303  0.1437
22906W        W38715   0.126   0.582   0.169  0.0022 -0.4922 -0.1615
22907W        W38716  11.264   7.465  14.638 -0.1247 -0.0799  0.1679
22908W        W38717  18.599   5.959   3.353  0.3641  0.1603 -0.0568
22909W        W38718  10.334   8.605   0.039 -0.2165  0.0602 -0.1055
22910W        W38719   1.202   4.163  14.851 -0.2264  0.0281 -0.1590
22911W        W38720  16.200  13.404  15.178 -0.1590 -0.1243  0.2456
22912W        W38721   2.682  17.503  13.179 -0.1600 -0.2130 -0.0695
22913W        W38722   4.611   9.085   4.582 -0.0767 -0.3340  0.1882
22914W        W38723   0.899   5.632  13.691 -0.1677 -0.0705 -0.0667
22915W        W38724  17.412  18.071  14.351  0.0702  0.0991  0.0062
22916W        W38725  12.720   5.072  11.007 -0.1237 -0.0662 -0.2262
22917W        W38726  16.829   0.148  14.782  0.3633  0.0664  0.2061
22918W        W38727  13.898  15.080   4.177 -0.0530  0.1922  0.0202
22919W        W38728   1.689   4.572   2.520  0.2839 -0.0386  0.2523
22920W        W38729   7.774  17.822  11.233  0.1217 -0.2457  0.1137
22921W        W38730   3.104   8.336  12.442  0.0846 -0.3222  0.1846
22922W        W38731  15.768   2.029   0.556  0.0864 -0.0402 -0.1030
22923W        W38732   6.556  16.311  10.517  0.3410  0.0434  0.0214
22924W        W38733   3.257   8.816   5.297  0.1912 -0.0783 -0.0399
22925W        W38734   5.528  16.976   5.737 -0.2181 -0.3608 -0.3219
22926W        W38735  18.420   7.614  11.278 -0.1292 -0.3492 -0.1540
22927W        W38736  13.635   8.591   4.859  0.2365  0.0447 -0.2112
22928W        W38737  16.072   7.016   0.453 -0.0358 -0.2742  0.0501
22929W        W38738   1.166  18.445  10.357 -0.1295 -0.3381  0.2295
22930W        W38739   0.664  17.938  13.588  0.0792 -0.1785  0.0076
22931W        W38740   4.030  16.307  13.421  0.1309  0.0492  0.0695
22932W        W38741   3.236  11.879   5.511  0.2677 -0.1501 -0.3989
22933W        W38742  10.239  11.649  13.881  0.1538 -0.0043  0.3049
22934W        W38743  13.735   6.585  10.727 -0.0586  0.0806 -0.1009
22935W        W38744  10.047   3.776  13.202 -0.0246  0.0543  0.0036
22936W        W38745   8.199   1.914  10.242  0.1217  0.2612  0.0018
22937W        W38746   4.338  13.341  14.925 -0.1485 -0.0641  0.0977
22938W        W38747   7.611   8.965  15.458 -0.2541 -0.1238 -0.0194
22939W        W38748  10.211   6.562   2.209 -0.0000  0.2243 -0.0255
22940W        W38749   1.289   0.766  11.323  0.0152 -0.1314  0.0591
22941W        W38750   4.799  15.329   5.019 -0.0396  0.2793  0.1443
22942W        W38751   4.240   5.953   0.151  0.2753  0.6477  0.2199
22943W        W38752   9.348  13.921   2.798  0.1350  0.1920 -0.2010
22944W        W38753   3.699  12.659  14.635  0.1098 -0.1934  0.3393
22945W        W38754  18.082   9.446   0.287  0.1738  0.0762 -0.0984
22946W        W38755  11.538   0.946   2.933 -0.0991 -0.1613  0.2045
22947W        W38756   7.031   0.476   1.972 -0.0421  0.1802  0.4136
22948W        W38757  16.435  10.065  14.622 -0.2589 -0.0591 -0.1079
22949W        W38758   0.433  14.044  14.159  0.1946  0.0859  0.0588
22950W        W38759   8.304   8.138   1.921 -0.2417  0.0915  0.1306
22951W        W38760  12.412   0.308   1.501  0.2670 -0.1645 -0.0702
22952W        W38761   5.607   6.499   2.495 -0.0970  0.2003  0.0244
22953W        W38762   1.914   5.669  12.886  0.0768 -0.1712  0.0725
22954W        W38763   6.535  11.871   2.459 -0.1760 -0.2490 -0.0041
22955W        W38764  14.751  11.014  13.757  0.4005 -0.1739  0.0859
22956W        W38765   0.813  10.830  12.219 -0.1556  0.2790 -0.0207
22957W        W38766  17.185  12.373  12.608 -0.3187 -0.0376  0.1180
22958W        W38767  13.706   5.497   0.532 -0.1755 -0.1275  0.2997
22959W        W38768   2.251  18.533   3.241 -0.0663 -0.0570 -0.1497
22960W        W38769  18.193  12.284   1.901 -0.0341  0.3666  0.2538
22961W        W38770  11.521   9.205   5.723 -0.0626  0.1444 -0.2381
22962W        W38771   4.992   7.573  13.047 -0.1688  0.0389  0.2575
22963W        W38772   7.723  14.630   3.033 -0.1126 -0.1588  0.3382
22964W        W38773  17.222   9.567   2.220 -0.2202 -0.5222 -0.2864
22965W        W38774  10.089  16.043  15.423  0.1397 -0.0564 -0.1560
22966W        W38775   3.849   7.387   2.422 -0.2709 -0.1410  0.1274
22967W        W38776   8.131   4.341  12.205  0.0192 -0.0610 -0.1096
22968W        W38777  10.890   7.619  11.589 -0.4363 -0.1084 -0.1602
22969W        W38778   2.869   1.560   4.685 -0.3003 -0.0256 -0.3387
22970W        W38779   4.971   2.494   0.296 -0.0686  0.2972  0.1897
22971W        W38780   5.400   5.733   3.120 -0.1289  0.1141 -0.1625
22972W        W38781   1.702  18.188  15.034  0.0896 -0.0564 -0.0374
22973W        W38782   3.882   0.272   3.811  0.0090 -0.1162 -0.2007
22974W        W38783  12.506  16.280  14.436  0.1045  0.0303 -0.0139
22975W        W38784   5.668  14.671  10.892 -0.2859  0.0215 -0.0460
22976W        W38785  17.690   0.905  13.378 -0.4034 -0.3223 -0.2238
22977W        W38786   8.157  11.487  14.346 -0.2232 -0.0354  0.2246
22978W        W38787   8.155  16.626  11.833  0.2082 -0.0894  0.1945
22979W        W38788  14.334  18.001   0.427 -0.0101  0.3440  0.0731
22980W        W38789   7.520   1.514  14.952  0.0933 -0.0050 -0.1805
22981W        W38790  11.152  18.481   3.268 -0.1094 -0.0228  0.1531
22982W        W38791   2.251   4.118   3.593 -0.1960 -0.0567  0.3716
22983W        W38792   0.053   8.087  11.449  0.3170  0.1537 -0.1238
22984W        W38793  17.577   3.824   1.775  0.2812 -0.0727 -0.0997
22985W        W38794  12.688  17.360   4.344  0.0600 -0.0063  0.0028
22986W        W38795  15.719   5.527  12.804  0.4236  0.0531  0.5290
22987W        W38796  11.473   9.890   0.282  0.2425 -0.1479  0.1078
22988W        W38797  12.368   9.121   1.409  0.0322 -0.0639 -0.1727
22989W        W38798   5.733   5.280  14.527 -0.3782 -0.2878 -0.0809
22990W        W38799   6.108   1.246  11.584  0.2882  0.0351  0.3662
22991W        W38800  16.900  18.171   1.450 -0.0384  0.4103  0.2851
22992W        W38801   5.616  14.694   2.562  0.1715  0.2229  0.4635
22993W        W38802  17.584  10.482  13.995  0.0079  0.0779 -0.1481
22994W        W38803   4.025   1.581  13.839 -0.0527 -0.0721  0.1862
22995W        W38804   0.842  13.581  10.004 -0.0341  0.1598 -0.2534
22996W        W38805   2.468  15.069  13.627 -0.0584 -0.0388 -0.1464
22997W        W38806  15.206   9.264  15.596  0.1810  0.0811  0.0442
22998W        W38807  16.795   9.611  10.573  0.0949  0.2569 -0.1373
22999W        W38808   6.848   4.043   1.445 -0.2610 -0.1816 -0.0681
23000W        W38809   4.785   3.740  12.970 -0.0009 -0.0554  0.1240
23001W        W38810   4.778   7.867  14.397  0.1294 -0.0108 -0.1215
23002W        W38811   8.628   0.930  12.453  0.3811 -0.1764  0.1005
23003W        W38812   4.586   8.485   3.065  0.0875  0.1366 -0.2017
23004W        W38813   1.581   4.342  13.161  0.2173 -0.2706  0.1512
23005W        W38814  12.399   3.268  15.371 -0.0227  0.1599 -0.0772
23006W        W38815  12.841  14.414  11.391 -0.0117  0.2646  0.1404
23007W        W38816  14.157   2.259  10.894 -0.2685  0.1544  0.1851
23008W        W38817   7.968  17.443  11.498  0.3405 -0.3027  0.0251
23009W        W38818  17.897   6.559  13.112  0.1380  0.0373 -0.1203
23010W        W38819  13.951   1.799  11.127  0.0756 -0.2364  0.1613
23011W        W38820  15.571   6.099  13.000  0.0883 -0.1406  0.1987
23012W        W38821   3.823  12.205  10.778 -0.0600 -0.2181 -0.3056
23013W        W38822  10.510   6.056  14.506 -0.1881 -0.0379 -0.2458
23014W        W38823  12.951   5.647  10.538  0.0637  0.0373  0.0999
23015W        W38824  13.200   9.509   4.790 -0.0140 -0.2463 -0.0309
23016W        W38825  12.158  14.753  14.197 -0.2006 -0.2311 -0.0827
23017W        W38826   1.020  17.633   0.694  0.0008  0.1304 -0.0470
23018W        W38827  13.263   3.979  11.321  0.1468 -0.1794  0.2292
23019W        W38828   2.145   0.121  14.699 -0.0740  0.2124 -0.0030
23020W        W38829  12.457   3.815  12.485 -0.0038  0.2443  0.0250
23021W        W38830   9.339  13.300  10.793  0.3727  0.1775  0.0411
23022W        W38831   7.135  18.341   5.680 -0.1945 -0.0111 -0.0622
23023W        W38832   8.414   7.467  11.268 -0.0984 -0.1698  0.1847
23024W        W38833  14.566  16.722   4.991 -0.0069 -0.0654  0.3648
23025W        W38834   3.980  15.928   1.854  0.1651 -0.0081 -0.3527
23026W        W38835   6.039  13.575  11.575 -0.1783 -0.1064 -0.1142
23027W        W38836  13.720   9.079  11.223  0.1462  0.0776  0.1677
23028W        W38837   9.307  13.284   4.212 -0.2211 -0.2163  0.2432
23029W        W38838  13.872  16.126  12.153  0.1182  0.1496 -0.1323
23030W        W38839  14.964  18.630   2.602 -0.2293 -0.4767  0.1141
23031W        W38840   6.489  17.988   5.441 -0.5531 -0.1490  0.1206
23032W        W38841   5.508   2.431   0.196 -0.0336 -0.1844 -0.1421
23033W        W38842  17.545   9.942  10.910  0.0016 -0.1520  0.0046
23034W        W38843  11.929   6.414   3.419  0.0380  0.5147  0.1743
23035W        W38844   5.139   5.863  11.687 -0.2147 -0.1473 -0.3033
23036W        W38845   6.486   1.989   0.991  0.1153 -0.0841  0.0126
23037W        W38846   3.692  14.378   5.041 -0.0039 -0.3928 -0.2586
23038W        W38847   0.400   6.816   0.590  0.2945  0.1113 -0.1437
23039W        W38848   4.275   3.814   4.365 -0.1999 -0.0603 -0.0969
23040W        W38849   4.845   2.273   3.368  0.0675 -0.2490  0.0198
23041W        W38850  15.418  15.182   0.399  0.0184  0.1245 -0.1463
23042W        W38851  16.922   8.084  14.543 -0.2050 -0.1440 -0.0066
23043W        W38852  11.125   2.707   2.724 -0.0236 -0.1060  0.1871
23044W        W38853  11.847   1.277   1.573 -0.1700 -0.1770 -0.0259
23045W        W38854   9.857   5.895  13.737  0.2690 -0.0424 -0.4674
23046W        W38855  11.722   5.745  12.832 -0.1330 -0.0040 -0.0267
23047W        W38856   0.586   8.438  15.024 -0.0631 -0.0144 -0.4125
23048W        W38857  14.969   8.328  10.912 -0.1333 -0.1574  0.1805
23049W        W38858   4.145  15.757  14.482  0.0211  0.0521 -0.1830
23050W        W38859   5.736   2.029   2.262 -0.0074 -0.0219  0.2058
23051W        W38860  17.617   7.873   2.333  0.2572 -0.1033 -0.0331
23052W        W38861   6.012  15.443  14.227 -0.2794  0.1676 -0.0607
23053W        W38862  11.423  10.202   1.130  0.1781  0.0520  0.1075
23054W        W38863   9.711   4.923   0.750  0.1674 -0.0524 -0.0786
23055W        W38864   3.023  10.882   4.914 -0.0546 -0.2451  0.0805
23056W        W38865   7.811   6.333  12.392 -0.0446  0.0395  0.0032
23057W        W38866   3.216   5.043   3.776 -0.1183  0.2758  0.2287
23058W        W38867  11.542   6.724   3.674  0.3623 -0.4416 -0.1657
23059W        W38868   9.164   2.255   4.401  0.0559  0.2395 -0.0444
23060W        W38869   6.279  11.120  13.703 -0.0172 -0.1122 -0.2443
23061W        W38870   3.022  17.471   5.899  0.0439  0.2574 -0.0767
23062W        W38871  16.649  11.075  15.503 -0.0005  0.1465  0.0679
23063W        W38872   2.621  14.446  13.357  0.1804 -0.3100  0.0412
23064W        W38873   3.496  16.043   2.690  0.2676  0.2088 -0.1182
23065W        W38874   9.144   8.238   2.560 -0.1963 -0.0273 -0.1347
23066W        W38875   8.878   2.850   5.101 -0.1883 -0.1234  0.2265
23067W        W38876  15.449  16.816  12.329 -0.2119 -0.3638  0.1333
23068W        W38877   1.014   1.599  10.613  0.2090 -0.0086  0.1236
23069W        W38878   7.397  13.541   0.185 -0.2240 -0.1929  0.2922
23070W        W38879   5.840  18.053  11.884 -0.1097  0.1383 -0.0684
23071W        W38880  11.436  14.985  14.922 -0.2399  0.3295  0.1752
23072W        W38881   6.522   4.573   2.066 -0.1867 -0.0060 -0.0544
23073W        W38882   0.160   9.096   0.158  0.0830  0.0026  0.0671
23074W        W38883  12.636  13.627   4.614 -0.0437  0.0829  0.0309
23075W        W38884   1.167  11.158   0.100 -0.3423  0.0222 -0.4762
23076W        W38885   2.273  10.822  11.036 -0.0209  0.0281  0.1168
23077W        W38886  12.699  18.597  14.108 -0.2108 -0.1707 -0.1396
23078W        W38887  14.944  17.678  14.447 -0.0603  0.1218 -0.2190
23079W        W38888  14.178   1.543  14.659 -0.0254 -0.0651 -0.1489
23080W        W38889  14.336   9.437   2.840 -0.0240 -0.0567  0.0499
23081W        W38890  13.422   8.077  14.157  0.1157 -0.3379  0.1760
23082W        W38891  10.483   2.933   6.001 -0.0469  0.3286  0.0685
23083W        W38892   3.006  14.737  11.007 -0.6033  0.2412 -0.2291
23084W        W38893   3.471   6.252  11.172  0.4013  0.1148  0.3845
23085W        W38894   3.278   9.348   4.311  0.0672  0.0400 -0.1883
23086W        W38895   9.249  14.664  13.614 -0.1823  0.0558  0.1117
23087W        W38896  10.663   3.082  14.488  0.1087 -0.1422 -0.0033
23088W        W38897   9.027   6.922  11.903 -0.0783 -0.3330 -0.0084
23089W        W38898  12.526   6.644  13.766  0.3252  0.0387  0.0220
23090W        W38899  12.296   5.468   0.083  0.3405 -0.0667  0.1889
23091W        W38900   0.755   1.450   1.695 -0.4159 -0.0056 -0.2125
23092W        W38901  10.212   2.853   2.613 -0.1396 -0.3247  0.0311
23093W        W38902  17.013   4.598   3.338 -0.0488  0.1542 -0.1021
23094W        W38903  13.268   2.291   2.843  0.3979  0.1136 -0.4452
23095W        W38904   5.727  17.214  12.049  0.0275  0.1006 -0.3534
23096W        W38905   7.807  12.020  12.095  0.0028 -0.3695  0.2219
23097W        W38906  18.157   4.664  14.878 -0.2709  0.0528  0.0778
23098W        W38907  14.346   8.746  15.565  0.0848  0.0186  0.2653
23099W        W38908  10.213  10.553   0.273  0.2326 -0.2316 -0.2605
23100W        W38909   0.253  10.323   3.485 -0.0953  0.1286  0.2462
23101W        W38910  10.959   1.507   4.407  0.1664 -0.1515  0.1940
23102W        W38911   0.235   5.283   3.499  0.1544 -0.2814  0.1242
23103W        W38912  16.124   2.452  13.440  0.1916 -0.0638  0.2244
23104W        W38913   6.758  13.583   3.834  0.0718  0.2004 -0.0669
23105W        W38914  10.873  18.077   4.094  0.0317  0.0876 -0.1511
23106W        W38915   9.362   5.551   4.307  0.0425 -0.0802 -0.0209
23107W        W38916  16.353   8.319  14.643 -0.1236  0.0853  0.2187
23108W        W38917  17.425   2.365  11.422  0.0164  0.4708 -0.0969
23109W        W38918  15.971  15.046  14.526  0.0621 -0.1551  0.0414
23110W        W38919   0.309  15.865  13.988 -0.1543  0.1258 -0.0441
23111W        W38920   9.553  13.179  15.582  0.2185 -0.1705  0.1758
23112W        W38921   3.381   2.048  13.580  0.0399  0.3349 -0.3033
23113W        W38922  15.959  10.309   4.689 -0.0120  0.1726  0.1322
23114W        W38923  10.850   8.250  12.435  0.1117  0.0495  0.0342
23115W        W38924   3.141  13.561  11.606 -0.1849  0.0508 -0.0204
23116W        W38925   4.469  13.510  10.266 -0.4071  0.0910 -0.0257
23117W        W38926  11.432  16.874   1.948 -0.0030  0.1035  0.0819
23118W        W38927  17.836   2.615   4.213 -0.1444  0.0028 -0.1430
23119W        W38928   2.750   3.881  11.081  0.1017 -0.0460  0.0589
23120W        W38929   7.368  16.243   5.866  0.0373  0.0560  0.1568
23121W        W38930   6.170   4.521  14.758 -0.0146 -0.0799  0.0293
23122W        W38931   0.893  13.743   2.143  0.1575 -0.0048  0.2396
23123W        W38932  14.614  17.808  12.948 -0.0548 -0.2002  0.1642
23124W        W38933  12.191   4.082   5.146 -0.2079  0.2334  0.1464
23125W        W38934  11.062   3.211  13.763 -0.0700  0.1821  0.2238
23126W        W38935   6.035  18.545  11.053 -0.2102  0.0416 -0.3183
23127W        W38936  13.063  17.452  15.469  0.0025 -0.2675  0.0933
23128W        W38937   8.468   7.064  12.180 -0.3671 -0.0780 -0.1022
23129W        W38938  17.779   1.014   1.825 -0.1431 -0.1444  0.0944
23130W        W38939  12.913  11.076   4.227 -0.1458 -0.0064 -0.0042
23131W        W38940  14.494   9.615   9.890  0.0984  0.0394 -0.1704
23132W        W38941  11.728  16.113  11.766 -0.1838 -0.2216  0.0242
23133W        W38942   2.847   6.955  13.610 -0.2906 -0.0157  0.2403
23134W        W38943   7.321   0.512  12.296  0.0512  0.1903  0.1336
23135W        W38944  18.261   5.639  14.690  0.0814  0.1780  0.0556
23136W        W38945   1.083  12.759   4.213 -0.0936  0.2683  0.3138
23137W        W38946  14.231   3.927  12.885 -0.1897 -0.1555  0.1567
23138W        W38947  12.679  13.504  13.286 -0.0577  0.1532  0.0895
23139W        W38948   1.054  17.055  11.453 -0.6975 -0.1098 -0.1767
23140W        W38949   0.482  14.944  14.454  0.2107  0.0208 -0.2949
23141W        W38950   6.679   0.126  13.937  0.0946 -0.0561  0.1479
23142W        W38951   9.223   0.956   5.974 -0.4889  0.1595 -0.0836
23143W        W38952   6.636  14.824  12.260 -0.0498  0.0519  0.1469
23144W        W38953  17.809   9.534   1.650  0.2745 -0.0344 -0.0986
23145W        W38954   6.515   0.415   9.932  0.1901 -0.0248 -0.1670
23146W        W38955  10.874  10.961  13.738  0.2208  0.1531 -0.0185
23147W        W38956   5.426   9.111  10.671  0.0542 -0.2878 -0.2789
23148W        W38957   3.638   4.863  11.490  0.0392 -0.2357  0.0322
23149W        W38958   5.062  16.535   1.725 -0.0131  0.0832  0.0040
23150W        W38959  15.290  12.718   3.407 -0.1393  0.0364  0.2165
23151W        W38960  17.624   0.972   1.120  0.0538  0.0868  0.3348
23152W        W38961  15.422   0.284   4.212 -0.1625  0.1955 -0.1720
23153W        W38962   6.721  16.761   5.255 -0.0332  0.3774 -0.1940
23154W        W38963  17.704  18.271  15.202 -0.1364 -0.0910 -0.1068
23155W        W38964   4.791  13.479   3.444  0.0926  0.1073 -0.2137
23156W        W38965  12.340   8.640  12.020 -0.3288 -0.2623 -0.0039
23157W        W38966   4.240  15.909  11.175 -0.2201 -0.0684 -0.2707
23158W        W38967   3.664   8.908   2.490 -0.0181 -0.0445 -0.0209
23159W        W38968  12.332   4.081  14.694 -0.1664  0.0999 -0.1640
23160W        W38969  11.061   3.218  11.982  0.1513  0.0999  0.3560
23161W        W38970  17.839  17.807   3.184 -0.1459  0.0806 -0.1432
23162W        W38971  18.155   4.582   4.658 -0.1395  0.0220  0.1682
23163W        W38972  15.241   3.921   2.832 -0.0139  0.2075  0.1379
23164W        W38973  17.574   5.627   4.469  0.1711  0.2294  0.0025
23165W        W38974   8.871  18.278   4.695 -0.0329  0.2518  0.0410
23166W        W38975   5.022   4.950   2.272  0.1338  0.1193  0.2893
23167W        W38976   0.004   9.101   3.174  0.1994 -0.2583  0.2702
23168W        W38977   0.460   2.694   5.115  0.0540  0.3137 -0.1523
23169W        W38978   0.284  16.436   5.225  0.1232 -0.3669  0.2207
23170W        W38979   8.209   6.396  11.614  0.0239 -0.2185  0.0227
23171W        W38980   3.533   0.592  12.081 -0.2327 -0.1428 -0.2205
23172W        W38981   5.652   3.510   4.266  0.0310 -0.1598 -0.0861
23173W        W38982   7.144   8.309   4.755 -0.0149 -0.0187 -0.2588
23174W        W38983  10.273  15.857  11.781 -0.3660 -0.1078 -0.0352
23175W        W38984  14.887  14.331   0.850  0.1079 -0.3071 -0.3575
23176W        W38985   8.076   8.873   0.007  0.2041 -0.2633 -0.2789
23177W        W38986   0.825   6.570  10.877 -0.1019 -0.3063 -0.5718
23178W        W38987   2.922  17.649  11.857 -0.0364 -0.0217  0.3704
23179W        W38988   8.334   5.416   0.311  0.0936 -0.2263  0.1016
23180W        W38989  10.501  11.829   3.298 -0.0023 -0.5563 -0.0000
23181W        W38990   6.508   5.815  14.374 -0.1177  0.2042  0.0037
23182W        W38991  13.658  15.403  14.124  0.1580  0.4653 -0.1557
23183W        W38992  15.536   7.747  13.125 -0.0400 -0.3182  0.0897
23184W        W38993   6.110  18.614  12.170 -0.5055 -0.1123  0.3906
23185W        W38994  12.523   0.492  11.339  0.2813 -0.0457  0.3243
23186W        W38995   0.525   7.472   0.267  0.2148  0.3584  0.3759
23187W        W38996  15.866  13.582   0.689  0.1298  0.1056 -0.1412
23188W        W38997   2.289  14.265   4.636  0.0801 -0.0749  0.3028
23189W        W38998  11.387  14.947   0.142  0.3032  0.0030 -0.0117
23190W        W38999   1.922  10.116  12.260  0.1358  0.0214  0.3366
23191W        W39000  13.742   1.425  13.148  0.0484 -0.1873 -0.3501
23192W        W39001  16.988  11.720   2.406  0.1653 -0.1208 -0.0524
23193W        W39002   6.500   8.518   5.591  0.1153  0.4308  0.1236
23194W        W39003   4.093   3.670  13.640  0.1808  0.0621  0.1819
23195W        W39004   9.421  11.555  11.303 -0.0344 -0.0804 -0.2887
23196W        W39005   4.635   7.987  12.987 -0.0479  0.2993 -0.0762
23197W        W39006  17.436   6.694   4.288  0.2545  0.0652  0.0583
23198W        W39007  14.626   9.748   3.185  0.0368  0.3276 -0.1541
23199W        W39008   1.820   6.607  12.480  0.0314  0.0512  0.0641
23200W        W39009   1.710   3.094   2.158 -0.0479 -0.2636 -0.0556
23201W        W39010  14.655   6.528  14.505  0.2096  0.0238 -0.0281
23202W        W39011   9.412   0.556   3.560 -0.1167  0.2427 -0.0434
23203W        W39012   7.787   6.032  11.442 -0.3037  0.0284  0.0311
23204W        W39013  10.243  18.512  15.182  0.1269  0.0685  0.0548
23205W        W39014  17.494   9.068   2.977 -0.0967  0.0371  0.1267
23206W        W39015   0.501   7.737  13.687  0.1442 -0.1063 -0.2733
23207W        W39016   8.273   9.826   0.853 -0.0082  0.1272 -0.0229
23208W        W39017   9.980   8.822   3.996 -0.0741 -0.0156 -0.1279
23209W        W39018   4.234  15.557   1.117  0.2403  0.0191 -0.1878
23210W        W39019  13.804  15.611   4.011 -0.1396 -0.3635 -0.3915
23211W        W39020   8.523   8.087  11.698  0.1116 -0.1195 -0.0939
23212W        W39021  11.019   4.986   3.804  0.1554  0.1144  0.0318
23213W        W39022   6.190  16.137   1.976  0.1306 -0.4162 -0.1243
23214W        W39023  14.566   0.603   4.188  0.0846 -0.0163  0.0493
23215W        W39024  17.443   7.700  11.628  0.0670  0.1847 -0.0831
23216W        W39025   5.387   5.724  12.076  0.1292 -0.2196 -0.1224
23217W        W39026  14.691   8.650  10.682 -0.1712 -0.2145  0.2240
23218W        W39027  15.316  11.661   4.629  0.1524 -0.0121 -0.0481
23219W        W39028  12.736  12.071  10.424  0.2148 -0.1533  0.4357
23220W        W39029   2.591  11.563  11.197 -0.0194  0.0710 -0.1002
23221W        W39030   5.912   8.952   0.576 -0.1922 -0.1407  0.1998
23222W        W39031   1.174   7.736  10.462  0.0049  0.0022 -0.1912
23223W        W39032   7.759   7.555   1.719 -0.1353  0.0475 -0.1646
23224W        W39033  11.368   4.567  14.921 -0.1108  0.0110  0.0724
23225W        W39034   8.402   9.530   4.958  0.0557  0.1791 -0.3033
23226W        W39035   4.612   9.515  15.326  0.2208 -0.2261 -0.0141
23227W        W39036   3.597   0.124   1.162 -0.5389  0.0759  0.2559
23228W        W39037   3.180   1.213   3.277  0.2534 -0.2621 -0.1902
23229W        W39038   6.921   1.227   1.818  0.2683 -0.0484 -0.1817
23230W        W39039  15.035   4.978  12.004  0.3604 -0.0912 -0.1757
23231W        W39040  10.393  16.473   0.102 -0.3639  0.1288 -0.0217
23232W        W39041  13.829  12.261   1.999 -0.2721  0.0919 -0.1168
23233W        W39042  17.150   3.428   9.734 -0.2260  0.0919  0.1949
23234W        W39043  13.724  16.987   5.203 -0.0086 -0.1538  0.1222
23235W        W39044  13.490   2.618  15.064  0.0191 -0.0221  0.2006
23236W        W39045  16.657  17.529   4.670  0.0684  0.0289 -0.0940
23237W        W39046   4.720   0.365   1.219  0.1026  0.1541 -0.1198
23238W        W39047   3.251  16.844   3.791 -0.1550  0.0928  0.1148
23239W        W39048  16.799   3.286   0.471 -0.1662 -0.2255  0.0212
23240W        W39049  18.515  11.488  12.546  0.4288 -0.3852  0.1397
23241W        W39050  16.176   1.295   4.010  0.1436 -0.2558  0.0403
23242W        W39051  15.306  15.840  10.655 -0.0445 -0.1837  0.1882
23243W        W39052  17.846  11.420  11.929 -0.2725  0.2200 -0.0479
23244W        W39053  10.473  11.373  15.242  0.4045  0.0883 -0.1109
23245W        W39054  17.892  14.000  12.465 -0.4323 -0.2206 -0.0848
23246W        W39055  11.929  15.152  14.987 -0.0849  0.0556 -0.1515
23247W        W39056   4.605   4.616  11.578 -0.2523  0.1567  0.1128
23248W        W39057  12.437   4.642  15.352  0.3450  0.0762  0.1194
23249W        W39058  11.773  14.265   2.560 -0.0691  0.2397  0.2581
23250W        W39059  15.665  13.439   2.309  0.0939  0.0778  0.0129
23251W        W39060  14.252   8.550  14.223 -0.0392  0.0354  0.0876
23252W        W39061   5.183   1.106  13.189 -0.0997 -0.0602  0.1960
23253W        W39062  13.660   2.813  13.960 -0.0523  0.3275  0.0264
23254W        W39063   7.050   2.875   2.473 -0.0587  0.2704  0.0509
23255W        W39064  15.878  13.069  11.572  0.0423 -0.0647 -0.2636
23256W        W39065  15.318  15.567   3.871 -0.1309  0.0430 -0.0090
23257W        W39066   3.230   6.277  12.798 -0.0189  0.1009 -0.2081
23258W        W39067  12.525  10.041   3.080 -0.0565 -0.0341 -0.0111
23259W        W39068   7.323  13.721  13.450 -0.0496  0.0189  0.0348
23260W        W39069  10.032  14.021  14.173 -0.1786 -0.2159 -0.1823
23261W        W39070  10.122  12.840   4.313  0.2028  0.0444 -0.1329
23262W        W39071   4.646   8.274   1.865 -0.1866 -0.0248  0.1084
23263W        W39072   3.484   1.970  11.719 -0.1901 -0.1724  0.0046
23264W        W39073  14.924   8.150  11.406  0.0992 -0.2638  0.1134
23265W        W39074   1.156   7.696  14.453 -0.1105 -0.0637 -0.1886
23266W        W39075  15.306  11.554  15.183  0.1463  0.1763  0.2237
23267W        W39076   8.594   8.641   5.025 -0.2423  0.5093  0.2410
23268W        W39077   7.292  17.649   1.162 -0.0752  0.0424  0.0937
23269W        W39078  18.188  11.419   2.701  0.0612 -0.0459 -0.1784
23270W        W39079   5.948  11.293   1.786  0.1569  0.2235  0.0364
23271W        W39080   0.435   4.764  14.591 -0.0016  0.0693  0.2940
23272W        W39081   8.700  11.986   0.874 -0.2699  0.0771 -0.3829
23273W        W39082  10.321   3.105   1.846  0.1251 -0.1221 -0.2182
23274W        W39083  11.156   2.245   2.418 -0.1436  0.2922  0.3451
23275W        W39084  15.902   0.299  15.383 -0.0232 -0.4582  0.0692
23276W        W39085   7.295   4.983  13.708 -0.0570  0.0678 -0.0207
23277W        W39086   7.931  17.330  13.610  0.1103  0.1118 -0.1480
23278W        W39087  16.980  15.318   2.370  0.1484 -0.1096 -0.3308
23279W        W39088  11.774  10.667   5.685  0.2732  0.1487 -0.0231
23280W        W39089   5.316   8.553  13.690 -0.0298 -0.2647 -0.4542
23281W        W39090  17.284   5.529   3.513 -0.0335 -0.0625 -0.0928
23282W        W39091   7.514   5.386   0.256 -0.1202  0.0010  0.3492
23283W        W39092   6.670   3.348  15.375 -0.0331  0.3313  0.0743
23284W        W39093   4.652   9.810  11.382 -0.1719 -0.2950  0.0531
23285W        W39094   0.176  13.975   2.219  0.1389 -0.3285  0.0795
23286W        W39095   7.715  15.844   2.320  0.0368  0.0111  0.0158
23287W        W39096  12.220   9.926  12.576 -0.0241  0.0123  0.1308
23288W        W39097   4.533  16.037  14.871  0.0750  0.0624  0.0685
23289W        W39098  15.949  18.056   2.689 -0.2556  0.0063  0.3077
23290W        W39099   0.900   7.363  10.201  0.0427 -0.0479 -0.0437
23291W        W39100  15.252  11.599  13.924 -0.3443  0.2841 -0.0265
23292W        W39101   3.129  12.673  13.374 -0.1671  0.0430 -0.2389
23293W        W39102  10.192   5.692  12.987  0.1354  0.0919 -0.1863
23294W        W39103   3.407   9.571   1.253  0.0584  0.2665 -0.1278
23295W        W39104  17.172   2.218   2.551  0.1058  0.1238  0.0933
23296W        W39105   2.119   1.728   3.017  0.1251 -0.0788  0.0736
23297W        W39106   2.187  18.511   0.122 -0.0666 -0.0342  0.2425
23298W        W39107   0.558   0.377  10.984 -0.4517  0.1975  0.0745
23299W        W39108   4.893  11.961  12.791  0.1634  0.1527  0.1351
23300W        W39109   9.374  11.368  13.371 -0.3689  0.1237  0.1870
23301W        W39110   1.260  12.114   2.833  0.2231  0.1430 -0.3599
23302W        W39111  12.337  16.851  13.244 -0.2074 -0.0736 -0.0382
23303W        W39112   8.761  16.510   2.972  0.0817  0.3185  0.1478
23304W        W39113  15.897  18.502   2.933  0.0377 -0.1012 -0.2951
23305W        W39114   0.566   9.867  14.466  0.2595 -0.0845 -0.0238
23306W        W39115   6.934  13.687   2.074 -0.1014 -0.0040 -0.2258
23307W        W39116  17.200   9.397  10.810  0.3001 -0.0998 -0.2693
23308W        W39117  13.519   1.828   5.641 -0.0843  0.0311 -0.3569
23309W        W39118  12.341   7.167  14.571  0.2139 -0.2235  0.2318
23310W        W39119  12.958  15.912  11.154  0.2461 -0.1733  0.1761
23311W        W39120  12.134   9.640  13.803 -0.0920  0.1343  0.1884
23312W        W39121   0.733   5.242  14.132 -0.0571 -0.1925 -0.0134
23313W        W39122   5.417  17.592  11.700  0.0942  0.0226  0.0101
23314W        W39123  13.094   4.716  13.780 -0.0144 -0.1777 -0.0818
23315W        W39124  12.879   8.039   1.727  0.0902  0.0156 -0.0307
23316W        W39125  11.064  12.152   3.500 -0.0831 -0.2716  0.4122
23317W        W39126   4.559  14.894  11.546 -0.1340 -0.1721 -0.1837
23318W        W39127   5.066  11.447  15.001  0.0170 -0.0403 -0.1857
23319W        W39128   1.104   9.797  12.819 -0.1764 -0.0846 -0.1109
23320W        W39129   9.370   4.353   5.013  0.3491  0.1696  0.0777
23321W        W39130  15.131   2.457   0.148  0.0005  0.1212 -0.0632
23322W        W39131  16.620   8.890   5.445  0.1077  0.4561  0.0237
23323W        W39132   4.643   8.320  13.507 -0.1719  0.1657  0.3123
23324W        W39133   7.874   6.530   0.872 -0.1645 -0.0185  0.2299
23325W        W39134  11.590  16.353   3.853  0.1206 -0.3499 -0.2187
23326W        W39135   6.010  13.094  11.998  0.1100  0.2852 -0.3070
23327W        W39136  12.926  13.391  13.685 -0.0451 -0.1094  0.0027
23328W        W39137   6.540  17.472  12.007 -0.0455 -0.0295 -0.0232
23329W        W39138   8.860   1.438   3.266  0.0517 -0.2153 -0.0105
23330W        W39139  13.683  17.035   4.200  0.0949 -0.3594 -0.2055
23331W        W39140   8.625   1.803   2.915 -0.3255 -0.1306 -0.2083
23332W        W39141   0.829  11.241  14.862 -0.1590  0.0250 -0.2066
23333W        W39142   9.415   5.174  14.831  0.2464 -0.1772 -0.0664
23334W        W39143   0.683  11.992   0.558  0.1703  0.0471  0.1090
23335W        W39144   2.795   3.570   2.861 -0.1201 -0.0794 -0.2002
23336W        W39145   6.756   5.962   1.954  0.3509  0.1413 -0.2068
23337W        W39146  12.979   3.872  14.200 -0.2488  0.0394  0.1171
23338W        W39147  15.892   7.617   4.374 -0.0757 -0.0069  0.0435
23339W        W39148  12.522   7.302   3.521 -0.0470 -0.3168  0.1884
23340W        W39149  15.806   7.910   1.312  0.0439 -0.4541  0.0644
23341W        W39150   6.277   6.707  11.434  0.0962 -0.0678  0.2860
23342W        W39151  12.089  17.693   3.679  0.0167  0.0460 -0.2052
23343W        W39152  10.513   5.048   4.957  0.0098  0.0795 -0.0576
23344W        W39153  10.357   5.107  13.538  0.1810 -0.1139 -0.1312
23345W        W39154   6.952  13.293   1.186  0.0601 -0.1344 -0.0917
23346W        W39155  17.891   2.947   3.776 -0.0660 -0.0697 -0.3876
23347W        W39156   5.836   9.944  15.207 -0.1748  0.2988 -0.1896
23348W        W39157   1.748  12.789   1.843 -0.0748  0.2942  0.0816
23349W        W39158   3.569  15.463   0.101  0.2325 -0.2190 -0.0312
23350W        W39159   8.909   9.734  11.823 -0.0833  0.0879  0.1900
23351W        W39160   6.597   2.701  13.005 -0.2593 -0.0545 -0.3075
23352W        W39161   8.109   6.685   4.288  0.1439 -0.2456 -0.0126
23353W        W39162   0.853  14.223  14.388  0.3571  0.2139  0.0195
23354W        W39163  17.133  10.220   0.559  0.3743  0.1062  0.0272
23355W        W39164   4.046   6.323  15.587  0.0004 -0.0688  0.0210
23356W        W39165  15.582  17.447   1.812 -0.0243 -0.1441 -0.0011
23357W        W39166   9.843  16.205  10.196 -0.1619  0.3352  0.4011
23358W        W39167   0.354   8.178  12.445 -0.1596 -0.3235  0.2725
23359W        W39168   3.704   8.277  14.233  0.2501 -0.3799  0.0089
23360W        W39169   9.772   1.833   0.440 -0.0601  0.1772  0.1843
23361W        W39170  17.601  13.783  10.687 -0.0435 -0.0232 -0.1307
23362W        W39171   8.689   6.321   1.278 -0.2132  0.1561  0.3122
23363W        W39172  10.688   6.079   0.653  0.2566 -0.1704 -0.2705
23364W        W39173  16.053   5.842  10.745  0.1168  0.0180  0.0922
23365W        W39174   1.161  14.258   4.156  0.0294 -0.1688  0.0854
23366W        W39175  16.301   3.462  12.585  0.3715 -0.2398 -0.1369
23367W        W39176  15.342   8.618  12.020  0.1319  0.0825 -0.0480
23368W        W39177   5.066   6.372  10.964 -0.2071 -0.1692  0.0378
23369W        W39178  11.995  15.470   4.962  0.2954 -0.0420  0.0367
23370W        W39179   7.334  14.063   4.611  0.0146  0.1636 -0.2352
23371W        W39180   4.268   4.688   0.034  0.2822 -0.0107 -0.0555
23372W        W39181  13.769   8.856  14.446 -0.1231  0.1040 -0.0286
23373W        W39182   2.344   6.200   1.440 -0.1651 -0.1406  0.0375
23374W        W39183   6.356   3.741  12.122  0.1015 -0.0471 -0.2259
23375W        W39184  18.237   9.321   1.800 -0.0364  0.1321 -0.0175
23376W        W39185   7.775  10.284   1.666 -0.3988 -0.1702  0.0911
23377W        W39186   0.846  17.251  15.555 -0.1728  0.0077 -0.1443
23378W        W39187   3.535   6.903   1.280  0.5686  0.2207  0.0349
23379W        W39188  18.259   6.573  12.721  0.0001  0.0470  0.1040
23380W        W39189   9.473   4.431  12.760  0.1239 -0.1543 -0.0892
23381W        W39190   0.670  15.576  14.088  0.3110 -0.1790  0.0572
23382W        W39191   2.792  17.471  13.666 -0.0552  0.3535 -0.1613
23383W        W39192  17.675   2.168   4.869  0.1729  0.1214 -0.2219
23384W        W39193   6.873   8.477  12.072 -0.4578  0.0314 -0.2862
23385W        W39194   8.171  11.929   2.044 -0.0835  0.0239  0.1375
23386W        W39195   0.565  11.787  14.123 -0.0423 -0.3960  0.4885
23387W        W39196   1.253  11.110  13.282 -0.0285 -0.0299  0.0901
23388W        W39197   2.253   0.854   1.817  0.0940  0.3372 -0.2352
23389W        W39198  16.519   0.810   2.584  0.0806  0.2044 -0.2496
23390W        W39199  18.193   8.363  12.812 -0.1177 -0.0953  0.0910
23391W        W39200  11.163   9.539  13.830  0.3752  0.1485  0.0467
23392W        W39201  17.075   5.989   0.428 -0.3392 -0.1444 -0.0636
23393W        W39202  15.612  15.429   0.003  0.0938 -0.1157 -0.1206
23394W        W39203   0.183   5.266   2.095 -0.0536  0.1699 -0.1109
23395W        W39204   7.134  13.819  12.994  0.0884 -0.1048  0.0665
23396W        W39205   2.491   5.711   0.832  0.3948 -0.0159  0.1691
23397W        W39206   7.695  14.743   4.543  0.2969 -0.0069  0.1893
23398W        W39207  17.507  12.802   5.060 -0.0163  0.0387  0.3378
23399W        W39208   1.601  12.562   2.689  0.0095 -0.2240 -0.2146
23400W        W39209   3.855   0.450   2.517  0.0137  0.1890  0.2716
23401W        W39210  11.582  18.039  15.621  0.0573 -0.1114  0.1002
23402W        W39211   4.074   5.950   4.174 -0.2224  0.0696  0.1815
23403W        W39212  13.020   1.357  13.848  0.2753  0.0092 -0.2176
23404W        W39213   3.909  18.278   0.397  0.0602  0.0526  0.4503
23405W        W39214   4.447  13.884   4.041 -0.1181 -0.0626  0.1220
23406W        W39215   7.301   3.861   1.672 -0.2487  0.2081 -0.0023
23407W        W39216  17.531   0.280  12.563  0.0493 -0.0895 -0.2225
23408W        W39217  16.647  14.373   5.020  0.0987 -0.0423 -0.0654
23409W        W39218   8.801  18.409   2.070 -0.3220  0.0193 -0.0507
23410W        W39219  11.247  14.624  11.821  0.1715  0.1646  0.0310
23411W        W39220   0.536  17.888  12.015 -0.2459 -0.0889  0.0757
23412W        W39221   6.189   4.454   3.005  0.2366 -0.1097  0.0262
23413W        W39222   4.606   2.583  14.030 -0.1075  0.2080  0.1436
23414W        W39223  12.973   2.708   1.380  0.0410  0.0002 -0.4145
23415W        W39224   5.397  16.831  11.944 -0.2037 -0.2974  0.1843
23416W        W39225   7.958   3.723   0.334  0.0405 -0.0009 -0.0666
23417W        W39226  11.616   1.888  11.560 -0.1629 -0.1147 -0.1758
23418W        W39227  13.030   8.118   0.687  0.1165  0.0424 -0.0781
23419W        W39228  15.233   4.539   5.064  0.0932 -0.0984  0.0020
23420W        W39229  10.680  17.601   3.550  0.1847 -0.5953 -0.0487
23421W        W39230   2.862  10.685   3.833 -0.0263 -0.0436 -0.2899
23422W        W39231   9.425  18.252  11.616  0.2654 -0.4373 -0.2856
23423W        W39232   5.473   8.130   4.779  0.0310 -0.2920  0.0762
23424W        W39233   5.318  14.251   4.302 -0.0859  0.0857  0.0531
23425W        W39234  13.881   4.852   1.403 -0.0388 -0.1583 -0.2687
23426W        W39235   4.917  12.490   1.098  0.1526 -0.1259  0.0382
23427W        W39236  17.176  16.647  14.705  0.2154  0.1949 -0.4204
23428W        W39237  10.959   9.670  10.866  0.1195  0.1825  0.3539
23429W        W39238   7.919   5.868  14.032 -0.2949 -0.0052  0.2266
23430W        W39239   1.337  17.910   2.182  0.6219  0.0448  0.0405
23431W        W39240  12.404   9.569   2.614  0.1520 -0.1408 -0.1271
23432W        W39241   3.542  10.386  12.766 -0.0802 -0.0397 -0.0170
23433W        W39242   6.584   4.193   4.505  0.0549 -0.1308 -0.1199
23434W        W39243  17.886   2.637  13.982  0.1006 -0.0394 -0.4379
23435W        W39244   3.379  17.802   2.729  0.2196  0.0411 -0.0134
23436W        W39245   0.707   4.895  15.168  0.2254  0.1424 -0.1562
23437W        W39246   7.349   4.275   1.388 -0.0977 -0.0100 -0.3487
23438W        W39247  11.434   1.941   3.203  0.1438  0.1095 -0.0253
23439W        W39248  11.360  10.974  13.359  0.0054  0.1787 -0.0220
23440W        W39249  12.165  10.450  15.367 -0.0893 -0.0661 -0.0073
23441W        W39250   7.524  12.937   5.586  0.0272 -0.2608 -0.0346
23442W        W39251  13.553   0.733   3.828  0.1072  0.0199  0.1314
23443W        W39252  12.767  11.965   5.503  0.7108  0.3211  0.0396
23444W        W39253  16.678  15.347   1.065 -0.1739  0.0703 -0.0030
23445W        W39254   5.708   9.610   5.124  0.1943 -0.0064  0.0945
23446W        W39255  15.852  10.704   5.417  0.2026 -0.0745 -0.4124
23447W        W39256  18.455   0.518   1.223 -0.0954  0.1872 -0.0661
23448W        W39257  10.393   4.346  12.463 -0.1397  0.2186 -0.1009
23449W        W39258   0.147  11.681   1.122  0.4151 -0.0715 -0.1287
23450W        W39259  13.032   3.545   2.711 -0.1781  0.4407 -0.3808
23451W        W39260   9.046  12.296   5.636  0.2971 -0.2540  0.0994
23452W        W39261   2.619   4.732  14.119 -0.0313 -0.2694 -0.0530
23453W        W39262  11.800  17.155   0.668 -0.3681  0.0151 -0.1151
23454W        W39263  15.972  16.531   1.746  0.1152 -0.1444  0.1981
23455W        W39264  17.572  13.701   4.770 -0.3257 -0.1507 -0.0425
23456W        W39265  11.926   0.448   1.233 -0.0390  0.1343 -0.3002
23457W        W39266  13.803   6.476  11.685 -0.0205  0.0299  0.1209
23458W        W39267   0.580  16.803   1.657 -0.2694 -0.1172 -0.0666
23459W        W39268   2.771   3.110   1.151  0.2588 -0.1663 -0.0086
23460W        W39269  15.472   6.832   4.750 -0.1207 -0.3496 -0.0534
23461W        W39270   5.193  13.757  13.473 -0.4332 -0.0464  0.1569
23462W        W39271  11.725  16.808  13.460 -0.1710 -0.0524 -0.0522
23463W        W39272   0.402   8.404   4.778 -0.1613 -0.5208  0.0600
23464W        W39273   3.427  11.335   2.206 -0.0489 -0.1541 -0.3032
23465W        W39274  13.481   7.249  12.626  0.2148  0.0868  0.1041
23466W        W39275   8.342  17.256   1.232 -0.2970 -0.0211  0.2392
23467W        W39276   5.519  13.709  12.535  0.2829  0.1535  0.1717
23468W        W39277  13.073  13.050   4.240 -0.1829 -0.0247  0.0263
23469W        W39278   3.020   5.609   2.466  0.2361 -0.1488 -0.0954
23470W        W39279   9.325  10.142   5.676  0.0148  0.0604  0.1396
23471W        W39280  12.335   1.897   2.837 -0.2728 -0.0714  0.1779
23472W        W39281  12.073   5.608  13.696 -0.2747  0.2186 -0.3632
23473W        W39282   2.642   4.756  12.412  0.0276  0.0233  0.3780
23474W        W39283   7.852  13.130   2.215 -0.3517  0.1659 -0.0824
23475W        W39284  10.875  18.028   4.612 -0.1097 -0.2998 -0.0782
23476W        W39285   8.006   0.248  14.541 -0.1821 -0.1840  0.0883
23477W        W39286  18.047   6.686  13.597 -0.0905 -0.0020  0.1954
23478W        W39287   6.503   8.723   3.606  0.0955  0.0177  0.1713
23479W        W39288   1.906  13.615   0.474  0.2478 -0.1496  0.0327
23480W        W39289   4.620   0.394  14.205 -0.1023 -0.0414  0.1527
23481W        W39290   4.619  13.962  14.300 -0.2585  0.0108  0.0949
23482W        W39291   8.049   9.416   3.843 -0.0254 -0.0307 -0.3463
23483W        W39292   1.769   2.659   4.186  0.0854 -0.1631  0.1072
23484W        W39293   5.122  16.098  11.472  0.1809  0.1248 -0.1537
23485W        W39294   2.042  18.589  15.185 -0.0028 -0.2459 -0.1169
23486W        W39295   0.825   0.875   3.334 -0.1403 -0.2023 -0.0010
23487W        W39296   7.627  15.854  12.887 -0.2572  0.0579 -0.2172
23488W        W39297  10.350  14.246   0.142 -0.1982 -0.0919  0.2419
23489W        W39298  10.802  14.226   3.779 -0.0116 -0.1294  0.1265
23490W        W39299   1.390  10.028  11.420  0.0358 -0.0512  0.1231
23491W        W39300   6.083   1.654   1.996  0.2881  0.1923 -0.0072
23492W        W39301  18.061  13.931   4.801  0.0588 -0.0545  0.1831
23493W        W39302   0.037   3.407   2.916 -0.1381 -0.0544 -0.1710
23494W        W39303   7.930   2.803   4.960 -0.0448  0.0672  0.0595
23495W        W39304   1.436  12.554   1.434 -0.1476 -0.2054  0.0841
23496W        W39305   5.070   0.723   3.241  0.1773  0.2263  0.1540
23497W        W39306  17.787  17.808  10.922 -0.3178 -0.2159 -0.2696
23498W        W39307   7.783   6.243  12.882  0.0301 -0.2355 -0.4558
23499W        W39308   3.230  11.037   2.619 -0.0534 -0.0156 -0.0785
23500W        W39309   0.579  14.004   3.546 -0.1513 -0.2214 -0.1824
23501W        W39310  13.122  17.519  11.805  0.1104  0.0924 -0.0882
23502W        W39311   8.090  10.758  13.079 -0.0507  0.1157  0.1283
23503W        W39312   9.752  18.051   3.512  0.1840  0.0263 -0.0342
23504W        W39313   2.093   0.115  11.103 -0.1902  0.1608  0.1175
23505W        W39314   8.475   2.333   4.542  0.1432 -0.1414  0.0371
23506W        W39315   9.044   0.035   1.790 -0.1021 -0.0653  0.0363
23507W        W39316   4.685   5.640   4.811 -0.4589 -0.0547 -0.0445
23508W        W39317   8.977  13.508   4.577 -0.3991  0.0673  0.1990
23509W        W39318  18.549   4.278   2.722  0.2883  0.1664 -0.0530
23510W        W39319  13.942   1.649   0.915 -0.4070  0.2031  0.3000
23511W        W39320   2.208   3.230   1.286 -0.1581 -0.1475  0.1885
23512W        W39321  12.330   0.764   2.311  0.0631  0.1719  0.2071
23513W        W39322   9.163   4.819   5.084  0.0421 -0.0093 -0.3743
23514W        W39323  17.294  15.097  15.357  0.2346  0.2087  0.2881
23515W        W39324  18.471  18.375  14.624 -0.2426  0.0308 -0.0243
23516W        W39325  14.596  10.438   3.525  0.0883 -0.1619 -0.0802
23517W        W39326  12.866  16.603  10.405  0.3014  0.1002 -0.0819
23518W        W39327   0.118   1.089  13.894 -0.2172 -0.1882 -0.2428
23519W        W39328  15.445  16.115   4.745 -0.1156  0.2270  0.1184
23520W        W39329  13.392  13.799   1.837 -0.1036 -0.2304  0.1760
23521W        W39330   2.550  17.962   1.681 -0.0246  0.0964  0.1239
23522W        W39331   6.063   1.092  12.635 -0.1766  0.0297 -0.1936
23523W        W39332   8.429  10.398   4.682 -0.1607  0.0958  0.2342
23524W        W39333   8.594   7.669   2.662  0.0753  0.0248 -0.0064
23525W        W39334   7.267  11.964  11.342  0.2219 -0.2283  0.0646
23526W        W39335  12.204  10.037  12.028  0.3396  0.3575  0.1651
23527W        W39336  12.720   1.025  13.430 -0.1240  0.0193  0.1965
23528W        W39337  13.621  11.044  12.440  0.0320 -0.2031  0.0294
23529W        W39338   6.831   6.500   5.304 -0.1005  0.0436  0.0074
23530W        W39339  16.283   3.659   2.652 -0.1897  0.1357  0.1599
23531W        W39340  11.262   9.438  11.582  0.3769  0.0757  0.0108
23532W        W39341   6.603   8.867   3.127  0.0312 -0.1029  0.0053
23533W        W39342  11.934  13.935   5.218 -0.0919 -0.2650  0.0599
23534W        W39343  18.495  17.562  12.229 -0.0729  0.0352 -0.1671
23535W        W39344   8.158   9.009   2.589  0.1828  0.1444  0.3008
23536W        W39345   2.535  15.892   0.515  0.1192  0.4387 -0.0281
23537W        W39346   4.889  18.078  12.298  0.3357  0.1888  0.0478
23538W        W39347  14.948  10.192   2.243 -0.1239 -0.0651  0.2628
23539W        W39348  18.362   1.319   0.696  0.3084 -0.3849 -0.1406
23540W        W39349  11.199  14.280   2.500 -0.3467 -0.0390 -0.4057
23541W        W39350   2.077   8.988   2.309  0.3452  0.2761 -0.0768
23542W        W39351   0.556   0.231  13.835 -0.6043 -0.1031  0.1723
23543W        W39352   4.193   2.013   1.294  0.2236 -0.0651 -0.2225
23544W        W39353  16.677  15.598   0.372  0.1360 -0.0608  0.2025
23545W        W39354  13.626   6.686   1.631 -0.0156  0.2313 -0.0969
23546W        W39355  18.439   1.263  12.737  0.1649  0.0109 -0.1826
23547W        W39356   3.797  16.826   3.698  0.1833  0.0254  0.2722
23548W        W39357   7.419   6.814  14.439  0.2843 -0.0112  0.1932
23549W        W39358   7.120   9.309   4.922  0.1712 -0.0505 -0.0834
23550W        W39359  14.351  11.511  12.323  0.4337 -0.1557  0.2079
23551W        W39360  12.684   0.057  13.321  0.0947 -0.1708 -0.1823
23552W        W39361   6.700  14.656  11.410  0.0185 -0.1834 -0.1660
23553W        W39362  11.918  16.962   5.423  0.1166 -0.1452  0.3079
23554W        W39363  15.049   9.159  12.797 -0.2190  0.0933  0.1262
23555W        W39364   8.962   2.647  13.870  0.1762  0.1289  0.1485
23556W        W39365   9.026  14.411   1.578  0.0492 -0.0400 -0.2497
23557W        W39366  12.446  10.722   1.516 -0.1723  0.0637 -0.1948
23558W        W39367  10.018  10.940   1.253 -0.2027 -0.2087  0.1326
23559W        W39368  10.317  17.326   3.283 -0.0789  0.0336  0.3081
23560W        W39369   8.232  11.052   3.002  0.0413  0.3060  0.1981
23561W        W39370   0.441  14.466  14.656  0.2166  0.0670  0.2038
23562W        W39371   2.101  15.550   0.306 -0.2124  0.0436 -0.2065
23563W        W39372   4.293   0.489  14.604  0.0026 -0.1317  0.2061
23564W        W39373  16.988  14.001   0.501  0.3408 -0.0427 -0.2182
23565W        W39374   8.886  12.060   3.671  0.0169  0.3539 -0.0176
23566W        W39375  14.679   1.588   4.247  0.0454 -0.0925  0.1473
23567W        W39376  10.080  12.104   4.590 -0.2178  0.0646  0.4062
23568W        W39377   1.462  13.976   1.451 -0.2778  0.0104  0.2148
23569W        W39378   8.458   8.580  13.539 -0.0446  0.1425  0.1655
23570W        W39379   4.384  16.266   1.954  0.2226 -0.0637 -0.2633
23571W        W39380   8.915  17.595   5.144  0.0385 -0.0344 -0.0524
23572W        W39381   5.741  16.106   5.399 -0.1241 -0.1901 -0.1129
23573W        W39382  13.543   2.160  10.182  0.0857  0.0617 -0.3624
23574W        W39383  13.819  10.345  13.475 -0.0685 -0.1516  0.0707
23575W        W39384  17.562   8.620  11.508  0.1490 -0.0322  0.0292
23576W        W39385   5.544  12.933   3.385  0.0590 -0.1648  0.0532
23577W        W39386  11.909  14.837   0.072 -0.5585 -0.1529 -0.0670
23578W        W39387   1.732   8.849  10.996  0.2917 -0.0212  0.2917
23579W        W39388  11.971  16.457   2.092  0.1185  0.2226  0.2357
23580W        W39389  18.253   1.029  14.350  0.2386  0.1515 -0.1196
23581W        W39390   7.275   6.810   5.470  0.3153 -0.1348 -0.0481
23582W        W39391   9.088   1.752  15.243  0.0893 -0.3335  0.0913
23583W        W39392   2.182   0.353  15.521 -0.0357 -0.0868  0.0810
23584W        W39393   1.986   4.245  13.513  0.0449 -0.0061 -0.2982
23585W        W39394  18.442   5.017   4.707  0.2665  0.2701 -0.0901
23586W        W39395   0.916  10.290  12.222 -0.1682  0.0628  0.2015
23587W        W39396   0.842   2.693  11.986 -0.1551 -0.1172  0.0598
23588W        W39397  11.737   6.335  14.202  0.0680  0.3846  0.2072
23589W        W39398   2.346   5.846  13.006 -0.0559  0.0727  0.0412
23590W        W39399  13.883   1.024   4.102  0.0582 -0.2280 -0.1058
23591W        W39400  12.000   3.022  15.203  0.0223 -0.2779 -0.2247
23592W        W39401  10.863  16.381   1.993 -0.0139  0.1655 -0.0594
23593W        W39402  12.902  16.155  12.005  0.2392  0.1249  0.2307
23594W        W39403   1.452   5.332  15.109 -0.1995 -0.1053  0.1153
23595W        W39404  12.526   7.715   1.222 -0.0552 -0.1908  0.2136
23596W        W39405   0.679  11.658   3.464  0.1776 -0.1899 -0.1343
23597W        W39406   1.134  11.636   3.125  0.2272 -0.2360  0.0305
23598W        W39407  11.789   9.214  12.889 -0.1158 -0.2687 -0.3551
23599W        W39408  13.016  17.750   2.642 -0.1461  0.3285 -0.2781
23600W        W39409   3.032   7.870   4.683 -0.2585  0.0852  0.0835
23601W        W39410   4.709  12.052   4.387 -0.1362 -0.0223 -0.0199
23602W        W39411   0.194   8.877  10.385 -0.3029  0.0192 -0.2159
23603W        W39412  15.717  16.991  13.515  0.0888  0.0006 -0.1721
23604W        W39413   7.500  13.481  13.860 -0.1077 -0.3095  0.0948
23605W        W39414  12.432  13.003  14.532  0.3152  0.0480 -0.2379
23606W        W39415  12.987   0.636  15.412 -0.0161 -0.1138  0.1753
23607W        W39416   3.731  16.110   0.470  0.0823 -0.0877  0.0496
23608W        W39417  18.170   4.053   0.119  0.0628 -0.3801 -0.1502
23609W        W39418  16.514   8.147   9.994 -0.2275 -0.2297 -0.0419
23610W        W39419  17.217  12.290   4.330 -0.0039  0.0479 -0.2652
23611W        W39420   7.989  18.109  14.320 -0.1312 -0.1520  0.1800
23612W        W39421   0.441   7.216   2.136 -0.1457 -0.1807  0.0932
23613W        W39422   5.961  10.321  13.952  0.0051 -0.1344 -0.0633
23614W        W39423  16.189  16.774  14.362 -0.0647  0.0087 -0.0507
23615W        W39424  13.697  11.248  11.175 -0.0516  0.1256 -0.0261
23616W        W39425  12.473   7.506   0.002 -0.0832  0.0189 -0.2817
23617W        W39426  11.499   2.292   4.153 -0.1454  0.0755  0.0396
23618W        W39427  13.703   2.887   4.430  0.1192  0.0853  0.0366
23619W        W39428   2.348  15.545   3.688 -0.4748  0.1842  0.0524
23620W        W39429  10.464   4.365   1.360  0.1485  0.1165  0.1123
23621W        W39430   8.822  18.390  12.607 -0.0018 -0.2619 -0.3577
23622W        W39431  12.447  14.412  13.274 -0.1005  0.1204 -0.0529
23623W        W39432   7.176  16.011  14.538 -0.1446 -0.0447  0.2730
23624W        W39433  15.320  17.742   9.734 -0.0204  0.0221  0.2855
23625W        W39434   3.516  13.328  13.957 -0.2305 -0.1804 -0.3309
23626W        W39435   6.348   4.771  15.140  0.1073 -0.1063 -0.2250
23627W        W39436   6.373  17.289  14.319 -0.2518 -0.0347  0.0975
23628W        W39437  16.847   4.431   0.209  0.3315 -0.0141  0.3950
23629W        W39438   1.665   3.916  12.887  0.1046  0.0377 -0.3406
23630W        W39439   6.978  12.565  12.000 -0.0314  0.1191  0.3104
23631W        W39440  11.146  16.586  12.378  0.0848 -0.0302  0.0174
23632W        W39441   8.097   2.769  13.680  0.1409  0.4252  0.0728
23633W        W39442   0.208  17.239  10.975  0.1786  0.4002  0.0147
23634W        W39443  11.335   6.471   0.480  0.0368  0.1184  0.0352
23635W        W39444  10.984   0.066  13.258  0.0238 -0.4039  0.2016
23636W        W39445   9.152  18.408   3.826 -0.2809  0.1287 -0.0855
23637W        W39446  11.936   1.364   4.354  0.1703 -0.4004  0.1453
23638W        W39447   5.617  18.144  15.261  0.1484  0.3488 -0.1625
23639W        W39448   7.407  15.962  15.424 -0.1287 -0.0672  0.4264
23640W        W39449   3.402  15.951  15.540  0.0539  0.0652  0.0718
23641W        W39450  10.917  18.297   5.171 -0.2510  0.0052  0.0280
23642W        W39451   5.485   4.616  12.659  0.1190  0.1957  0.1345
23643W        W39452   4.968   2.886  10.622 -0.1475  0.0974 -0.3414
23644W        W39453  10.155   8.276  11.334  0.0444 -0.1729 -0.0459
23645W        W39454  17.324  18.572  11.103 -0.1729  0.0539 -0.2010
23646W        W39455   2.909  16.282  12.076 -0.0920  0.0808  0.0473
23647W        W39456   1.937   0.258   5.508  0.1461  0.0251  0.0705
23648W        W39457   4.472  12.334  15.182  0.2349 -0.1286 -0.0749
23649W        W39458  12.698  16.803  13.616  0.3073  0.0759  0.1828
23650W        W39459   8.903  15.773  15.446  0.2091 -0.0701  0.0353
23651W        W39460  18.187   0.573  11.748 -0.0117  0.1440  0.3726
23652W        W39461  11.982  14.816  12.969 -0.3961  0.3873  0.2480
23653W        W39462   1.149  17.889   3.405  0.0325  0.1265  0.1011
23654W        W39463   3.678   5.093   4.080  0.0200 -0.3975  0.0617
23655W        W39464   0.587   6.508   3.899 -0.0191  0.1294 -0.0231
23656W        W39465   3.829  12.067  13.583 -0.2060  0.0332 -0.1178
23657W        W39466  12.225   7.727  12.732 -0.1939  0.0828 -0.0160
23658W        W39467   8.613   6.927   1.515  0.1772  0.1813  0.0418
23659W        W39468  16.676   1.645   0.759 -0.2219 -0.4714  0.0741
23660W        W39469   6.616   0.864   0.436  0.2222  0.0801 -0.0598
23661W        W39470   6.033   0.178   3.562 -0.0849 -0.0774 -0.2555
23662W        W39471  10.657   9.607   0.396 -0.0378 -0.1721  0.0253
23663W        W39472  18.109  18.379  13.138  0.0250  0.2517  0.1241
23664W        W39473   4.550   3.111   3.611  0.0760 -0.3611 -0.2997
23665W        W39474  11.410   9.257   3.682 -0.2040  0.0379 -0.2990
23666W        W39475  11.739   2.703  13.758 -0.1212  0.1187 -0.0262
23667W        W39476  12.036   4.702   2.447  0.1103  0.2487  0.0091
23668W        W39477   8.725  12.699   4.118  0.0703 -0.0105 -0.2840
23669W        W39478   8.987   2.038   1.618  0.1729  0.0819  0.0287
23670W        W39479  15.299   7.473   3.443 -0.0399  0.0733 -0.0615
23671W        W39480  11.694  17.873   6.306  0.1869  0.0055  0.4235
23672W        W39481   1.610  14.969  12.114  0.1188 -0.0237 -0.0155
23673W        W39482  17.281   8.703  11.951  0.2037 -0.0034  0.3301
23674W        W39483   3.988   2.949   0.170 -0.0539  0.2237  0.0344
23675W        W39484   4.988  11.949   0.370  0.1538 -0.0764 -0.1682
23676W        W39485  14.303  11.392   1.298 -0.0254  0.1867 -0.0456
23677W        W39486  18.401   4.801  13.475  0.0460 -0.1961 -0.2614
23678W        W39487   3.292   6.054   3.049 -0.0159  0.3129 -0.1233
23679W        W39488  12.789  13.948   0.707  0.1198  0.0578  0.1659
23680W        W39489   8.565   0.762   5.245  0.0113  0.1506  0.0601
23681W        W39490   7.301   4.116   5.026 -0.0754 -0.0155 -0.1905
23682W        W39491   2.983   2.281   4.111 -0.1372 -0.0199 -0.1176
23683W        W39492  18.345  17.106   1.837  0.0613  0.2069 -0.1214
23684W        W39493   3.644  16.907   2.276  0.1401  0.0747  0.1019
23685W        W39494   1.274   6.719   3.183 -0.1449  0.2412  0.0992
23686W        W39495  17.259  11.396  13.041  0.0228 -0.3371 -0.2117
23687W        W39496   4.874  10.747  14.528 -0.0207  0.0718 -0.1855
23688W        W39497   5.263   7.423  11.414  0.1497 -0.0487  0.3321
23689W        W39498   4.602   0.423   3.933  0.0648 -0.1384  0.3546
23690W        W39499   6.304  10.115   1.213  0.2698 -0.2757 -0.0170
23691W        W39500   3.034  12.668  11.673  0.3009  0.3268 -0.1838
23692W        W39501   7.203   3.331   2.349  0.1899  0.1330 -0.1867
23693W        W39502  17.050   5.322   1.000 -0.0858  0.1682  0.2062
23694W        W39503  15.567  12.865  13.478 -0.1566 -0.0089 -0.2829
23695W        W39504  13.461  16.787   3.377  0.2080 -0.0224  0.1625
23696W        W39505   1.826  10.003   4.584 -0.0283  0.1309 -0.1051
23697W        W39506   0.525   3.769  11.180 -0.1405 -0.1538 -0.0878
23698W        W39507  10.508   0.468  13.060  0.1545  0.1173 -0.0209
23699W        W39508   4.852  13.597   3.944  0.2497 -0.0443  0.1205
23700W        W39509   5.342  16.843  13.870  0.0966 -0.1328 -0.1177
23701W        W39510  16.738   3.786  11.190  0.2025 -0.1057  0.0423
23702W        W39511   8.538   3.071   1.275 -0.0427  0.4124 -0.2364
23703W        W39512  13.063   7.520  12.492  0.0585  0.1826  0.0691
23704W        W39513   2.585  14.526  10.789  0.0416 -0.2212 -0.2787
23705W        W39514  13.127   8.387   4.937  0.0658 -0.1690 -0.0901
23706W        W39515   3.677   8.777   1.592  0.1833 -0.1483 -0.1779
23707W        W39516  12.139   0.414   0.643 -0.3263  0.2933  0.3283
23708W        W39517  11.519   2.730   4.924  0.0496  0.1456  0.0899
23709W        W39518  11.060   6.147  10.995  0.0645  0.3831  0.0430
23710W        W39519   8.556   3.478  13.892 -0.0637 -0.3141 -0.3507
23711W        W39520  16.220   3.194  14.552 -0.3615 -0.1729 -0.0918
23712W        W39521  18.610  14.611  11.068 -0.1334  0.2828  0.2230
23713W        W39522  18.372   8.044  14.659 -0.4418  0.0184  0.3073
23714W        W39523   8.452   0.649  11.233  0.2272  0.2270  0.1825
23715W        W39524   2.636   7.731  11.810 -0.1338 -0.1470 -0.0555
23716W        W39525   4.607  15.196   2.499 -0.2938  0.1669 -0.2494
23717W        W39526   6.741  11.070  12.007  0.1111  0.0179 -0.2551
23718W        W39527   8.794   4.135  13.121  0.1289 -0.2719 -0.0405
23719W        W39528   5.032   7.788   0.118  0.2860 -0.2790  0.2197
23720W        W39529  16.692   0.986   0.611 -0.0629 -0.0698  0.0201
23721W        W39530  15.611  12.975   3.710  0.1162 -0.2030 -0.0896
23722W        W39531  17.210  10.286  11.123 -0.1040 -0.0978  0.0380
23723W        W39532   7.063  16.470   4.976  0.1209 -0.0119  0.1163
23724W        W39533   2.816  12.812   0.111 -0.3507  0.2490 -0.1312
23725W        W39534   2.758   7.495   1.941 -0.0520 -0.1446 -0.0537
23726W        W39535   9.676  15.085   4.415  0.2068 -0.2311  0.2474
23727W        W39536   5.279  10.341   5.098  0.1988  0.1345  0.5200
23728W        W39537  16.276  11.288  14.747 -0.1792 -0.2201  0.0130
23729W        W39538  11.267  15.574  12.058 -0.0001 -0.1374 -0.0751
23730W        W39539   2.738  18.178  12.506  0.0441  0.0744 -0.1550
23731W        W39540  13.985  13.570   5.026 -0.0790 -0.2218  0.1007
23732W        W39541  18.573   9.070  12.202 -0.1672 -0.2466  0.1220
23733W        W39542   7.968  13.110  10.494 -0.1929 -0.7382 -0.2940
23734W        W39543  17.323   8.044  12.020 -0.0201 -0.0780 -0.1052
23735W        W39544   9.030  18.084   1.205 -0.3002 -0.3539 -0.4938
23736W        W39545   0.897  17.952   2.414  0.0541  0.0826 -0.1044
23737W        W39546  13.306   9.232   3.308 -0.1802  0.0920 -0.0892
23738W        W39547  15.022  16.520   5.313 -0.1087  0.0953 -0.1577
23739W        W39548  13.857  10.280  13.986 -0.0818  0.1120 -0.0695
23740W        W39549   4.680   3.202   4.048  0.0639 -0.0258  0.2905
23741W        W39550  17.865  18.600  12.796 -0.1669 -0.0704 -0.2613
23742W        W39551  18.528  14.477  12.847 -0.3586  0.0518 -0.1292
23743W        W39552  15.023  10.371   0.896  0.1897  0.1019 -0.0260
23744W        W39553   2.794   4.305   5.484  0.0272  0.0932 -0.1495
23745W        W39554  18.517   4.651   0.777  0.0815  0.3524 -0.0106
23746W        W39555  16.761   6.671  11.218  0.0047 -0.2213 -0.2117
23747W        W39556   5.393  10.325  11.473 -0.1772 -0.2819  0.1025
23748W        W39557   2.700  15.490  13.590  0.0563 -0.2380  0.1211
23749W        W39558  11.315   6.659  13.242  0.1068  0.2579 -0.0535
23750W        W39559  12.977  18.653   3.975 -0.0416 -0.1056  0.0133
23751W        W39560  18.161   1.642  12.639 -0.2549 -0.3971 -0.1451
23752W        W39561  10.879  16.998   4.796  0.1907 -0.0339  0.1633
23753W        W39562  16.612   4.015  13.221 -0.0156 -0.0196  0.1408
23754W        W39563  16.153  13.935  10.758 -0.1658 -0.1436 -0.1676
23755W        W39564   6.896  17.165   1.014  0.2465  0.3288 -0.3517
23756W        W39565  18.672  14.728   0.180  0.0130  0.0828 -0.0192
23757W        W39566   4.362   8.378   4.779  0.2396 -0.0261 -0.0535
23758W        W39567   7.542  14.438   0.095 -0.1559 -0.2526  0.1309
23759W        W39568  16.776   0.260   4.657 -0.0326  0.0300 -0.0964
23760W        W39569  10.265  13.384   4.421  0.2640  0.0931 -0.0027
23761W        W39570   7.836   6.381  14.187  0.0180 -0.0485  0.2911
23762W        W39571   9.276   6.892   3.362  0.2264 -0.1604  0.1265
23763W        W39572   3.930  10.226  10.244 -0.0308 -0.5057 -0.0114
23764W        W39573   2.559   5.193   0.786  0.0586 -0.0995 -0.1104
23765W        W39574   7.865   5.475  13.185  0.1717  0.0317  0.2321
23766W        W39575  17.868  10.682  14.325  0.4260 -0.0855 -0.0749
23767W        W39576   1.792   8.915   1.902 -0.0496 -0.3641  0.0703
23768W        W39577  13.201   8.112   5.359 -0.4266 -0.1329  0.0291
23769W        W39578   5.300   1.362   5.295 -0.1483  0.1813  0.3124
23770W        W39579   3.653  18.137  15.470  0.0922 -0.0371  0.0618
23771W        W39580   4.809  17.745   2.387  0.0446 -0.3398 -0.5229
23772W        W39581   3.156   0.327  12.831 -0.1513 -0.0007  0.2085
23773W        W39582   1.759  12.497   0.430  0.1680  0.1205  0.0837
23774W        W39583   6.413  10.946  11.127  0.0215 -0.1008 -0.2529
23775W        W39584  16.867   1.707  11.514 -0.1974  0.3872  0.2903
23776W        W39585  17.227   5.045   1.435 -0.3536 -0.0775  0.0987
23777W        W39586   5.145  14.353   4.999 -0.1144 -0.0286 -0.0781
23778W        W39587  13.472  18.272   3.127 -0.1195  0.1010 -0.0673
23779W        W39588  17.793   1.294  13.844  0.1774  0.1978  0.3945
23780W        W39589   1.572   2.758   5.280 -0.0470 -0.0815  0.2544
23781W        W39590   9.076  16.804  12.269 -0.0738  0.0804 -0.1605
23782W        W39591  17.694  12.654   4.613  0.2285  0.1935  0.3875
23783W        W39592  12.792  15.702   4.332 -0.4887 -0.2177 -0.2176
23784W        W39593  15.969   5.923  13.208  0.0814  0.0742 -0.1364
23785W        W39594  13.669   1.933   2.415  0.3323  0.0588  0.1852
23786W        W39595   1.197   8.425  12.205  0.1323  0.0219  0.2472
23787W        W39596   7.158  10.680   1.094 -0.0311 -0.2272  0.0277
23788W        W39597   3.941   3.590  14.568  0.1453 -0.4663 -0.1318
23789W        W39598  11.965   6.277  12.029 -0.1752  0.0479  0.1085
23790W        W39599   9.882   1.173   2.767  0.1098  0.1027  0.0506
23791W        W39600  17.348   9.085  14.487 -0.0710  0.0130 -0.0515
23792W        W39601   7.747  11.922   4.475 -0.0653  0.0486 -0.0519
23793W        W39602   9.765   6.618  10.432 -0.0789  0.2305  0.1479
23794W        W39603   1.628  15.454   0.248  0.0233  0.1289 -0.1286
23795W        W39604   0.507  17.695   5.818 -0.0630  0.3554  0.1964
23796W        W39605   6.666   8.027   4.955  0.0016  0.0926  0.2250
23797W        W39606  12.588  11.239  15.009 -0.5094 -0.2323  0.0735
23798W        W39607   1.986  13.820   4.528 -0.1252 -0.2074 -0.0750
23799W        W39608   9.285  11.057   1.798  0.1364  0.1671 -0.2007
23800W        W39609  16.034  14.727   5.704 -0.1968 -0.0976 -0.0365
23801W        W39610   3.740  15.942   3.266  0.4700  0.2244 -0.0623
23802W        W39611  14.339   5.676  12.231  0.0460  0.2122 -0.0106
23803W        W39612  16.106   5.463   2.951  0.0756  0.3839  0.2186
23804W        W39613  14.660   7.858   3.258 -0.0592 -0.2887  0.1129
23805W        W39614   2.534   7.708  13.036 -0.0327 -0.0372 -0.0416
23806W        W39615   6.501   7.620   2.912 -0.4164  0.1726 -0.1228
23807W        W39616   8.829   7.980   4.879 -0.1161  0.0342  0.0467
23808W        W39617   1.917  11.764  11.732  0.0213 -0.2291 -0.1094
23809W        W39618  15.487  11.664   0.820 -0.3778 -0.0381  0.3320
23810W        W39619   9.939   6.686   0.613  0.1230  0.0184 -0.2095
23811W        W39620  17.390   7.479  10.409  0.1792  0.0128  0.0145
23812W        W39621   1.930  16.027  14.424  0.1746  0.0727  0.2362
23813W        W39622   7.196  11.363   3.830  0.0349  0.0115  0.0231
23814W        W39623   9.827  13.955   5.186 -0.0862  0.2698  0.1093
23815W        W39624  11.895   0.718  10.626 -0.0501  0.0605  0.4772
23816W        W39625   2.221   2.759   3.972  0.3050  0.0247 -0.1052
23817W        W39626   9.547   7.729   2.334 -0.1200  0.1102  0.1071
23818W        W39627  14.476  17.141   2.584  0.1079 -0.0967  0.0108
23819W        W39628  12.356   9.460   5.106  0.2563  0.0133  0.2735
23820W        W39629   1.003  18.647  11.056  0.3908 -0.0627 -0.0542
23821W        W39630  18.143  16.564  13.016  0.1582 -0.0239  0.1578
23822W        W39631  11.302  11.477   4.713 -0.1390 -0.1406  0.0487
23823W        W39632  10.862   2.707   0.484  0.4866  0.0358 -0.0647
23824W        W39633   1.490   1.483  12.363 -0.1126 -0.1908  0.0103
23825W        W39634   6.502   1.516  10.808  0.2591 -0.2661  0.1335
23826W        W39635   2.193  12.033   1.433  0.2823 -0.2912  0.1471
23827W        W39636   1.909   2.165  15.140 -0.0265  0.1700  0.0272
23828W        W39637   0.630   7.562  10.562 -0.0409  0.0502 -0.2982
23829W        W39638  13.290   2.322   1.215 -0.3477  0.4908 -0.1540
23830W        W39639  16.465   5.331   0.039  0.1587 -0.1363  0.0364
23831W        W39640  15.568   5.333   4.327  0.1570  0.0893  0.0145
23832W        W39641   1.713   6.526   3.091  0.2060 -0.0705  0.0850
23833W        W39642   1.608   1.298   0.061 -0.1541  0.1572  0.1920
23834W        W39643  14.207   1.370   3.982 -0.1467  0.1978  0.1383
23835W        W39644   4.605  11.243   4.373 -0.0183  0.1948  0.0837
23836W        W39645   9.578   3.773  13.826 -0.0673 -0.0986 -0.0600
23837W        W39646  11.888  14.951   5.514  0.1028  0.0109 -0.0733
23838W        W39647  15.778  14.859   5.328 -0.0854  0.2121 -0.0070
23839W        W39648  18.076   7.923   3.278  0.0623  0.0619 -0.0849
23840W        W39649   3.281  11.786   0.221  0.1664  0.3423 -0.0924
23841W        W39650  16.970   7.533  13.863 -0.0074 -0.2563 -0.1687
23842W        W39651   7.647   1.846   2.848  0.1149 -0.1515  0.0931
23843W        W39652   1.144  12.398  15.411 -0.0896  0.3491 -0.3029
23844W        W39653   4.724   9.767  12.608  0.1124 -0.0631  0.0950
23845W        W39654   2.086  16.663   0.408 -0.1638  0.3591 -0.1463
23846W        W39655  15.164   6.879   0.286 -0.2045  0.1264 -0.2535
23847W        W39656  16.624  18.179   3.028  0.1174 -0.0225 -0.1308
23848W        W39657   1.827  10.946   1.419  0.1365  0.2100  0.1033
23849W        W39658   7.423   2.013  14.143 -0.0035  0.1340 -0.1997
23850W        W39659  12.629  16.219   2.571  0.1736  0.0556  0.2333
23851W        W39660  15.080  10.190  10.429  0.0680 -0.1152  0.3519
23852W        W39661  14.920   8.347  13.175  0.2227  0.1140 -0.0979
23853W        W39662  16.901   7.866  10.217  0.3288  0.0845 -0.0295
23854W        W39663   5.905  16.291  13.684  0.1712  0.0895 -0.0499
23855W        W39664  13.686  11.864   4.347  0.2805 -0.1813 -0.0934
23856W        W39665  16.565  16.640   0.861 -0.0537  0.0013  0.0111
23857W        W39666  16.610  13.552  14.888  0.4367  0.2007  0.2404
23858W        W39667   3.859   9.822  14.865  0.0101  0.1123 -0.1016
23859W        W39668   4.352   2.695   2.460  0.0957  0.2242 -0.0091
23860W        W39669   1.613   8.086   3.321  0.1802 -0.0882 -0.0766
23861W        W39670  11.499  12.397   4.339  0.0623 -0.0170  0.1122
23862W        W39671   2.175   5.178  11.062  0.0650  0.1149  0.0319
23863W        W39672  13.217   0.494  14.123  0.0386  0.1505  0.0788
23864W        W39673   5.303   4.625  14.923 -0.0531 -0.2153 -0.0494
23865W        W39674   6.314  15.577   5.881  0.3270  0.0424  0.0737
23866W        W39675  12.195  17.826   0.533  0.1756  0.2294  0.1346
23867W        W39676  12.831   9.061  14.986 -0.1222  0.2319 -0.0026
23868W        W39677   6.857  15.463   2.829  0.1750 -0.1785  0.0023
23869W        W39678   4.851   6.622  11.387 -0.0231 -0.1972  0.0139
23870W        W39679  10.163  18.320   1.835  0.0003 -0.2063 -0.1699
23871W        W39680  12.600  11.644  11.843  0.0295  0.0518 -0.1291
23872W        W39681   8.464  16.322  14.763  0.2416  0.1697 -0.1641
23873W        W39682  16.800   2.254   0.197 -0.2476 -0.0887  0.0094
23874W        W39683   9.070   1.732  10.360  0.0082 -0.0618  0.1948
23875W        W39684  14.942   1.786   1.065 -0.1917 -0.2632 -0.1733
23876W        W39685   3.834   5.614   1.384 -0.0032  0.0114  0.0848
23877W        W39686  17.023   1.709   5.085  0.0601  0.1137 -0.2197
23878W        W39687  18.037  13.859   3.754 -0.0767 -0.3568 -0.3808
23879W        W39688   5.749  11.036   4.925 -0.1134 -0.1349 -0.2654
23880W        W39689   1.641   8.099  11.560 -0.3582 -0.3748  0.1521
23881W        W39690  10.671   5.521  13.437 -0.1118 -0.5104  0.1175
23882W        W39691   5.812  15.000  13.430  0.0625  0.0907 -0.1255
23883W        W39692  13.931  12.194  11.672  0.3024 -0.0443 -0.0742
23884W        W39693  15.004   6.928   1.719  0.0102  0.6333 -0.0082
23885W        W39694   9.205  10.321  12.936  0.0174 -0.0778  0.0615
23886W        W39695  12.186  15.046  13.382 -0.0315  0.0326 -0.1622
23887W        W39696  12.047   9.218   5.417  0.3643 -0.2592  0.0309
23888W        W39697  11.917  15.423   5.696 -0.2244  0.1028 -0.0245
23889W        W39698   2.281   3.344   0.394 -0.2044 -0.3464  0.1241
23890W        W39699   4.521  16.352   0.769  0.1107  0.2067  0.0533
23891W        W39700   9.964   1.376   0.469 -0.0837 -0.3415 -0.1066
23892W        W39701   1.587  13.772   3.018  0.3662  0.0279 -0.3157
23893W        W39702   1.938   9.338   3.141 -0.3017 -0.1138  0.0092
23894W        W39703  16.718   7.267   2.308  0.1584 -0.0179 -0.0542
23895W        W39704  16.614   9.565  14.353 -0.2146 -0.2226 -0.3320
23896W        W39705   1.217   8.869  11.956 -0.1772 -0.1283 -0.1306
23897W        W39706  15.824   2.414   0.852  0.2645  0.0523 -0.0562
23898W        W39707  17.426   0.909   4.221  0.0773 -0.0437 -0.0976
23899W        W39708   2.007   9.484  14.137 -0.2465 -0.1181 -0.0572
23900W        W39709  15.586   2.607  15.540  0.0466  0.2818 -0.1017
23901W        W39710  14.596   1.929   1.571 -0.1944  0.1249 -0.0847
23902W        W39711  16.874   1.707   4.582  0.0635 -0.0921  0.0337
23903W        W39712   9.833  15.471  13.670  0.2027 -0.1494 -0.2396
23904W        W39713   3.871  14.725  10.446 -0.3471  0.1892  0.1004
23905W        W39714  15.961  14.062   4.530 -0.0829 -0.2959 -0.1235
23906W        W39715   9.850  16.098   2.017 -0.1621 -0.1178 -0.1317
23907W        W39716   1.928  14.279   2.140 -0.0192 -0.2620  0.1509
23908W        W39717   5.646  13.907  11.636 -0.0327  0.2158 -0.0578
23909W        W39718   3.176   0.018   3.520  0.0929  0.1364  0.4460
23910W        W39719   2.620   2.915  13.556 -0.3375  0.3967  0.1292
23911W        W39720   5.946   2.688   2.709  0.1254  0.0502 -0.3326
23912W        W39721  11.571  11.004   0.204  0.0851  0.0131 -0.3096
23913W        W39722   5.728  10.249   1.329 -0.3744 -0.2105 -0.0274
23914W        W39723   6.758  10.388   1.050  0.1485 -0.0995  0.2062
23915W        W39724  11.794  10.908   0.658  0.3015 -0.0564 -0.1092
23916W        W39725   9.586   2.071   3.515 -0.1449 -0.4108 -0.0273
23917W        W39726   9.121  18.604  11.429 -0.0156 -0.2034 -0.3261
23918W        W39727   2.338   0.830  14.311  0.1135 -0.5112 -0.1915
23919W        W39728  12.944   6.123   2.135 -0.1194  0.3822 -0.1311
23920W        W39729  15.225   7.440  12.920  0.4594  0.3294  0.0266
23921W        W39730   7.346  12.277   2.046 -0.1410  0.2134  0.0404
23922W        W39731   7.865   2.815  12.093 -0.0729 -0.0127  0.1436
23923W        W39732  14.839  13.706  11.020 -0.1819 -0.0701  0.1831
23924W        W39733   1.021   5.837  11.119  0.2845  0.2477 -0.1285
23925W        W39734  13.174  17.180   2.369  0.1845 -0.0083  0.3757
23926W        W39735  13.665  11.422  15.228  0.0441 -0.1264 -0.2251
23927W        W39736  17.314  10.271   9.557  0.0677  0.0980  0.1478
23928W        W39737   0.792   0.036  13.445 -0.2512 -0.2557 -0.2392
23929W        W39738  11.907  11.844   0.915  0.1547 -0.0294  0.0135
23930W        W39739   0.140   5.035  13.743 -0.2402  0.0865  0.1810
23931W        W39740   8.349   7.152   2.087 -0.1750 -0.0242  0.0240
23932W        W39741  16.721  17.028   3.284  0.1267 -0.2735 -0.0101
23933W        W39742  12.564   8.806  11.585  0.2683  0.5368  0.0280
23934W        W39743   4.637  14.478   3.028  0.2390 -0.0060 -0.1971
23935W        W39744  13.881  12.898   3.209 -0.0558 -0.2683 -0.0644
23936W        W39745   5.489  15.323  14.532  0.4297 -0.0753  0.0943
23937W        W39746  14.249  14.301  11.055 -0.0081  0.0541 -0.0912
23938W        W39747   3.150   5.340  15.611  0.3619 -0.0028 -0.4035
23939W        W39748   5.524   9.607   2.764  0.1304 -0.0952 -0.1855
23940W        W39749  11.226   0.916  14.770  0.4454  0.2328  0.0798
23941W        W39750   0.283  17.556  14.932  0.0688  0.1976 -0.1407
23942W        W39751   2.978  10.353   1.415  0.2852 -0.1266  0.0447
23943W        W39752   8.412  17.384   4.553 -0.1749 -0.2895 -0.0245
23944W        W39753   0.554   5.625   3.711 -0.1891 -0.1648 -0.1713
23945W        W39754   9.458   9.466  13.989  0.1350  0.0071 -0.1753
23946W        W39755   8.837  10.850  14.451  0.0081  0.0578  0.0013
23947W        W39756  14.541   9.283  15.532 -0.0659  0.1417 -0.3120
23948W        W39757   1.234   5.352  11.333 -0.0790 -0.1469  0.0549
23949W        W39758   5.514  11.966   2.480  0.0858  0.3267  0.1463
23950W        W39759   3.901   5.578  14.555  0.1924 -0.2630 -0.3079
23951W        W39760   5.264  16.880   0.074 -0.0562  0.3939 -0.0244
23952W        W39761   0.831   3.519   3.367 -0.0738  0.2180  0.1601
23953W        W39762   5.415   2.189  12.749 -0.2475  0.1385 -0.0915
23954W        W39763   3.194   3.776  13.255 -0.4308  0.1533 -0.0545
23955W        W39764  17.290  13.531  11.028 -0.1141 -0.0133  0.2081
23956W        W39765  14.731  10.582  12.994 -0.1742  0.1482  0.2614
23957W        W39766   7.334   7.736  14.839  0.0543  0.0978 -0.0216
23958W        W39767  11.440   3.156  12.991  0.0328  0.3666  0.3527
23959W        W39768  11.572  15.605  13.818  0.1315  0.1074  0.1939
23960W        W39769   3.782  13.714  15.418 -0.2121 -0.2317  0.2048
23961W        W39770  16.270  16.319   2.105  0.0368  0.1976  0.2335
23962W        W39771   2.283  16.270   2.711  0.1605  0.0621 -0.0437
23963W        W39772   4.674   5.800   1.759 -0.1564 -0.3418  0.0134
23964W        W39773  17.110  11.314   2.753  0.0231  0.0596  0.0495
23965W        W39774  17.743   9.490   0.730  0.1893 -0.1630  0.3736
23966W        W39775   5.305   1.498   4.306 -0.0059  0.0068 -0.1176
23967W        W39776   1.894   2.751   1.273  0.2186  0.1369 -0.2220
23968W        W39777   5.548   0.461   3.395  0.3270  0.0367  0.0609
23969W        W39778   5.297   1.770   1.303 -0.0257 -0.1589 -0.0154
23970W        W39779   3.505   2.648   3.499 -0.1216 -0.2823 -0.2193
23971W        W39780  13.265  14.625   2.345  0.3927 -0.1201 -0.3730
23972W        W39781   3.857  18.196   1.722  0.4477 -0.0052 -0.2122
23973W        W39782  16.945   6.552  15.126 -0.2484 -0.2041  0.1536
23974W        W39783  11.650   7.676  14.045  0.2259 -0.1519 -0.2705
23975W        W39784   7.199  12.943   0.967 -0.0550  0.1723  0.0182
23976W        W39785  16.202   2.537   2.129 -0.0312  0.0974 -0.0974
23977W        W39786  13.132   7.893   2.165 -0.0956 -0.2279  0.0332
23978W        W39787  11.611   6.245   5.474 -0.4167  0.2730  0.0986
23979W        W39788   7.978   5.704   4.879  0.1598  0.1002 -0.1162
23980W        W39789   5.688   2.232   2.739  0.1318  0.0028  0.2250
23981W        W39790  14.964  13.211   4.594  0.2487  0.0597  0.1485
23982W        W39791  13.365   7.386   5.063 -0.0987  0.0045  0.1536
23983W        W39792   5.897  16.058   0.786 -0.0450  0.0423 -0.0287
23984W        W39793   5.515  14.140  10.561 -0.1170 -0.0311  0.2138
23985W        W39794   1.563   2.411  15.454  0.1783 -0.0060  0.2045
23986W        W39795   7.091   4.419  11.795 -0.0227  0.3767  0.0771
23987W        W39796   7.021   3.595   0.764  0.3624  0.3524  0.1409
23988W        W39797   5.639   9.305   3.140  0.0632 -0.2981  0.2520
23989W        W39798   6.055  13.149  11.080  0.1317  0.0713  0.0654
23990W        W39799  13.681   8.287  12.769 -0.5005 -0.0596  0.0769
23991W        W39800  18.536  13.032  15.393  0.0224  0.0564  0.1174
23992W        W39801  15.329   0.485  11.556  0.0661 -0.0117 -0.1928
23993W        W39802   4.554   8.249  14.040 -0.2983 -0.0904 -0.2951
23994W        W39803   2.598   3.570   5.011  0.1769  0.2876 -0.3686
23995W        W39804   5.054   9.887   4.418  0.2354  0.0895 -0.0758
23996W        W39805   0.596  12.053  10.923 -0.0429  0.0951  0.1854
23997W        W39806  10.826  14.298  11.622 -0.1288  0.0597 -0.2659
23998W        W39807  10.811   4.394   1.715  0.3121  0.1438 -0.3424
23999W        W39808   8.589   0.061   3.804 -0.1203  0.0521  0.0823
24000W        W39809   1.783  15.699   1.161 -0.0991 -0.0654 -0.3651
24001W        W39810  16.260  10.777   0.572  0.0422 -0.0746  0.1537
24002W        W39811   7.951   6.150  10.930  0.0835 -0.1613 -0.3832
24003W        W39812   1.511  18.332  12.788  0.2796 -0.1358  0.0878
24004W        W39813   2.666   0.598   2.724  0.0685  0.1368  0.3722
24005W        W39814   2.528  18.396  12.914 -0.1897  0.1710  0.2995
24006W        W39815  13.060   0.666  14.615  0.1425 -0.0320 -0.5023
24007W        W39816   5.603  17.858  10.991  0.1217  0.3779  0.1943
24008W        W39817   9.995  18.463  13.389  0.0409 -0.1391  0.0876
24009W        W39818   5.079  12.171  12.372  0.1809 -0.2096  0.0218
24010W        W39819  18.276  14.760  13.751 -0.0027 -0.2097 -0.0484
24011W        W39820   3.119   3.262  15.059  0.2118 -0.0227  0.3145
24012W        W39821   9.723  12.737  13.944  0.0322  0.0527  0.0051
24013W        W39822  13.238  17.194   5.245  0.2235  0.1134  0.1879
24014W        W39823  18.540   7.691   2.323 -0.0461 -0.2792 -0.1253
24015W        W39824   3.990   7.263   0.999 -0.3506 -0.2151 -0.0277
24016W        W39825   2.865  16.568  12.642 -0.3040  0.3550  0.2846
24017W        W39826   7.873   5.575   0.581  0.0882  0.2772 -0.0278
24018W        W39827   1.362   4.773   4.609  0.0755  0.0682 -0.1253
24019W        W39828   2.639   3.495   1.488  0.3377 -0.0660 -0.0630
24020W        W39829   4.283  14.276   3.674 -0.3195  0.0581 -0.1701
24021W        W39830   3.320  13.183   4.813  0.0952  0.0898  0.0994
24022W        W39831  10.177  11.765   4.224  0.0075 -0.0204 -0.0692
24023W        W39832  15.443  12.685  11.662 -0.3175  0.0454 -0.1241
24024W        W39833   3.056  11.135   4.030  0.3427  0.0845  0.1182
24025W        W39834  15.926  13.018   1.490  0.0063 -0.3042 -0.1822
24026W        W39835  16.443  14.291   0.450 -0.1915  0.1215 -0.0969
24027W        W39836   9.897  15.258   0.087 -0.1105  0.1123 -0.1304
24028W        W39837   6.267  17.110  12.153  0.1955 -0.2801  0.1135
24029W        W39838   1.772   3.666   1.033  0.0379 -0.0802  0.2255
24030W        W39839   8.412  15.507   4.581 -0.2094 -0.1055 -0.0967
24031W        W39840   6.504  17.093   1.993 -0.0736 -0.0311  0.0982
24032W        W39841   5.158  13.938   0.531  0.0271  0.1330  0.0921
24033W        W39842   4.869   0.002   4.148 -0.1710  0.4207  0.1957
24034W        W39843   6.576   9.668  11.579  0.0738 -0.1049 -0.0103
24035W        W39844   2.047   5.189  11.722 -0.0683 -0.0003 -0.1995
24036W        W39845   2.117  18.398  13.288 -0.2851 -0.0008 -0.2746
24037W        W39846   7.098   7.688   5.381 -0.1327 -0.2060 -0.1338
24038W        W39847   8.124  15.061  10.883 -0.0099  0.0661 -0.0539
24039W        W39848  15.403  14.512   5.117  0.1775 -0.0739 -0.3297
24040W        W39849  15.369   3.522   3.654  0.0300  0.1240  0.1197
24041W        W39850   5.025   7.499   0.588  0.2374 -0.1489  0.0051
24042W        W39851   3.341  12.395   1.104 -0.0180  0.0890  0.1597
24043W        W39852  12.791   7.984   5.087 -0.1184  0.1608 -0.1295
24044W        W39853   2.822   0.066  14.167 -0.2773  0.0312 -0.1307
24045W        W39854   1.777   4.311  14.096  0.1936 -0.0462 -0.1415
24046W        W39855  13.095   9.917   5.123 -0.0366  0.0638 -0.1177
24047W        W39856   6.073   1.845  15.305  0.3361  0.1398  0.1140
24048W        W39857   4.512   5.602   2.525 -0.0361 -0.1352  0.3636
24049W        W39858   5.772  14.070  14.073 -0.2547  0.0509 -0.0853
24050W        W39859   5.487  17.271   0.295  0.1038  0.1631 -0.1350
24051W        W39860   5.361   0.291  15.325  0.2514 -0.0921 -0.2910
24052W        W39861   7.907   8.981  14.090  0.2565  0.1878  0.4221
24053W        W39862  18.399   2.805  12.564 -0.1913  0.0938  0.0281
24054W        W39863  14.176   7.512   1.620 -0.0844  0.0860  0.1685
24055W        W39864   2.426  18.230   9.440 -0.1511 -0.1414 -0.1320
24056W        W39865   4.798   5.085  11.042 -0.2107 -0.4065  0.1281
24057W        W39866   1.569  13.015  12.107  0.0547 -0.3045  0.0522
24058W        W39867  15.872  15.842   4.675  0.1368 -0.0352  0.0791
24059W        W39868   6.817   7.575   3.757 -0.0275 -0.1100  0.1474
24060W        W39869   3.342  16.589  11.608 -0.3353  0.2865 -0.2087
24061W        W39870   5.002  12.220  11.527  0.2786  0.1712  0.2388
24062W        W39871   2.806  13.556   1.119  0.2441 -0.1018 -0.4821
24063W        W39872   4.462  17.139   4.189  0.0404  0.1258 -0.3281
24064W        W39873   3.788  12.693  10.579  0.3430  0.1254 -0.0933
24065W        W39874   2.844  12.390  14.200 -0.3326  0.0969  0.1566
24066W        W39875   3.657  15.054   5.626  0.1765  0.1578  0.1185
24067W        W39876   9.636   7.423  10.859  0.3132  0.0243 -0.1502
24068W        W39877   6.760   8.296  15.165  0.0380 -0.3088 -0.3436
24069W        W39878  10.538   8.853   2.086 -0.0348 -0.3054 -0.0126
24070W        W39879   0.517  18.566  11.004  0.0919  0.2709  0.0292
24071W        W39880   7.391  11.416   2.782  0.1648  0.1305  0.0808
24072W        W39881  13.884   8.880   0.149  0.0211  0.2070  0.1483
24073W        W39882  18.297   1.015  10.913  0.0696  0.0604 -0.0046
24074W        W39883   9.009   6.369  13.131 -0.0719 -0.2079  0.0500
24075W        W39884   4.589  18.392  14.086 -0.0504 -0.2992  0.1124
24076W        W39885  17.830   0.076  13.884  0.0291  0.3081  0.0370
24077W        W39886   0.209   1.637   0.107  0.1637 -0.3867 -0.2213
24078W        W39887  10.965   6.915   0.482  0.3442  0.0506 -0.3393
24079W        W39888  17.498  12.692  13.275  0.0123  0.0332 -0.2483
24080W        W39889  12.301  11.073  14.569 -0.0608 -0.0354  0.0408
24081W        W39890  13.203  12.074  13.171  0.4496  0.0635 -0.0476
24082W        W39891  14.205   5.532   3.600 -0.1371  0.1290 -0.1203
24083W        W39892   0.002   8.255   0.714  0.0534 -0.0267  0.4103
24084W        W39893   3.144  16.311   2.060  0.1411 -0.0723  0.0897
24085W        W39894   6.958  17.311  12.404  0.2770  0.1698  0.2358
24086W        W39895  18.237   4.249   1.757 -0.0464  0.3181 -0.3722
24087W        W39896   6.950  18.323  14.792 -0.1116 -0.3106 -0.0025
24088W        W39897  10.233  11.186   4.749 -0.1789  0.1380 -0.0431
24089W        W39898   6.115   4.230  10.737 -0.1098  0.1261 -0.1281
24090W        W39899   2.151  13.846  10.685 -0.1084 -0.1301 -0.0792
24091W        W39900  10.035  11.473   3.038  0.2063 -0.0008 -0.1182
24092W        W39901   0.172  17.235   4.127  0.1837  0.0509  0.2600
24093W        W39902  15.843  16.781   4.319 -0.1938  0.0518  0.1404
24094W        W39903  13.859   7.272  13.864 -0.0574 -0.0139 -0.0055
24095W        W39904   2.082   6.900   4.497  0.1969  0.0692 -0.3062
24096W        W39905  10.150  16.386   3.323 -0.1932 -0.3914  0.2170
24097W        W39906   7.543  15.022  10.970 -0.0700 -0.3344  0.1247
24098W        W39907   1.069  17.410  11.821 -0.1266  0.1331  0.0463
24099W        W39908   1.706  15.502   4.352  0.2995  0.0157 -0.1058
24100W        W39909   2.705  15.501   5.423  0.1383 -0.0083 -0.3808
24101W        W39910  12.250   1.205   5.144  0.1048  0.0770 -0.0357
24102W        W39911   8.806  12.950   1.759 -0.0661 -0.0606  0.2226
24103W        W39912  17.263  13.507  14.728  0.1950 -0.1811  0.3846
24104W        W39913  13.674  13.605   3.156 -0.2801 -0.1628 -0.0573
24105W        W39914  11.962  16.559   1.627  0.1547 -0.1051 -0.2416
24106W        W39915  17.135  17.836   5.472  0.3158  0.0334  0.0082
24107W        W39916  18.052   5.040   4.396 -0.2335  0.0373  0.0053
24108W        W39917  14.619  14.614   3.141  0.2668  0.0881 -0.0921
24109W        W39918  10.125   5.219  14.425 -0.2240 -0.0873 -0.0301
24110W        W39919   4.803  15.660  15.184  0.1346 -0.4152  0.0872
24111W        W39920   5.057  18.615  14.392 -0.0379  0.2673  0.4046
24112W        W39921   0.270  11.753  14.572  0.3037 -0.0405  0.2799
24113W        W39922  18.526   8.212   4.148 -0.0252 -0.2685 -0.2029
24114W        W39923   0.625  16.844   2.973  0.1113 -0.3880  0.1044
24115W        W39924   2.687   1.976  12.840  0.1429 -0.0734 -0.1039
24116W        W39925  17.545   1.668   4.922  0.0903 -0.2787 -0.2333
24117W        W39926  10.542  11.673   1.306 -0.1302 -0.1169  0.1463
24118W        W39927   4.719  11.435   3.010  0.1563  0.3515 -0.2065
24119W        W39928   6.345   1.690  13.858  0.2603  0.0717 -0.0253
24120W        W39929  12.490   0.621   1.058 -0.0825 -0.1533  0.1049
24121W        W39930   0.218   2.827   0.996 -0.2204  0.1242  0.2140
24122W        W39931  16.134   8.895   0.050 -0.0495 -0.1654 -0.0328
24123W        W39932   9.968   5.135   5.171  0.1714  0.3107 -0.5015
24124W        W39933  12.845  16.959   5.635 -0.1210  0.2115  0.1326
24125W        W39934   4.435  16.658  10.633 -0.1982 -0.4667  0.4468
24126W        W39935   1.933  14.796  14.580  0.0918 -0.0563 -0.1323
24127W        W39936   7.234   3.606  12.108 -0.0776  0.0696 -0.0684
24128W        W39937   1.155   6.389  13.217  0.0290 -0.1940  0.1020
24129W        W39938  12.311   2.534   4.006  0.0499  0.0570  0.0465
24130W        W39939   6.087   3.213   1.886  0.0643  0.0962  0.2166
24131W        W39940   9.188  11.624   2.301 -0.1057  0.0487  0.1503
24132W        W39941  12.400  15.856   2.783 -0.3218  0.0026  0.0433
24133W        W39942  12.695   7.310  13.376 -0.1743 -0.4401 -0.0613
24134W        W39943   1.645   4.561   0.837 -0.4014  0.1823  0.0307
24135W        W39944   9.256   6.782  12.765 -0.0402 -0.1309 -0.0640
24136W        W39945   3.171   5.915   3.922 -0.0571  0.1231  0.1481
24137W        W39946  15.680  16.486   3.937 -0.0605  0.0790  0.0217
24138W        W39947   0.319   6.373  13.613  0.0587 -0.0575 -0.0186
24139W        W39948  18.586   9.265   4.215 -0.3056 -0.1518  0.2698
24140W        W39949   0.168   6.888  15.137  0.0933 -0.1923 -0.1230
24141W        W39950   3.463   5.122   3.284 -0.1005  0.0886 -0.0643
24142W        W39951  15.888   1.242  15.266  0.1100 -0.1254  0.0546
24143W        W39952  12.888   2.207   1.787  0.1168  0.0321  0.3278
24144W        W39953   3.804   2.415  15.041 -0.3611 -0.1756 -0.0774
24145W        W39954   6.350  16.650  13.556 -0.1811  0.0655  0.0526
24146W        W39955  13.010   8.113  14.416 -0.0688 -0.0560  0.1166
24147W        W39956   7.284   5.808   3.136  0.0439  0.0621  0.1828
24148W        W39957   9.712  15.460  14.275 -0.0095 -0.0221  0.1650
24149W        W39958  17.127  11.887   4.672  0.0826 -0.0162  0.1519
24150W        W39959  11.378  12.554  12.518  0.0158  0.1095 -0.0289
24151W        W39960   5.910  12.279  11.253 -0.1902  0.0292 -0.2064
24152W        W39961   7.066  13.013   9.572 -0.0400  0.3680 -0.5194
24153W        W39962  12.158   0.970  15.031  0.1161 -0.0561  0.0752
24154W        W39963   9.368  12.432   4.315 -0.2752  0.2399  0.0590
24155W        W39964  13.334   8.614   0.567  0.4681  0.0671  0.3287
24156W        W39965  10.866  14.925  11.661  0.1320  0.2560  0.2054
24157W        W39966  18.432  15.640   3.136 -0.3168  0.2206 -0.2766
24158W        W39967  10.119  15.726   2.212 -0.0231 -0.1802  0.0904
24159W        W39968   1.718  13.884   5.451  0.1289 -0.2845 -0.1495
24160W        W39969   9.580   5.192  14.383  0.0338 -0.1242  0.0234
24161W        W39970   7.765  17.797  13.544 -0.1200  0.1872  0.0262
24162W        W39971   5.607   2.302  13.902 -0.3142 -0.1558  0.0448
24163W        W39972   7.436  11.126  14.632  0.2810 -0.0729 -0.1972
24164W        W39973  10.297   0.672  13.634 -0.0653  0.2160  0.1532
24165W        W39974   1.067  16.884   1.684 -0.0420 -0.1368 -0.3547
24166W        W39975  12.693  17.200  13.234 -0.2539 -0.3425 -0.0596
24167W        W39976   5.554  14.110   4.785 -0.0366 -0.3297 -0.1984
24168W        W39977  15.902  15.198  11.784 -0.1029 -0.1546  0.2791
24169W        W39978   3.356  15.555  11.099 -0.1448 -0.0794 -0.1071
24170W        W39979  12.391  13.238  13.711 -0.2580 -0.1042 -0.0305
24171W        W39980  17.986   2.481   3.626  0.3406  0.0570 -0.2759
24172W        W39981   3.617  17.390   2.623  0.3490  0.1243  0.1258
24173W        W39982   7.729  11.314   9.567 -0.0346 -0.1657  0.1042
24174W        W39983  13.624   5.417   2.716 -0.0165 -0.2663 -0.0518
24175W        W39984  17.005   5.999   4.230  0.0052 -0.1212  0.1613
24176W        W39985  14.593  17.242   6.065 -0.0794 -0.0419  0.1548
24177W        W39986   9.202   7.264  10.866  0.1528 -0.0276 -0.1680
24178W        W39987  15.091   6.725   1.122  0.0995 -0.0568  0.1282
24179W        W39988   9.158   3.144   4.772 -0.1207  0.1106  0.4248
24180W        W39989   1.838   2.618   2.050 -0.3807 -0.1585 -0.2264
24181W        W39990  13.297   2.045  13.573 -0.2325  0.0652 -0.1296
24182W        W39991   4.022   7.017   2.127  0.2855  0.0662  0.2108
24183W        W39992   2.354   1.641  11.336 -0.2124 -0.4719  0.1969
24184W        W39993  14.804   4.503   0.328  0.2162 -0.3719  0.0409
24185W        W39994   8.247  15.760   0.924 -0.1933  0.3969  0.2442
24186W        W39995  12.584  17.181   2.099 -0.1948  0.0072  0.0781
24187W        W39996   6.046  13.781   3.116 -0.0859  0.1911  0.1590
24188W        W39997   8.560  15.027   3.374  0.0509 -0.1493  0.1234
24189W        W39998  17.354  10.977  14.068  0.3518  0.0325 -0.1869
24190W        W39999  10.955  10.393  11.139 -0.3514 -0.2128  0.0586
24191W        W40000  13.285  10.398   1.652 -0.1032  0.1355 -0.3042
24192W        W40001  12.200   7.642   3.066 -0.2728 -0.1008 -0.3825
24193W        W40002  14.909   0.542  11.924 -0.0518  0.0802  0.1347
24194W        W40003   9.729   2.219   3.005  0.1306 -0.0127  0.2481
24195W        W40004  11.512   7.758   2.544  0.0732  0.0094  0.3737
24196W        W40005  10.723  14.814   5.313  0.1289  0.0314 -0.1946
24197W        W40006   4.415  12.992   2.162 -0.0835 -0.2780 -0.2323
24198W        W40007   4.138  18.252   0.929  0.0553 -0.0509  0.1964
24199W        W40008  17.497  10.923  15.241  0.0831  0.2004 -0.1771
24200W        W40009  15.137   5.180  15.477 -0.2966 -0.1084  0.2570
24201W        W40010   0.727  13.779  15.375 -0.1496 -0.2503  0.0147
24202W        W40011  12.581  12.857   9.752  0.0682  0.0624  0.0341
24203W        W40012  10.765  15.098  12.650  0.0069  0.2763  0.0108
24204W        W40013   6.937   6.211   2.392  0.1393  0.0474  0.0255
24205W        W40014   9.602   0.180  11.496 -0.1903 -0.0515 -0.1372
24206W        W40015   9.631   3.513   4.083 -0.0929 -0.1888  0.3044
24207W        W40016   6.768   2.016   4.295  0.2566 -0.2547  0.1817
24208W        W40017  11.026   2.138   2.952  0.3082  0.1000  0.0877
24209W        W40018  11.670  11.422   0.463  0.0101 -0.0750  0.1494
24210W        W40019  14.851   1.774  11.312 -0.0586 -0.0508  0.0416
24211W        W40020  16.157  17.463   4.133  0.1206 -0.0515  0.0279
24212W        W40021  16.297  16.462   0.157 -0.1845 -0.2051  0.3622
24213W        W40022   2.045  12.282   0.027 -0.0324 -0.1533  0.2144
24214W        W40023   5.402  10.401   5.545 -0.0209  0.1888 -0.2798
24215W        W40024  12.920  14.221   0.285 -0.0809 -0.0951  0.1763
24216W        W40025   8.988  16.886  15.373 -0.1512 -0.0557  0.0395
24217W        W40026   0.453   1.169  14.454 -0.0658 -0.0860 -0.0287
24218W        W40027   5.456   4.107  11.743  0.2568  0.0342 -0.1354
24219W        W40028  11.309  13.069  12.514 -0.0032  0.0096 -0.1429
24220W        W40029   2.100   0.963  14.787 -0.0069 -0.4632 -0.0735
24221W        W40030   3.395   8.496   1.239 -0.0146  0.0763 -0.2012
24222W        W40031  18.018   5.628   1.718  0.1858  0.0530  0.4304
24223W        W40032   8.581  16.133   5.160 -0.2107 -0.0671  0.0290
24224W        W40033   6.913   6.967   5.934 -0.0834  0.0268  0.0968
24225W        W40034   9.683  13.406   1.639  0.1248  0.0833  0.1009
24226W        W40035   1.892  10.305   2.899 -0.0284  0.1998 -0.3135
24227W        W40036  14.187   2.455   3.025  0.1073 -0.3898 -0.1164
24228W        W40037   8.979   6.700  12.338  0.3266 -0.1735  0.0302
24229W        W40038  13.494   9.230   9.881  0.0178  0.1848 -0.1477
24230W        W40039   5.436   8.749  11.127 -0.3093  0.1488 -0.1492
24231W        W40040   1.518   0.044   2.160 -0.4518  0.1226 -0.3438
24232W        W40041  11.845  14.720  15.176 -0.3621  0.0940  0.1979
24233W        W40042  12.394   2.058   1.698 -0.3070 -0.0865 -0.3515
24234W        W40043   6.735  16.627   2.202  0.2266 -0.0690  0.1000
24235W        W40044  10.263  12.741   4.839 -0.1322  0.0141  0.0649
24236W        W40045  10.300   5.065   4.129  0.0824  0.2569  0.1011
24237W        W40046  17.307   1.298   3.913 -0.1419  0.1842 -0.0463
24238W        W40047  11.788  16.349  14.688 -0.0226  0.0300  0.1764
24239W        W40048   3.069   3.719  15.436  0.0384  0.0385  0.2012
24240W        W40049  11.213  15.828  12.928 -0.1638  0.1950 -0.0139
24241W        W40050   8.158   9.000   4.098  0.0870 -0.1923  0.1266
24242W        W40051  16.824  13.840   9.885  0.4648 -0.2564 -0.0827
24243W        W40052  11.402   5.839  12.423  0.0093  0.0695  0.3170
24244W        W40053  16.702  15.876  13.213 -0.1243  0.0671  0.4812
24245W        W40054  15.022  12.444  12.273  0.0497  0.0977  0.0927
24246W        W40055   6.977   9.163   1.520 -0.4051 -0.1957 -0.0746
24247W        W40056  10.500  12.915   2.766  0.0625 -0.3236 -0.0069
24248W        W40057   2.478  18.515  12.172 -0.0137  0.0551  0.2263
24249W        W40058   7.571   9.461  15.182 -0.0848  0.4800 -0.1011
24250W        W40059  16.159  14.394  14.413  0.0865  0.2553  0.1556
24251W        W40060  18.270   8.478  15.348  0.0944  0.1089  0.2668
24252W        W40061  11.064   9.428   1.061  0.0464 -0.2518 -0.1571
24253W        W40062   9.139   0.010   0.971  0.2001  0.1186  0.0331
24254W        W40063  11.785  11.995   2.284 -0.1404 -0.3073  0.0088
24255W        W40064   3.730   5.203  14.905 -0.0178 -0.4981 -0.0007
24256W        W40065  15.261   1.583  11.531 -0.4567  0.0879  0.1006
24257W        W40066   4.491  13.165  12.241 -0.1094 -0.1616  0.0509
24258W        W40067  15.458   4.709   3.489  0.0817  0.2303  0.2773
24259W        W40068   3.940   7.002  12.310 -0.1631 -0.0437  0.0250
24260W        W40069  17.323  17.368   5.184  0.0883 -0.2279  0.0001
24261W        W40070  17.476  18.378  11.719  0.0827 -0.3669 -0.2487
24262W        W40071  18.438  18.047  12.022 -0.0934 -0.2152  0.1603
24263W        W40072  11.942  14.706   2.728 -0.3609 -0.1181  0.2683
24264W        W40073   0.521  14.776   2.852  0.6091  0.4598  0.0488
24265W        W40074  16.371  15.603  11.040 -0.1733  0.0257 -0.0126
24266W        W40075   3.074   2.729   1.429  0.0185 -0.0324 -0.0778
24267W        W40076   2.177  16.476   1.788 -0.1743 -0.0877  0.0453
24268W        W40077   9.592  10.273  15.603 -0.1655  0.1419  0.0152
24269W        W40078   7.631   2.246   1.902  0.1212  0.1018 -0.4752
24270W        W40079  17.596   9.474  15.180 -0.1316 -0.1084  0.1092
24271W        W40080  13.214  16.256  14.915 -0.0382  0.1006  0.1661
24272W        W40081   4.592  15.047   5.417 -0.2037 -0.1563 -0.2786
24273W        W40082   3.648  15.346  13.202 -0.2850  0.1489  0.0137
24274W        W40083  13.413   7.401   3.148  0.0093 -0.2066 -0.3810
24275W        W40084   6.296   0.711   2.463 -0.0848 -0.2611  0.0244
24276W        W40085  12.834  14.697  11.904  0.2087 -0.0299 -0.3359
24277W        W40086  16.200   6.857  13.179 -0.0973  0.2419 -0.0585
24278W        W40087   8.769  12.059  12.434 -0.0832  0.0250  0.2376
24279W        W40088  11.074   0.575   4.602  0.1302  0.1248 -0.1474
24280W        W40089  18.482  18.414   4.322 -0.0894 -0.0737 -0.0592
24281W        W40090   3.380   5.250  13.846 -0.1352  0.0408  0.1263
24282W        W40091  11.752  10.362  13.322 -0.0285 -0.0022 -0.0299
24283W        W40092  13.394  11.321   3.672 -0.1894 -0.0602 -0.0981
24284W        W40093   1.146   7.736   9.544 -0.3073 -0.0117  0.1016
24285W        W40094  18.564  15.102  13.546  0.0940  0.1604  0.2434
24286W        W40095   6.400   2.846   1.981 -0.1256 -0.0130  0.1332
24287W        W40096  10.964   8.549   2.490 -0.0594  0.1400 -0.0862
24288W        W40097  17.642   3.967  10.915  0.1507  0.1332 -0.0894
24289W        W40098   3.325  11.805   4.640  0.1240  0.1438  0.1349
24290W        W40099   2.105   6.076  15.327  0.4066 -0.2351 -0.2132
24291W        W40100   6.428  10.220   3.703 -0.0573 -0.1205  0.0671
24292W        W40101  16.832   5.722  15.179  0.0734 -0.1558 -0.3591
24293W        W40102   7.316  15.747  14.106  0.1680 -0.1526  0.2191
24294W        W40103   6.268  14.431   0.557  0.1300 -0.4760 -0.2179
24295W        W40104  12.687  16.367   5.103 -0.0742  0.1718 -0.0429
24296W        W40105  17.608  17.128  11.705 -0.1905  0.0698  0.0419
24297W        W40106   5.406   4.549  11.372 -0.1376 -0.0019  0.1393
24298W        W40107  13.195  12.510   4.978  0.2123  0.4573 -0.1208
24299W        W40108   1.176   3.815   0.844 -0.1287  0.1648  0.0045
24300W        W40109   4.375  17.531  11.450  0.2123  0.0322  0.3873
24301W        W40110   4.640   8.880  12.501 -0.4228  0.0386 -0.0197
24302W        W40111   1.790  12.837  13.994 -0.1394  0.0058  0.1292
24303W        W40112   6.443   1.693  13.313  0.3436 -0.2567  0.2861
24304W        W40113  13.329   9.789   2.113  0.0165 -0.4048  0.1972
24305W        W40114   6.055   3.221   3.583  0.1558  0.2204  0.0633
24306W        W40115  11.331   8.943   3.285 -0.3023  0.0710 -0.5496
24307W        W40116  15.629   1.872  13.103  0.1147 -0.0015 -0.0568
24308W        W40117  13.554   8.637  14.964 -0.0795 -0.2417 -0.0671
24309W        W40118   6.501  14.888   3.768  0.0700 -0.1777 -0.1719
24310W        W40119  10.559  13.364  15.594  0.1715  0.1677 -0.2396
24311W        W40120  16.455   4.529  13.296 -0.3510 -0.0731  0.0177
24312W        W40121   9.328  12.910  12.707  0.0648  0.0737  0.0276
24313W        W40122  12.217   4.517   5.486  0.4056  0.2778 -0.0785
24314W        W40123   1.621  11.516  13.330 -0.2008  0.1843  0.2629
24315W        W40124  15.603   0.762   3.038  0.0420 -0.0503 -0.0202
24316W        W40125  12.618  14.431   0.695  0.0586 -0.1020 -0.0255
24317W        W40126   0.126  13.071   1.791  0.1094  0.0241  0.0995
24318W        W40127  15.457  11.013   2.907 -0.1840  0.2108  0.1346
24319W        W40128  15.763  17.968  12.077  0.4468  0.3740  0.1814
24320W        W40129   5.884   8.461   4.442  0.3059  0.2116  0.2984
24321W        W40130   0.021   5.271  15.331  0.0356 -0.1654  0.1888
24322W        W40131   4.504  14.876   4.392  0.5218 -0.0017  0.2180
24323W        W40132  13.437   1.113   2.065  0.1349  0.2404 -0.0708
24324W        W40133  17.029  18.302  12.952 -0.0100  0.0422 -0.0126
24325W        W40134  11.259   0.429  14.488  0.2742  0.1241  0.0680
24326W        W40135  12.418   3.338   5.090 -0.2111  0.5164  0.2146
24327W        W40136  17.632  18.315  14.688 -0.4931  0.1828  0.1937
24328W        W40137   8.564  14.142   3.134 -0.0507  0.1315  0.2650
24329W        W40138  17.255   5.530  12.990 -0.1224 -0.0454  0.2159
24330W        W40139   3.077   3.002  12.907 -0.1805 -0.1882 -0.2198
24331W        W40140  14.060  17.835  13.262 -0.1093  0.0698  0.2523
24332W        W40141  14.580   9.073   2.102  0.1216  0.0826  0.2410
24333W        W40142   8.084   6.407   4.881  0.1427 -0.2334 -0.1188
24334W        W40143   9.291  14.867   5.307 -0.0231  0.4377  0.0591
24335W        W40144   4.670  11.912   3.021  0.1577  0.1573 -0.0122
24336W        W40145  18.346   6.203   2.930 -0.3280  0.0039  0.3146
24337W        W40146  11.059   7.535   3.798  0.0179  0.2417 -0.0829
24338W        W40147   7.772  12.720  14.325  0.2263 -0.2494 -0.0054
24339W        W40148  18.024  13.624   2.513  0.1519 -0.1585 -0.0863
24340W        W40149   5.556   5.415  13.495 -0.4269  0.0362  0.0924
24341W        W40150  15.348   5.406  10.473 -0.0046  0.3261 -0.0920
24342W        W40151  12.239  12.791  13.952 -0.1511 -0.2393  0.0337
24343W        W40152  16.974   2.620  13.619  0.1756  0.2694  0.0749
24344W        W40153   8.797   5.442  12.404 -0.2225  0.2343 -0.3640
24345W        W40154  16.936  11.193   0.831 -0.0543  0.2818 -0.1833
24346W        W40155  11.649  12.608  14.279 -0.2642 -0.0588 -0.1429
24347W        W40156  18.652   9.449   1.317 -0.0319  0.0434  0.3666
24348W        W40157  11.584  13.624   1.822  0.1595  0.3516  0.1155
24349W        W40158   3.328   0.772  11.340  0.0542 -0.0124 -0.3745
24350W        W40159   3.643  13.587   4.669 -0.0569  0.2636 -0.1196
24351W        W40160  14.601  14.459  12.750 -0.5113  0.2100 -0.0537
24352W        W40161   3.376   0.361   3.799 -0.4173 -0.0311 -0.0734
24353W        W40162  12.104   4.891  13.309  0.1938 -0.0532  0.0853
24354W        W40163  14.920  16.467  11.161 -0.1085 -0.3269  0.1358
24355W        W40164  12.840   7.711   3.793 -0.2443 -0.0508  0.1066
24356W        W40165  16.822   2.484  11.553 -0.2543 -0.0336 -0.0846
24357W        W40166   2.537   7.710   2.343 -0.1760  0.0807 -0.2076
24358W        W40167  15.253   4.611  13.929  0.1054  0.0720  0.1268
24359W        W40168  15.313   6.596  10.428 -0.2609  0.1742  0.0133
24360W        W40169   1.493   5.607  12.552 -0.2027  0.1470 -0.1827
24361W        W40170  15.455   7.093  11.301  0.1835 -0.2925  0.0046
24362W        W40171  13.203  12.468   3.618 -0.2257 -0.1622 -0.2318
24363W        W40172   4.307  14.409   4.188  0.0531  0.2288  0.2838
24364W        W40173  11.748   5.064   3.108  0.3489  0.2364 -0.1047
24365W        W40174   6.676   7.911  11.639  0.0165 -0.0704  0.1840
24366W        W40175   0.042   3.322  10.738 -0.0997 -0.0670  0.2517
24367W        W40176   5.746  15.393   4.090 -0.0670 -0.4044  0.2958
24368W        W40177  11.836  11.897  14.275  0.0389  0.1070  0.3113
24369W        W40178   1.433   4.082   3.898  0.4525  0.0112 -0.2607
24370W        W40179   6.004  16.653   0.707 -0.1560 -0.1123 -0.0131
24371W        W40180   1.279   4.602  15.578 -0.3015  0.2672 -0.0158
24372W        W40181   8.767  13.953   0.835 -0.0426 -0.5547 -0.3407
24373W        W40182   7.125  16.228   2.296  0.2311 -0.0373 -0.0327
24374W        W40183  16.910  12.670   1.998  0.2285 -0.0091 -0.0052
24375W        W40184  11.425   4.083   2.224  0.1229  0.0298  0.1413
24376W        W40185  14.003  15.829   3.580  0.3788 -0.1913 -0.0759
24377W        W40186   2.241  15.415   5.405 -0.1789 -0.0511 -0.0382
24378W        W40187   0.302  15.848  12.370 -0.0653 -0.2233  0.0003
24379W        W40188   9.440   1.365   3.990 -0.0174 -0.1042  0.1814
24380W        W40189   5.025   2.945  13.151 -0.1878 -0.2298 -0.2897
24381W        W40190  15.909  13.061  13.041  0.2035  0.2851  0.0012
24382W        W40191  11.164   9.774   3.717 -0.0212 -0.0749 -0.3602
24383W        W40192   1.363  13.044  10.454  0.0602 -0.1064  0.3746
24384W        W40193   7.173   6.350  13.072  0.2145 -0.2193 -0.1097
24385W        W40194  10.855  16.961  13.952 -0.0572 -0.1982 -0.2863
24386W        W40195   7.842  12.785   0.276  0.1677  0.0033  0.1162
24387W        W40196   5.583   6.676  15.206  0.3107 -0.0285  0.0597
24388W        W40197  18.111  18.048  14.565  0.0792 -0.0617  0.0718
24389W        W40198   6.890  18.543   9.977 -0.3583  0.3767 -0.0242
24390W        W40199   7.529   4.506  13.508 -0.0095 -0.0202 -0.1176
24391W        W40200  18.052   7.068  15.025  0.0328  0.0042  0.1848
24392W        W40201   7.393   9.418   1.699 -0.3214 -0.0762  0.1347
24393W        W40202   7.199  15.551   4.154  0.0129 -0.1087  0.0512
24394W        W40203   4.310  15.990   3.005 -0.0620  0.4331  0.0745
24395W        W40204   9.366   8.999  11.000 -0.1342 -0.1412 -0.0080
24396W        W40205   5.035   6.027  15.379  0.0177  0.0815  0.0919
24397W        W40206  10.303  17.539  13.291 -0.2321  0.0103  0.0422
24398W        W40207  16.481   8.690  10.619 -0.1092 -0.1747  0.1361
24399W        W40208   2.567   2.416  13.256 -0.0087  0.3168  0.2470
24400W        W40209   6.200   7.895  12.349 -0.2926 -0.1404  0.4499
24401W        W40210  14.398  14.872   1.516 -0.0475  0.1175  0.1770
24402W        W40211   0.791  16.076  11.712 -0.1913  0.1405  0.0232
24403W        W40212   1.482  17.188   4.058  0.1573 -0.0981  0.0514
24404W        W40213   5.185   4.789  13.213 -0.2333 -0.0798  0.3552
24405W        W40214  18.092   8.272  13.744 -0.0037  0.0613 -0.0258
24406W        W40215   6.110   6.365   1.848  0.0307  0.1510  0.0409
24407W        W40216   3.725  12.816   5.396 -0.4122 -0.0551 -0.1330
24408W        W40217  10.822   8.119   4.763 -0.2858 -0.2357  0.2357
24409W        W40218  18.262   5.405   5.028 -0.2107 -0.4195 -0.0387
24410W        W40219  18.472   6.973   1.478  0.0377 -0.0981 -0.1895
24411W        W40220   7.636  12.214   3.459  0.0502  0.0432 -0.1240
24412W        W40221   0.344  13.950   1.326 -0.0114 -0.2198 -0.0230
24413W        W40222  14.664  17.399  15.258  0.0899 -0.2627 -0.0435
24414W        W40223  11.914  16.613  11.659  0.1431 -0.0075 -0.1199
24415W        W40224   2.020   5.941   0.988  0.3815 -0.0046 -0.0590
24416W        W40225   9.029   8.764   0.202 -0.2598 -0.0684 -0.0555
24417W        W40226   1.865  14.536  12.071 -0.2568  0.0929  0.1378
24418W        W40227   2.337   4.532  11.992  0.0315 -0.4307 -0.0764
24419W        W40228  15.508  15.181   2.811 -0.0871  0.0142  0.0837
24420W        W40229  11.863  17.978  14.080  0.1075  0.0786  0.0390
24421W        W40230   2.730  13.757  14.263 -0.3042  0.0766 -0.2696
24422W        W40231   6.417   1.552  11.795  0.0273  0.0968  0.2219
24423W        W40232   1.131   0.366  13.228  0.0956  0.5164  0.0418
24424W        W40233  14.761  18.239  14.366 -0.0753  0.4209  0.1334
24425W        W40234   3.608  10.049   2.648 -0.0311 -0.1249 -0.2102
24426W        W40235   0.769   6.666   1.369 -0.0862 -0.0831 -0.0245
24427W        W40236   8.847   9.427   4.625  0.1381 -0.0805 -0.3035
24428W        W40237   9.772  14.585   3.570  0.2042  0.2566  0.0215
24429W        W40238  10.916   3.610   3.390  0.0020 -0.1976  0.1815
24430W        W40239   9.670  14.918  12.503  0.1906 -0.1511 -0.0132
24431W        W40240  13.538   7.299  14.789  0.0986 -0.1791 -0.0692
24432W        W40241  10.300   6.708  13.440  0.1981  0.1970 -0.1115
24433W        W40242  13.000  11.580  14.859  0.1436  0.2714 -0.1666
24434W        W40243  13.641   0.645  11.636 -0.1568 -0.0808 -0.1711
24435W        W40244   9.710   8.877  12.571 -0.3092  0.0242  0.0890
24436W        W40245  12.866   6.333  13.467 -0.0793  0.4101 -0.0729
24437W        W40246  12.724  12.918  13.581 -0.1777 -0.0578 -0.0414
24438W        W40247   2.213   5.926   1.838  0.0348 -0.1129 -0.0949
24439W        W40248  15.940   3.341  11.687  0.1898  0.0591  0.1120
24440W        W40249  16.052  13.586   2.633 -0.0557  0.3921  0.2360
24441W        W40250  16.308   2.778  14.279 -0.1707  0.0152 -0.1211
24442W        W40251  14.715  15.041   3.408 -0.1760 -0.0453  0.1361
24443W        W40252   8.796  12.923   5.430  0.2306 -0.2896 -0.0790
24444W        W40253   5.218   5.942   1.854  0.3279 -0.1419  0.4485
24445W        W40254   2.498  16.457  12.241  0.0465 -0.2615  0.0684
24446W        W40255   0.311  10.950   2.040  0.1373 -0.2117 -0.4287
24447W        W40256  16.030   0.289  12.438  0.4598  0.0754  0.0523
24448W        W40257   2.519   7.420   2.770  0.2831  0.0689 -0.2379
24449W        W40258  18.657  16.094   0.147  0.1888 -0.0036 -0.2141
24450W        W40259   0.760   6.057  11.740 -0.1261 -0.0261  0.3388
24451W        W40260  17.943   5.224   2.089  0.2628  0.3300  0.1508
24452W        W40261   8.482  12.064   0.187  0.0241 -0.1728 -0.0008
24453W        W40262   6.827  18.410  11.020 -0.0896  0.0219  0.0092
24454W        W40263   7.689   1.755   1.864  0.0949  0.1789 -0.3583
24455W        W40264   0.295  10.468   3.929  0.0029 -0.3568  0.3056
24456W        W40265   3.316  12.591  15.457 -0.0048  0.2476  0.1039
24457W        W40266   3.485  13.595   4.003  0.1446 -0.0890  0.0033
24458W        W40267  16.574   6.281   3.954  0.1891  0.0943 -0.2796
24459W        W40268  14.317  16.586  14.411 -0.5199  0.0336 -0.3222
24460W        W40269  14.514  18.245  11.683  0.2128  0.0584  0.0889
24461W        W40270  16.711   7.433  10.455 -0.0253 -0.3266 -0.1093
24462W        W40271  13.650   6.406  14.103  0.2080  0.1259 -0.4267
24463W        W40272   9.090   3.135  12.319  0.3248  0.0344  0.0533
24464W        W40273   3.952   0.864  10.665  0.0604  0.0289  0.4019
24465W        W40274  10.279  18.009  15.117 -0.1451  0.1017  0.3959
24466W        W40275  10.895  11.875   0.158 -0.0655 -0.2072  0.0212
24467W        W40276   1.324   4.077  14.083 -0.1720  0.2369 -0.2155
24468W        W40277  10.770   3.393   1.553  0.2525  0.0932 -0.1013
24469W        W40278   0.056  11.109   2.410  0.0338  0.1853  0.2185
24470W        W40279   1.549  16.650   4.788 -0.1222 -0.0987  0.0839
24471W        W40280  16.914  16.163  14.297 -0.0006 -0.2737 -0.2136
24472W        W40281   5.244  10.773  11.272  0.0803 -0.0673 -0.2352
24473W        W40282  12.481   5.404  11.899  0.1194  0.1071 -0.1410
24474W        W40283   5.975  11.031   3.363  0.0347 -0.0089 -0.1659
24475W        W40284   1.272  13.868   5.230  0.0646 -0.2313  0.2180
24476W        W40285   0.032   4.047   1.636 -0.1108 -0.1255 -0.0082
24477W        W40286  13.271  10.990  11.152 -0.0412  0.0425 -0.2056
24478W        W40287  15.938  15.732  12.822  0.1705 -0.0130 -0.3654
24479W        W40288  11.265   9.642   4.982 -0.1624 -0.0731  0.0885
24480W        W40289   5.665  13.431   3.050 -0.5463 -0.4025  0.0544
24481W        W40290   4.413   2.379  12.138  0.0452  0.1767  0.0626
24482W        W40291  13.130  13.323  14.855  0.2041 -0.3040 -0.0437
24483W        W40292  11.055  11.031   2.371 -0.1393 -0.2409  0.2382
24484W        W40293   4.681   9.688   0.203 -0.2251 -0.1033  0.3054
24485W        W40294  14.570   5.201  14.207  0.2733 -0.1225  0.0068
24486W        W40295   7.186   2.715   0.146 -0.2251 -0.0141  0.0265
24487W        W40296   3.147   9.636   1.925 -0.0121 -0.1617  0.2371
24488W        W40297  12.329   3.768   3.622  0.0578 -0.2913  0.2940
24489W        W40298   5.539  13.958  11.043  0.2361  0.0560  0.2424
24490W        W40299  11.903   0.868   4.167 -0.0569 -0.0115  0.0150
24491W        W40300  17.764   8.667   2.961  0.0376  0.2218 -0.2615
24492W        W40301   4.381  10.563  14.092  0.2080 -0.0804  0.0588
24493W        W40302   7.050   3.158  12.423 -0.1585 -0.2727 -0.0974
24494W        W40303   3.125  14.188  13.150 -0.1183 -0.1055 -0.2346
24495W        W40304   6.453  15.055  15.017 -0.1894  0.0279 -0.0224
24496W        W40305  18.379   9.456   3.012 -0.2821  0.1845  0.0471
24497W        W40306  14.006   0.543   5.102 -0.2600  0.1295  0.2847
24498W        W40307  13.362   7.721  15.068  0.0048  0.2883 -0.2533
24499W        W40308  18.310  13.701  11.641 -0.3070 -0.0274  0.2593
24500W        W40309  13.495   8.366  13.700 -0.3492  0.1477 -0.1709
24501W        W40310  12.158  13.746   1.783  0.0334 -0.0795 -0.0487
24502W        W40311   6.133   4.088  12.622  0.0506 -0.0551  0.0527
24503W        W40312   0.092  17.561  14.435  0.0825 -0.3521  0.0916
24504W        W40313   4.469  17.808  14.791  0.2323  0.0347 -0.1923
24505W        W40314  14.945   7.393   0.281 -0.0570 -0.1457  0.0389
24506W        W40315  17.684  11.823   4.896 -0.2899 -0.1948  0.3239
24507W        W40316  14.812   6.321   2.976  0.0555 -0.3784 -0.0565
24508W        W40317   3.920  10.192   1.393  0.2023 -0.2167 -0.2203
24509W        W40318   8.671   8.845   4.595 -0.3303 -0.0412 -0.2704
24510W        W40319   1.926   1.770  12.540 -0.0351  0.3423  0.1893
24511W        W40320   4.825  11.379  10.485 -0.1769  0.0559 -0.1348
24512W        W40321   8.514   5.862   4.071 -0.0465  0.2037 -0.1775
24513W        W40322   1.907  10.650  12.431  0.2104  0.1209 -0.0154
24514W        W40323  18.420  14.574  15.298  0.0507 -0.0829  0.1687
24515W        W40324  10.885   0.333   5.245  0.0274 -0.0072  0.1108
24516W        W40325  10.737   8.416  11.056  0.2190 -0.0671 -0.3562
24517W        W40326   0.159  16.726   9.926 -0.0538  0.1005  0.0558
24518W        W40327  11.273   2.631   1.719  0.1313  0.0352 -0.1024
24519W        W40328   6.839  16.382   2.700 -0.1199 -0.1560 -0.3772
24520W        W40329   1.923   0.046  12.988  0.2198  0.1543 -0.2654
24521W        W40330   6.781   2.947  10.297 -0.2234 -0.1618  0.4092
24522W        W40331   3.724   0.546  11.586 -0.0035  0.1402 -0.2614
24523W        W40332   5.802  14.474  14.374 -0.1715  0.1760 -0.0273
24524W        W40333   0.421  16.093   3.085 -0.1362 -0.0919  0.1269
24525W        W40334  13.540  14.814   3.871 -0.2511  0.2141  0.2509
24526W        W40335   6.716   4.268  13.390 -0.0457  0.0367 -0.1826
24527W        W40336  13.838  17.467   3.473  0.2221 -0.1487  0.1630
24528W        W40337  10.837  12.990   0.921 -0.3087 -0.0557 -0.4049
24529W        W40338   8.915   9.787  15.277 -0.0988  0.2667 -0.2232
24530W        W40339   3.413   3.807  11.597  0.1445 -0.1556  0.1013
24531W        W40340  17.816  16.059  15.202  0.0458 -0.0553  0.3325
24532W        W40341  10.080  16.364  12.615  0.1829  0.0771  0.1303
24533W        W40342  10.700   2.679  12.536  0.2096 -0.1263 -0.1232
24534W        W40343  13.396  10.020   0.448 -0.0456  0.0106  0.2267
24535W        W40344   6.530   2.090  11.967  0.1552  0.0328  0.0267
24536W        W40345  11.416   1.321   4.411 -0.0806  0.0273 -0.0497
24537W        W40346  13.836  18.087   4.061  0.2111  0.0977  0.4294
24538W        W40347   8.539  10.977   0.363  0.0039  0.4158  0.1503
24539W        W40348   7.226   7.538   0.775 -0.0001 -0.0081  0.0484
24540W        W40349  13.045  11.528  11.065 -0.2278 -0.2035  0.0033
24541W        W40350  13.368   6.589  11.488  0.0558 -0.2370 -0.0611
24542W        W40351  17.220  17.597   4.773  0.3233 -0.0080 -0.0379
24543W        W40352   6.168   4.686   9.890 -0.1778 -0.0358 -0.0065
24544W        W40353   0.250  11.062  12.220 -0.2234  0.1131  0.0393
24545W        W40354   5.041   0.319  13.466  0.4346  0.0714 -0.0467
24546W        W40355  12.604   7.213   0.953 -0.0224  0.1038  0.3730
24547W        W40356   4.694   1.049  12.909 -0.1650  0.1407  0.1136
24548W        W40357  15.897   2.549  10.719  0.3062  0.0802 -0.0518
24549W        W40358  11.499  15.225   0.606 -0.2159  0.3960 -0.3188
24550W        W40359  12.264  15.146   0.274 -0.0039 -0.0162 -0.1999
24551W        W40360  13.110   1.796  12.683 -0.3561 -0.0227 -0.1952
24552W        W40361  13.151  10.831  12.404  0.1057 -0.1853  0.0670
24553W        W40362  18.658  13.888  11.915 -0.0336 -0.0351 -0.0954
24554W        W40363   4.155  17.670  11.919  0.3565 -0.0127  0.4228
24555W        W40364   1.068   6.488   3.936 -0.1475 -0.0036  0.0206
24556W        W40365  16.624  18.379  14.312 -0.2990 -0.0738  0.3282
24557W        W40366  12.811  17.999   1.944 -0.1738  0.0134  0.2192
24558W        W40367   4.946  17.258   4.150  0.0114 -0.0726  0.0407
24559W        W40368  18.133  16.375   3.291  0.2755 -0.0580  0.2533
24560W        W40369   3.813  14.135  11.101  0.1204  0.1173 -0.2930
24561W        W40370  17.604  15.792   0.245 -0.2697  0.3006  0.0509
24562W        W40371  16.946  11.053  13.191  0.3267 -0.0995 -0.0091
24563W        W40372  10.826   6.839   4.627  0.3302 -0.0256  0.1149
24564W        W40373   0.135   9.187  15.220 -0.0251  0.0286  0.0134
24565W        W40374  16.423  18.324   3.523 -0.0579 -0.1779  0.0058
24566W        W40375  13.864  17.364  14.328 -0.2228 -0.2725  0.0390
24567W        W40376   6.845   2.223  12.379 -0.0823  0.1216 -0.0665
24568W        W40377   5.157  15.089  11.097 -0.0389 -0.0020  0.1454
24569W        W40378  18.420  14.047   0.788  0.1858  0.0600  0.0374
24570W        W40379   8.063   6.881   4.788 -0.0496 -0.2040  0.1424
24571W        W40380  13.241   1.765   6.072 -0.0214  0.0772  0.0864
24572W        W40381   2.535   8.841  12.090  0.0569 -0.0736  0.0635
24573W        W40382   1.268   4.353  12.358  0.1155  0.0366  0.2444
24574W        W40383   5.187  17.911   2.752  0.1700 -0.0432  0.1275
24575W        W40384   7.637   8.141  11.689  0.1986  0.1882 -0.3892
24576W        W40385  10.859   0.186   0.090 -0.0894  0.1753 -0.1667
24577W        W40386   9.172   0.789   3.174 -0.2209 -0.1174 -0.4162
24578W        W40387   4.262  17.025  13.700 -0.0725 -0.2537 -0.0114
24579W        W40388   1.156   5.012  15.406  0.1130  0.0716  0.0751
24580W        W40389   5.058   0.488   2.224 -0.1899 -0.0397  0.0278
24581W        W40390  15.111  14.889  10.917 -0.0908 -0.0106  0.0693
24582W        W40391   4.830  16.081  14.403 -0.0832  0.0105 -0.1135
24583W        W40392  18.086   9.318   4.336 -0.0014 -0.1030 -0.3470
24584W        W40393   3.993   1.060  13.893 -0.2626  0.0932 -0.0579
24585W        W40394   8.670   3.004  11.164  0.2546  0.0343 -0.1196
24586W        W40395   7.244   3.267   5.520 -0.1263 -0.0529 -0.0378
24587W        W40396   5.140   3.686   9.871  0.1982 -0.1549 -0.0843
24588W        W40397  11.055  10.147   2.883 -0.0328 -0.0715 -0.0032
24589W        W40398   7.669  10.318  15.013  0.1173 -0.1799 -0.0415
24590W        W40399  11.511   2.837  15.194  0.1742 -0.1106 -0.1385
24591W        W40400  15.949  17.962  13.589  0.4022 -0.0296 -0.4308
24592W        W40401   7.950  11.917   0.526 -0.1447 -0.0405 -0.0075
24593W        W40402   9.791  11.016   1.697 -0.3016 -0.1355  0.1785
24594W        W40403  10.055   2.743  12.986  0.2060  0.0087  0.1885
24595W        W40404  13.234  15.818  14.662 -0.0319  0.2777 -0.2453
24596W        W40405  14.060  17.363  15.465 -0.1626  0.3723 -0.2644
24597W        W40406  11.856   8.381   1.335  0.1498  0.0413  0.1340
24598W        W40407  14.830   1.668   2.453  0.2747  0.4296 -0.2016
24599W        W40408   6.584   0.270   3.406  0.2651  0.0107  0.1285
24600W        W40409   5.159   2.698   2.063  0.2473  0.0305 -0.0326
24601W        W40410   0.068  16.709  13.785 -0.5474  0.0523 -0.1261
24602W        W40411  11.756  16.579  12.579 -0.0322  0.2555 -0.0156
24603W        W40412   1.181  15.824  15.068  0.0825 -0.1431  0.1284
24604W        W40413   5.644   7.211  11.843  0.3067 -0.2236 -0.4700
24605W        W40414  10.865   6.937  12.340 -0.3813 -0.0596  0.1541
24606W        W40415  17.425   6.501   0.289 -0.0551 -0.1406  0.3569
24607W        W40416   2.339  17.167  13.487 -0.2324 -0.0604  0.0162
24608W        W40417   7.510   2.635  15.097  0.0247 -0.0626 -0.1078
24609W        W40418  12.532   0.178  12.633 -0.0490  0.1875  0.1296
24610W        W40419   4.763   3.888  14.525  0.2974 -0.1913 -0.1268
24611W        W40420   1.553   6.648   0.399  0.0489  0.0046  0.2768
24612W        W40421  15.591   7.294   4.643 -0.3754 -0.1137 -0.1116
24613W        W40422  14.155  18.596   2.221 -0.1093  0.0411  0.1519
24614W        W40423  15.598  12.699   0.705 -0.0062  0.0875  0.0900
24615W        W40424  17.543   6.748  11.934  0.1738 -0.1603 -0.0650
24616W        W40425  12.538  11.391  14.153  0.2626  0.1275 -0.5777
24617W        W40426  15.627   4.224   4.355  0.1532 -0.1694  0.1831
24618W        W40427   2.966  14.697   5.817 -0.0301  0.2013  0.1775
24619W        W40428  11.232   4.581  10.933 -0.3748 -0.3483  0.3285
24620W        W40429   0.231   1.960   3.104  0.1236 -0.1419 -0.0834
24621W        W40430   1.609  11.539  12.072 -0.2444  0.0563  0.0657
24622W        W40431   5.704  16.315  12.018  0.1288 -0.1200  0.1054
24623W        W40432   3.847  12.748  15.561 -0.1686 -0.1761  0.1439
24624W        W40433  11.399   5.050   1.482  0.2158  0.4697  0.2163
24625W        W40434   6.818  15.554  11.897 -0.2640  0.0174  0.2364
24626W        W40435   0.097   1.137   3.671  0.3740 -0.2115 -0.1014
24627W        W40436   3.875  12.886  13.806 -0.1321 -0.0436  0.3036
24628W        W40437   7.701   1.039  15.000 -0.0758 -0.2225  0.0271
24629W        W40438  17.029   2.790  12.226  0.0762 -0.1040  0.1477
24630W        W40439   7.240  10.353   3.823 -0.0074 -0.0547  0.1419
24631W        W40440  14.243   0.938   3.124  0.1163 -0.0718 -0.1783
24632W        W40441   3.758   2.105  15.423  0.2676  0.0683  0.0553
24633W        W40442   4.442   4.740  11.124 -0.2628  0.0090 -0.0686
24634W        W40443  17.883  16.494   4.448  0.3150 -0.0083 -0.4685
24635W        W40444  13.550   4.131   3.021 -0.1790  0.1821  0.0685
24636W        W40445   5.100   0.299   2.814 -0.0529 -0.3373  0.0459
24637W        W40446  16.096   4.870   0.117 -0.0589  0.1925 -0.0391
24638W        W40447  15.051   5.367   4.767  0.1984  0.0240 -0.1179
24639W        W40448  12.298  17.919   1.075  0.0165  0.1065  0.2951
24640W        W40449  10.738  17.432  13.859 -0.2147  0.1120  0.0756
24641W        W40450   6.352   7.845  14.460 -0.1810 -0.2520 -0.1082
24642W        W40451   4.603  18.486   4.567  0.0284 -0.1319  0.0734
24643W        W40452   6.097  11.513  13.932 -0.0820 -0.1007 -0.2254
24644W        W40453  11.663   9.766  13.948  0.2455  0.1927  0.0837
24645W        W40454  17.602  13.250  15.615  0.2911 -0.3001  0.0082
24646W        W40455   2.588   7.410  12.207 -0.0146  0.0811  0.0211
24647W        W40456  15.265   0.631   0.888 -0.4189 -0.0786 -0.2343
24648W        W40457   8.151  13.295   3.389  0.0449 -0.4447  0.3491
24649W        W40458  16.144  15.089   5.043  0.1253  0.0674 -0.1920
24650W        W40459   6.110   0.142   1.603  0.0005 -0.2139 -0.1688
24651W        W40460  17.200  14.155  15.048  0.0749  0.0336  0.2617
24652W        W40461  13.153  13.976   3.271 -0.1656 -0.0130 -0.1725
24653W        W40462  18.146   6.653  11.088  0.0165  0.3362  0.0824
24654W        W40463   1.172   4.043  12.712 -0.1193  0.0585 -0.2704
24655W        W40464  11.360  15.146  11.328 -0.2621  0.1489  0.1236
24656W        W40465  12.934   8.619   3.267  0.0571  0.0767  0.1299
24657W        W40466  12.798  12.112  14.705  0.0056 -0.1032  0.0588
24658W        W40467   1.303  16.410   0.921 -0.1930  0.4466  0.1023
24659W        W40468   1.008   1.447  15.231  0.1423  0.2014  0.3181
24660W        W40469   5.288   2.638   2.696  0.0028  0.0536 -0.2015
24661W        W40470  12.375   4.078   5.606  0.1451 -0.1110  0.1991
24662W        W40471   0.640  12.586   3.886 -0.0300  0.2397 -0.1285
24663W        W40472  17.766   2.648   4.716  0.3154  0.0123  0.3659
24664W        W40473   4.743  12.945   0.167 -0.0099 -0.0582 -0.0197
24665W        W40474  18.477   1.088   4.189  0.1287  0.2735 -0.1510
24666W        W40475  13.936  17.154   2.718 -0.0169  0.1974  0.3196
24667W        W40476  12.875  10.412   2.870 -0.1283  0.0800 -0.4209
24668W        W40477   4.645  13.236   0.979 -0.1014  0.1069 -0.0856
24669W        W40478  14.223  12.928  10.041  0.4631 -0.1879  0.3904
24670W        W40479   3.118  10.016  10.154  0.0689  0.0832  0.2679
24671W        W40480   4.488   4.767   2.976  0.0351 -0.3071 -0.2016
24672W        W40481  11.955   5.057  13.763 -0.0564  0.1772  0.2348
24673W        W40482  12.154   1.032  14.283 -0.1454  0.0367 -0.4061
24674W        W40483   0.109   2.209   1.045 -0.2426  0.0772  0.0432
24675W        W40484   9.284   0.148   0.501 -0.0670 -0.0866  0.0990
24676W        W40485   6.506  10.880  13.335  0.0315  0.1997 -0.1425
24677W        W40486  17.678   4.779   3.446 -0.1548 -0.2132 -0.2152
24678W        W40487   7.587  12.713  11.679  0.0839  0.0503 -0.0718
24679W        W40488   5.324   3.929  10.804  0.1908 -0.1104  0.1158
24680W        W40489   0.775   0.057  10.600  0.3023  0.2133 -0.0866
24681W        W40490  18.455  13.953   4.281  0.0941  0.1500  0.2560
24682W        W40491  14.930   3.258  12.237  0.1620 -0.1294 -0.0031
24683W        W40492   7.581   4.765  11.827  0.2484  0.0359 -0.0763
24684W        W40493   8.650   9.994  12.143  0.0007  0.3150  0.1539
24685W        W40494   1.095   9.258  12.237  0.0812  0.1233 -0.3207
24686W        W40495   4.615  10.546   3.111 -0.1163  0.2007 -0.1807
24687W        W40496  14.378   3.915   4.137  0.1335 -0.2004 -0.2944
24688W        W40497   5.104  11.494   3.705 -0.0193  0.3861  0.1324
24689W        W40498  11.931   5.140  15.539 -0.2442 -0.0164 -0.4038
24690W        W40499   6.852   3.483  14.057 -0.0733 -0.1024  0.1272
24691W        W40500   9.805   5.783   4.078  0.0937 -0.0513  0.3031
24692W        W40501   3.646   9.806   5.602 -0.1903 -0.0130 -0.0734
24693W        W40502  16.235   7.037   2.302 -0.3019  0.1062  0.1009
24694W        W40503  10.138   4.672   3.428 -0.1083  0.1920  0.4939
24695W        W40504  11.443  13.609   0.557 -0.0132  0.1008  0.2424
24696W        W40505  17.588  12.654  12.350  0.0035 -0.2732  0.0434
24697W        W40506   3.609   9.115   3.354  0.1587  0.1522 -0.0588
24698W        W40507   9.652   4.551  13.347 -0.0641 -0.2598  0.0634
24699W        W40508   0.431  10.686  13.140  0.1572  0.0358 -0.1940
24700W        W40509  13.474  11.775  15.508  0.3093  0.4123  0.0269
24701W        W40510  17.000   2.546   3.604 -0.3288  0.0035 -0.0665
24702W        W40511   1.045  12.264  13.932  0.0629 -0.1994  0.0407
24703W        W40512   1.054   2.970   3.357 -0.0729  0.0585  0.1305
24704W        W40513   9.951   6.256   2.481 -0.0671  0.2372 -0.2948
24705W        W40514   4.214   7.438  11.999 -0.1363 -0.1953  0.0060
24706W        W40515   7.088   4.074   0.615 -0.2127  0.0101  0.1180
24707W        W40516   4.953   1.775  11.262  0.3397 -0.3193 -0.0547
24708W        W40517  14.101   4.698  11.449 -0.3314 -0.1257  0.0730
24709W        W40518  14.460   9.627   4.843 -0.0765 -0.0426  0.2439
24710W        W40519  11.594   9.942   0.781 -0.0485 -0.1018 -0.0968
24711W        W40520  11.786  13.613   1.363  0.1420  0.2225  0.2977
24712W        W40521   3.500  16.877   4.268 -0.3864 -0.1565  0.1386
24713W        W40522  11.625   5.495   4.939 -0.1191 -0.2262 -0.0443
24714W        W40523  15.671  13.711  13.289 -0.2245  0.0404 -0.3172
24715W        W40524   4.956  11.323   4.806 -0.2893  0.1887  0.1960
24716W        W40525  15.712  15.023  13.258 -0.3254  0.2613 -0.3172
24717W        W40526   5.615   0.164  10.914 -0.0280  0.0368  0.3685
24718W        W40527  14.930   0.676  12.929  0.0838 -0.0033  0.3630
24719W        W40528   1.911   4.815  11.351 -0.2389  0.3945 -0.0117
24720W        W40529  14.845   2.804   1.396  0.2105  0.2068  0.1803
24721W        W40530   8.176   1.029  13.823  0.3340  0.0935 -0.0311
24722W        W40531   5.056   4.230  12.521  0.2979  0.0666  0.1340
24723W        W40532   3.193   1.175  13.028 -0.2030  0.0857 -0.0442
24724W        W40533   0.242  12.023   5.666  0.0945 -0.1656 -0.2794
24725W        W40534   5.666  10.984   2.691 -0.1846  0.0309  0.1807
24726W        W40535  14.128   0.344   1.616 -0.2149  0.0199  0.3167
24727W        W40536   7.832   1.950  13.803  0.3005 -0.1243 -0.2355
24728W        W40537   6.367   6.126   5.034  0.3404  0.0851  0.0089
24729W        W40538  10.796  13.957   2.709 -0.1567  0.1613 -0.0405
24730W        W40539   9.084  16.469   1.393 -0.2400  0.0203 -0.2122
24731W        W40540  11.134   6.915  15.579  0.2336 -0.0021 -0.0046
24732W        W40541  11.017   7.315  15.274 -0.0772  0.1618 -0.0880
24733W        W40542  17.184  15.707  10.975 -0.2837  0.0089  0.1435
24734W        W40543   4.355  13.999   4.566  0.0710  0.1631 -0.0888
24735W        W40544   5.437   1.611  10.914 -0.1781  0.2729  0.0388
24736W        W40545  14.030   4.052   3.196  0.1370  0.1117 -0.1603
24737W        W40546  14.494   0.003   4.060  0.0427  0.0112 -0.0752
24738W        W40547   8.459   9.008   0.823  0.0701  0.0077 -0.0871
24739W        W40548   5.734   4.660   0.838 -0.0363  0.1518  0.2096
24740W        W40549  15.596  13.413   4.009 -0.0153 -0.0535 -0.0246
24741W        W40550   8.467  11.532  13.129 -0.0019  0.3677 -0.1958
24742W        W40551   5.633   9.193  14.491 -0.3360  0.3392  0.1287
24743W        W40552   8.760   4.525  14.917  0.0172  0.0206  0.1513
24744W        W40553   6.756   0.956   3.909 -0.1573  0.1780 -0.0912
24745W        W40554   8.804  14.510   4.469  0.1950  0.0338 -0.0499
24746W        W40555   4.884   0.293  12.634  0.1389 -0.1640  0.1700
24747W        W40556   8.534   7.017  11.123  0.2142 -0.3194  0.0512
24748W        W40557   3.795  16.415   2.081  0.0205 -0.0107  0.1805
24749W        W40558  10.994   6.629  10.999 -0.0706  0.1113 -0.0314
24750W        W40559   6.290  11.773   4.640  0.2700 -0.0130 -0.0962
24751W        W40560   1.927   5.724  10.959  0.2836 -0.0029  0.3108
24752W        W40561  13.382   8.824   4.508 -0.0802  0.1448  0.2977
24753W        W40562   5.875  11.165  11.398  0.2050  0.3721 -0.0375
24754W        W40563   3.007  16.074   1.339 -0.0999  0.3540 -0.1916
24755W        W40564  10.983   1.344  14.087  0.2241  0.3065  0.1655
24756W        W40565  15.793   8.906   3.062  0.2060 -0.2424  0.1879
24757W        W40566  11.314  12.202   2.692  0.1267 -0.1705  0.0729
24758W        W40567   9.674  13.614   0.230 -0.2038 -0.0604 -0.0009
24759W        W40568   0.659   0.754   5.601 -0.1341 -0.4041  0.0054
24760W        W40569   8.264   5.269   2.385  0.0032  0.1238  0.3085
24761W        W40570   8.742   8.390  14.941 -0.0240 -0.2873 -0.0399
24762W        W40571   2.337  13.857  12.644  0.0204  0.1304 -0.1177
24763W        W40572  11.790   4.220  12.815 -0.1061  0.1402  0.1898
24764W        W40573   4.031   8.071  14.954  0.0153 -0.1809 -0.1235
24765W        W40574  17.115   2.449  12.783  0.2819 -0.1628 -0.0730
24766W        W40575   4.917  16.656   0.441 -0.2553  0.2266  0.0278
24767W        W40576  10.060   2.502   0.165 -0.0874 -0.0451 -0.0189
24768W        W40577  11.153  18.032   3.087  0.5398  0.0160 -0.1095
24769W        W40578  11.472  18.057   2.138 -0.3941  0.2795  0.1388
24770W        W40579   2.145  16.802   4.549  0.0030  0.4681  0.1146
24771W        W40580   3.800   1.066  11.311 -0.2204  0.1188 -0.1507
24772W        W40581   9.722   2.116  11.335 -0.1207  0.3090 -0.1280
24773W        W40582   2.698   3.734  13.264  0.1318  0.2781 -0.3056
24774W        W40583  12.441  13.935  13.097 -0.0691  0.0659 -0.0704
24775W        W40584   4.054   6.580  13.839 -0.2911 -0.1068 -0.1251
24776W        W40585   3.626   2.312  14.523 -0.2765 -0.0776  0.0593
24777W        W40586  14.286  16.532   6.054 -0.0720 -0.1761 -0.0477
24778W        W40587   4.499   2.744   0.311 -0.2709 -0.0080 -0.2350
24779W        W40588   8.430   2.837  12.720  0.0781 -0.0715  0.0783
24780W        W40589   0.300   0.186  10.563  0.0010 -0.0381  0.2146
24781W        W40590   8.226   3.097   5.280 -0.2068 -0.0978  0.1054
24782W        W40591  14.878   6.367   3.615  0.0077 -0.2537 -0.0015
24783W        W40592   8.705   9.097  11.685  0.1552  0.2616  0.0301
24784W        W40593   0.815  17.760   1.229  0.1743 -0.2223  0.0354
24785W        W40594   8.185  17.976  10.911 -0.0895 -0.0141  0.1175
24786W        W40595   6.366  13.903  10.839  0.2896  0.2102  0.0209
24787W        W40596   9.630  14.150  11.052  0.1412  0.0349  0.1189
24788W        W40597   9.249  10.810  11.947  0.1173 -0.0089 -0.3781
24789W        W40598   5.461  12.067   1.265 -0.0335 -0.0467 -0.1575
24790W        W40599  12.446  12.475   4.317 -0.0823 -0.3329  0.2681
24791W        W40600   9.883  14.493  14.254  0.0743 -0.0251 -0.0705
24792W        W40601   0.300   4.385  12.989  0.2989 -0.0829 -0.2239
24793W        W40602  18.615  11.582  11.635 -0.1833  0.1831  0.0416
24794W        W40603   0.899   7.562  13.987 -0.1281 -0.1710  0.3389
24795W        W40604   0.558   6.456  11.503  0.0139 -0.1826  0.1825
24796W        W40605  16.257   2.109   2.320  0.1554  0.4988  0.0457
24797W        W40606   6.978  11.046   5.229 -0.0522 -0.1191  0.0207
24798W        W40607   8.582   9.521   0.612  0.4322  0.1965  0.0458
24799W        W40608  12.098  16.289   5.192 -0.0189 -0.3711 -0.0844
24800W        W40609  11.468   4.135  14.632  0.0542 -0.2359  0.2279
24801W        W40610  17.796   0.558  12.205  0.0688  0.0589  0.0510
24802W        W40611  16.319   1.235   0.888  0.0218 -0.0702  0.0459
24803W        W40612  15.098  14.524   3.133 -0.1674 -0.0654 -0.0008
24804W        W40613  11.486   4.115   1.297  0.2466 -0.1265 -0.1432
24805W        W40614  13.225  12.163  12.172 -0.2395 -0.0507 -0.2684
24806W        W40615  13.495  15.750   3.622 -0.1733  0.0809 -0.0406
24807W        W40616  13.794   2.364   1.467  0.0185  0.0186 -0.0547
24808W        W40617  13.441   0.281  14.534 -0.1402 -0.5264 -0.2104
24809W        W40618   6.770  10.282   2.469  0.1423 -0.1090  0.2775
24810W        W40619  11.906   9.193  12.308 -0.0541 -0.1736  0.0067
24811W        W40620  17.499   0.088   4.244  0.1809 -0.1522 -0.0081
24812W        W40621   6.716  10.992   1.335 -0.0232 -0.1963  0.0952
24813W        W40622  12.202   3.333   3.846 -0.3765  0.0346  0.1333
24814W        W40623  12.684   2.363  15.167  0.0841 -0.1622 -0.2607
24815W        W40624  16.275   8.335  12.052 -0.3013 -0.1520 -0.2411
24816W        W40625  12.714  11.825  11.358  0.1966  0.1541 -0.0321
24817W        W40626  10.292  11.809  12.014 -0.2766 -0.0189  0.0594
24818W        W40627  13.200  17.658  11.301 -0.0369 -0.0090  0.1352
24819W        W40628   7.156   1.851  14.686 -0.2836  0.4541  0.0009
24820W        W40629   7.534   2.402  13.698 -0.0695 -0.1320  0.2274
24821W        W40630  12.316   4.389   3.605 -0.3149  0.2547 -0.0188
24822W        W40631   0.676   7.361  11.322 -0.0301 -0.1020 -0.0812
24823W        W40632  17.245  10.763   3.493 -0.1687 -0.2383 -0.0179
24824W        W40633   4.341  15.396  11.777  0.0869  0.0320  0.2715
24825W        W40634  13.043   5.662  14.936  0.1002 -0.2403  0.1957
24826W        W40635  15.858  12.430   0.343 -0.0611 -0.1859 -0.0905
24827W        W40636   0.614   3.937   3.397  0.2310  0.1450 -0.0951
24828W        W40637   5.307   5.441   0.337  0.0242  0.0649  0.2495
24829W        W40638   7.995  12.415   1.341  0.0053  0.2367  0.1187
24830W        W40639  17.523   4.432   5.814  0.1010  0.2112  0.2329
24831W        W40640  13.555  18.270  11.454  0.2514 -0.0822  0.1227
24832W        W40641   3.749   7.774   1.419 -0.2013 -0.1088  0.0142
24833W        W40642   5.459   4.373  12.186  0.1555  0.3941  0.0795
24834W        W40643  17.169  11.606   3.598 -0.0600 -0.4235  0.1207
24835W        W40644  12.292  11.060  13.850  0.0295 -0.0454 -0.0480
24836W        W40645  17.735   8.341   2.375 -0.0284 -0.0787  0.2054
24837W        W40646  13.576  14.170  12.417  0.0964 -0.0435 -0.1725
24838W        W40647   2.357  17.611  11.924  0.2891 -0.0845  0.0775
24839W        W40648   5.532  15.329  12.049  0.3675  0.5221 -0.0722
24840W        W40649  13.388  18.088   0.373 -0.2200 -0.2630 -0.1907
24841W        W40650  17.724  14.919  11.560  0.2889 -0.1792 -0.0355
24842W        W40651   9.553  17.094   2.816 -0.3141  0.5219  0.0918
24843W        W40652  11.348   9.001  11.976 -0.1743 -0.0142  0.1204
24844W        W40653   9.292  12.609   3.028 -0.2603  0.2201  0.2272
24845W        W40654   7.587   8.085  14.421 -0.0837  0.1819  0.2557
24846W        W40655  12.528   8.792  14.697  0.1277  0.4074 -0.0645
24847W        W40656  12.842   2.590  14.451 -0.1355 -0.1731  0.1037
24848W        W40657  15.985  15.602  15.283  0.0507 -0.0767  0.2670
24849W        W40658   5.732   0.451   1.536  0.0854 -0.0550 -0.2591
24850W        W40659   7.783  10.182   4.580 -0.1389  0.2213  0.2843
24851W        W40660  13.543   7.365  11.369 -0.2011 -0.0437  0.1949
24852W        W40661  11.397   3.036   4.081 -0.2201 -0.0223 -0.0590
24853W        W40662   6.824  16.479  11.359  0.7571 -0.0142  0.0838
24854W        W40663  10.306  14.630   4.989  0.0480 -0.0525 -0.0947
24855W        W40664   3.745  10.058  11.129 -0.1254 -0.0555  0.1417
24856W        W40665  10.087  14.209   0.653  0.3761 -0.3592  0.0389
24857W        W40666  13.326  11.890   5.432  0.2803  0.0143  0.2254
24858W        W40667  18.633  12.077  10.911  0.1837 -0.4357 -0.4191
24859W        W40668  17.826  10.448  12.016 -0.2760 -0.0198 -0.1880
24860W        W40669   7.919  12.940   5.164 -0.0195 -0.3174 -0.1202
24861W        W40670  10.534   9.975   5.414 -0.1732 -0.0407  0.0015
24862W        W40671  11.000   1.360  12.804  0.0121  0.1436 -0.0499
24863W        W40672  14.952  16.017   5.257 -0.1121  0.0121 -0.1507
24864W        W40673   6.292  13.858  14.847 -0.2052 -0.0991 -0.2080
24865W        W40674   4.878  14.552   0.946  0.1012 -0.1831  0.0635
24866W        W40675   9.935   9.872  13.316 -0.1243  0.0222 -0.2032
24867W        W40676   6.075  14.945   4.136  0.1354  0.1259 -0.0191
24868W        W40677  17.396   7.630   1.416 -0.0832  0.1351 -0.0616
24869W        W40678   7.107   2.812  12.761 -0.0473 -0.1660 -0.1155
24870W        W40679  15.266   0.006  10.338  0.2819 -0.1606  0.1604
24871W        W40680  14.224  16.307   3.559  0.1985 -0.1654  0.0392
24872W        W40681   6.098   9.820  11.687  0.1221  0.0350 -0.1316
24873W        W40682   5.480   7.072   3.214  0.1134  0.0408  0.2184
24874W        W40683  15.534   7.510  12.056 -0.0173  0.0073 -0.1056
24875W        W40684  15.497  15.417   3.416  0.2752  0.1907  0.2740
24876W        W40685  13.492   2.595   0.275 -0.1601  0.1648  0.2156
24877W        W40686   6.460  14.508   9.683  0.1449 -0.2147 -0.0010
24878W        W40687  16.628  18.668   3.837  0.3755 -0.1534  0.0689
24879W        W40688   6.804   9.484  11.960 -0.1690  0.3447 -0.2949
24880W        W40689   9.977   5.965  14.589  0.1163 -0.3500 -0.1100
24881W        W40690  15.930  12.260  10.566  0.2625 -0.3215  0.0849
24882W        W40691   2.150  14.617  10.165 -0.2765 -0.0939  0.3662
24883W        W40692  17.590   2.809  15.423 -0.1836 -0.0454 -0.1972
24884W        W40693  18.039   9.092   5.029  0.0811 -0.1711 -0.5679
24885W        W40694   6.896   5.160   2.349  0.1733  0.0835 -0.1747
24886W        W40695  13.411   5.081   9.976 -0.2295 -0.1293  0.1747
24887W        W40696  16.271  12.576  12.211 -0.2202  0.0407 -0.0347
24888W        W40697  17.112  17.601   4.235  0.3429 -0.1234 -0.0597
24889W        W40698  18.335  15.813   2.555 -0.1323 -0.0261 -0.3003
24890W        W40699  18.398   7.606   0.255 -0.3084  0.0675 -0.3544
24891W        W40700   6.112  10.706   4.487 -0.0250 -0.0814 -0.1598
24892W        W40701   1.345  13.797   3.453 -0.0276 -0.3482  0.2612
24893W        W40702   8.702  11.345   5.452 -0.0726  0.0877 -0.2592
24894W        W40703   3.154   1.787  11.364 -0.0779 -0.1655 -0.2438
24895W        W40704   1.501   0.471   0.125  0.0068 -0.0174 -0.0015
24896W        W40705  18.585   7.767   3.801 -0.0571 -0.0037 -0.2026
24897W        W40706   1.661   0.488  12.972 -0.3341  0.0421 -0.2289
24898W        W40707  14.781   9.809   4.124  0.3036 -0.0082  0.1967
24899W        W40708  17.884  16.666  14.091 -0.2337 -0.0028 -0.0620
24900W        W40709  16.998  13.436  12.427 -0.0395 -0.0378 -0.1180
24901W        W40710   9.568   8.035   0.630  0.0568 -0.0397  0.0385
24902W        W40711  13.836   9.849   2.679 -0.1038 -0.1284  0.0955
24903W        W40712   0.740  15.376   3.459  0.0662  0.0613  0.1769
24904W        W40713  15.561  11.167  11.189  0.2988  0.3870  0.0485
24905W        W40714   2.557  11.099  13.758 -0.3488  0.0483 -0.0735
24906W        W40715   2.403  18.019  13.213  0.3748  0.2044 -0.1059
24907W        W40716   4.153  11.671  15.615  0.0142  0.1782 -0.1061
24908W        W40717  18.423  10.024  13.628  0.1461  0.1731 -0.1842
24909W        W40718   5.762   9.496   0.413  0.0518  0.3178 -0.1859
24910W        W40719   3.539  17.721  14.310 -0.0499 -0.4140  0.0437
24911W        W40720  12.676  14.830  13.505  0.1211 -0.2423  0.1315
24912W        W40721  16.378  10.982  11.966 -0.0327  0.0180 -0.1108
24913W        W40722  15.877  12.759  11.945 -0.2471 -0.2452 -0.3808
24914W        W40723   7.650   0.375  12.601  0.5374 -0.1720  0.0519
24915W        W40724  10.774   0.691  13.504 -0.0287 -0.2338 -0.1232
24916W        W40725   7.206  12.383   2.540 -0.0991  0.1031  0.5323
24917W        W40726   4.927  17.662   4.608  0.1647 -0.5421  0.1049
24918W        W40727   2.529  16.797  11.347 -0.1234  0.1485  0.0638
24919W        W40728   3.250  13.278   1.287  0.0299  0.0418  0.0040
24920W        W40729   1.378   6.779  14.557  0.1199  0.4019  0.0279
24921W        W40730  12.473  15.836   3.862 -0.0857 -0.1477 -0.0185
24922W        W40731  16.788   8.338   0.727 -0.1773  0.1006  0.3703
24923W        W40732  13.232   0.042   1.098 -0.0784  0.1570 -0.1525
24924W        W40733   9.750   7.687   0.979  0.0321  0.0714  0.2742
24925W        W40734   4.973   4.186  10.556 -0.3818 -0.0301 -0.1324
24926W        W40735  14.760  10.842   0.721  0.0165 -0.2269  0.1950
24927W        W40736   8.204   4.773   4.391  0.4343 -0.0321 -0.1623
24928W        W40737  11.759   0.819  12.557 -0.0669  0.0285  0.0551
24929W        W40738  13.438  16.848   2.680 -0.1912 -0.1146 -0.0516
24930W        W40739  17.048   4.223  13.402 -0.0147 -0.1264 -0.2827
24931W        W40740   4.289   5.242   3.702 -0.1309 -0.1401 -0.1227
24932W        W40741   1.448  11.856  11.654 -0.2780  0.1723  0.4997
24933W        W40742  14.422   0.323   4.863  0.1660  0.1051  0.0319
24934W        W40743   0.404  12.804   4.220  0.2520  0.0441  0.1372
24935W        W40744  10.940  17.527   4.629  0.0066  0.0968 -0.0438
24936W        W40745  18.513   7.696  14.995  0.1705 -0.0569 -0.1057
24937W        W40746  15.956   7.454   0.693 -0.1611  0.1116 -0.0535
24938W        W40747  11.242   5.476  14.390 -0.2020 -0.5521 -0.2452
24939W        W40748   2.658   8.453   1.720 -0.0463 -0.1128  0.0031
24940W        W40749  11.201   5.502  10.721 -0.2872  0.0067 -0.0969
24941W        W40750   9.151   1.017  12.073  0.0399  0.0611  0.0138
24942W        W40751  13.249  11.096   1.125 -0.0724  0.2051  0.3074
24943W        W40752  11.932   2.005  15.031 -0.4010  0.1558 -0.2897
24944W        W40753  15.703   9.505   9.273  0.0342  0.2032  0.0324
24945W        W40754   6.196   3.968   0.561  0.0611  0.0520  0.0603
24946W        W40755  11.558  12.800   5.729  0.0167 -0.2462  0.0599
24947W        W40756   5.123  15.731   3.274 -0.3791 -0.0034  0.1872
24948W        W40757  15.611   5.147   3.242  0.0348 -0.0805  0.1194
24949W        W40758  11.758   2.651  11.056 -0.1163  0.0358  0.1046
24950W        W40759   6.106   5.115   1.473 -0.0258  0.0791  0.1354
24951W        W40760   1.434  11.331   4.997 -0.1165  0.2651  0.1955
24952W        W40761   3.325   5.439   2.141 -0.1062  0.2793  0.2323
24953W        W40762  11.097  17.844  13.785 -0.0614 -0.0288 -0.3675
24954W        W40763   2.268   7.803  11.414 -0.0635  0.0498  0.2019
24955W        W40764  13.110   8.047  13.600  0.1468 -0.3173 -0.0881
24956W        W40765  15.930   7.486  12.463 -0.0306  0.0301 -0.3634
24957W        W40766   7.535   8.363   1.661  0.0000 -0.1192 -0.1195
24958W        W40767   3.534   5.143   0.249 -0.2054  0.1785  0.2325
24959W        W40768  15.921  10.228  14.391  0.4524 -0.1096 -0.0228
24960W        W40769   7.533   9.270   2.173  0.1240 -0.0357  0.3064
24961W        W40770   6.012  16.809  14.497 -0.0236  0.1147 -0.1475
24962W        W40771   4.113  18.663   5.165  0.1416  0.1873 -0.0982
24963W        W40772  15.109   4.020   4.427 -0.0276  0.0685 -0.0455
24964W        W40773  12.021   6.127  13.802 -0.0148 -0.0057 -0.2753
24965W        W40774  17.758   8.790   2.175 -0.0988 -0.0028 -0.2051
24966W        W40775  13.756  12.692  14.515 -0.1727 -0.1323  0.0621
24967W        W40776   7.394   8.053   5.076  0.0162  0.0264 -0.1352
24968W        W40777   6.521   8.392  14.715  0.1515 -0.1920  0.2092
24969W        W40778  11.956  12.302  14.068  0.4043 -0.2054  0.4762
24970W        W40779  16.901   4.459   2.858 -0.0753 -0.1243  0.0005
24971W        W40780  18.599  15.539  15.573  0.1488  0.1595  0.0115
24972W        W40781  14.492  16.865  13.905 -0.0161 -0.1246 -0.1760
24973W        W40782  15.160  11.160  11.827  0.1800 -0.4837 -0.1252
24974W        W40783   2.114   3.591   4.200 -0.1505  0.0010  0.0844
24975W        W40784   8.825   2.532   5.556 -0.0216  0.0523  0.0500
24976W        W40785   5.019   8.896   0.275 -0.0053  0.3402  0.1283
24977W        W40786   2.848  16.529   5.164 -0.3099  0.2399  0.2169
24978W        W40787   3.457  11.870   3.715 -0.2565  0.0090  0.2138
24979W        W40788   1.970  17.767  15.541  0.0523 -0.3558 -0.1375
24980W        W40789   9.634  14.634  15.301  0.1695 -0.2112 -0.0685
24981W        W40790   9.099   8.821  11.970 -0.3177  0.0097  0.3471
24982W        W40791   7.213  15.722  13.559  0.6311 -0.0766 -0.0136
24983W        W40792  15.108  15.583   1.373  0.0124  0.0525 -0.0509
24984W        W40793  14.637   6.406   1.766 -0.1556 -0.1642 -0.0723
24985W        W40794  12.183   2.764   0.060 -0.3123  0.1233  0.1315
24986W        W40795   6.012  13.956   4.992  0.0158  0.0046 -0.1179
24987W        W40796  10.051  12.940   3.705  0.1011  0.0441  0.1518
24988W        W40797   0.663   9.839  11.177  0.2292 -0.1595 -0.1596
24989W        W40798  14.285   2.652   2.140 -0.1005 -0.3104  0.2817
24990W        W40799   2.368  10.889  15.291 -0.0072  0.0903 -0.1007
24991W        W40800  11.819  12.532   2.205  0.1169  0.4451 -0.3034
24992W        W40801   9.023   5.869  13.065  0.1432  0.1994  0.0577
24993W        W40802   8.417   5.458   5.148  0.4833  0.0317 -0.0790
24994W        W40803  14.546  12.727  12.300 -0.2273  0.0722 -0.3570
24995W        W40804   7.627  18.608  13.495  0.1042  0.2179 -0.1465
24996W        W40805   7.056   0.036   4.245  0.3509 -0.0462  0.0731
24997W        W40806   3.470  11.450  13.194  0.1297  0.0888 -0.0747
24998W        W40807   7.357  14.009  15.512 -0.0453 -0.2732  0.2094
24999W        W40808  18.105   2.712  13.283  0.0543  0.0624 -0.0902
25000W        W40809   1.430  16.339   4.401  0.2549  0.0397  0.3833
25001W        W40810   0.088  11.610  14.060 -0.1321 -0.0839  0.1087
25002W        W40811   3.203   2.702  12.359 -0.0910  0.0062 -0.1712
25003W        W40812   1.714  14.964  11.574  0.3659 -0.0855 -0.0869
25004W        W40813   7.204   4.510  13.880  0.2523 -0.2617  0.0244
25005W        W40814  17.277  10.802  12.579 -0.0114 -0.0391 -0.0774
25006W        W40815  13.004  12.079   5.054 -0.0455  0.1404  0.2734
25007W        W40816  11.644   6.310  14.901  0.3509  0.0598  0.0291
25008W        W40817   6.450   9.551   2.288  0.1162 -0.1625 -0.0937
25009W        W40818  12.775  12.264   3.720 -0.5125  0.3126 -0.3147
25010W        W40819   0.834  11.126   0.777  0.3322 -0.0250  0.2746
25011W        W40820  15.479  12.107   5.505 -0.2865 -0.2143  0.1313
25012W        W40821   7.243   7.732  11.635  0.1166  0.1157 -0.2974
25013W        W40822   7.762   1.471   5.308 -0.0021 -0.0803  0.2400
25014W        W40823  18.156   8.617  13.306 -0.2708  0.2356 -0.0722
25015W        W40824  13.729  11.168   3.263  0.0724  0.0410  0.2350
25016W        W40825   9.153   0.383  11.592 -0.3239  0.1083  0.0804
25017W        W40826  10.680   8.474   1.308  0.3310 -0.1647 -0.2983
25018W        W40827  11.751   8.761   5.399  0.0508 -0.0341 -0.3470
25019W        W40828   2.635  13.832  13.791 -0.0097  0.0012  0.0219
25020W        W40829   4.784   8.885   1.421 -0.2225 -0.0904 -0.2521
25021W        W40830  14.953  14.392  13.459 -0.0531  0.0947  0.0491
25022W        W40831   9.351  14.700   1.910 -0.2198 -0.5718  0.2507
25023W        W40832   6.022  16.838  11.470 -0.5644  0.1732 -0.1428
25024W        W40833   7.004  10.458   1.477  0.2652 -0.0289 -0.1128
25025W        W40834   4.602   5.108   3.299 -0.0620 -0.0075  0.0401
25026W        W40835  15.891  10.930   3.253  0.1748 -0.1366  0.0460
25027W        W40836  17.539  18.223   3.419 -0.3745 -0.1917  0.0195
25028W        W40837  15.088  18.151  14.753 -0.3092  0.1292  0.3047
25029W        W40838   5.383  12.645   5.247  0.1041 -0.2026  0.0150
25030W        W40839   2.715  11.808   5.398 -0.0390  0.3046 -0.0282
25031W        W40840  10.003  10.180  12.367  0.0331 -0.0548  0.1219
25032W        W40841   2.248   7.524   1.945  0.0405  0.0225 -0.1817
25033W        W40842   2.223  15.810   0.856 -0.2342  0.0714  0.1676
25034W        W40843  18.616   9.542   5.071  0.1526  0.0743  0.0302
25035W        W40844  18.570  13.174   1.181  0.2615 -0.3453 -0.1356
25036W        W40845  15.734   4.878  12.718  0.2648  0.3234  0.3030
25037W        W40846  17.367   8.396   5.140  0.0087  0.0799 -0.0120
25038W        W40847   0.618   0.197  12.359  0.0546  0.1816 -0.1163
25039W        W40848  17.403  16.162  15.481  0.1410  0.1495  0.1401
25040W        W40849  13.027   8.730  10.677  0.1621  0.0302 -0.1515
25041W        W40850   0.066  18.155   3.920 -0.1582 -0.2494 -0.1348
25042W        W40851  11.989  13.736   0.420  0.1930 -0.2485  0.1055
25043W        W40852  17.698  15.683   4.250 -0.3128  0.0663  0.2631
25044W        W40853  11.442  16.564  11.417  0.1600  0.2484  0.1474
25045W        W40854   8.862   4.376   5.114  0.2267  0.4043 -0.1673
25046W        W40855   4.720   1.544  12.053  0.2289 -0.0471 -0.3917
25047W        W40856   1.537   2.978   4.525 -0.0425 -0.1629 -0.2455
25048W        W40857   1.662   0.856   4.771  0.0210 -0.2346  0.1235
25049W        W40858  17.911  12.132   3.843  0.1450  0.0027 -0.1923
25050W        W40859   1.869  12.701   4.127  0.0006  0.1550 -0.2672
25051W        W40860  10.595   3.577  14.633 -0.1669  0.3725 -0.2625
25052W        W40861   1.194  13.523  11.252 -0.3020  0.0332 -0.0906
25053W        W40862  17.462  15.229  11.893 -0.0245  0.2025 -0.1412
25054W        W40863   0.206  12.708   4.795 -0.1681  0.1488  0.2038
25055W        W40864  10.231   0.463  14.807  0.0933 -0.0504 -0.2928
25056W        W40865   1.177  17.196  15.174 -0.1536 -0.3513  0.0730
25057W        W40866   6.478   0.055  11.288 -0.0189  0.1723  0.0736
25058W        W40867   9.753   2.975   3.511  0.0989 -0.1331 -0.1893
25059W        W40868  12.859  13.143   0.249  0.1588  0.2731 -0.1411
25060W        W40869  12.641  14.551  12.514  0.4554 -0.2798  0.0451
25061W        W40870   3.589   4.591   2.449  0.1739  0.0278  0.1751
25062W        W40871  18.300   8.957   3.982 -0.1205  0.1902  0.2682
25063W        W40872  15.878  13.295  13.519 -0.0977 -0.0947  0.1051
25064W        W40873   8.998  17.710   1.617  0.1532 -0.1668  0.0316
25065W        W40874  15.195   7.515   1.585  0.0869  0.2753 -0.1120
25066W        W40875  12.020   4.232   1.497 -0.1012  0.1433  0.0279
25067W        W40876  15.925   5.154   4.652 -0.1096 -0.1120 -0.1899
25068W        W40877  10.877   2.402   2.017  0.1122  0.0798 -0.0866
25069W        W40878   6.934   8.012   0.554  0.0874  0.2918 -0.0824
25070W        W40879   5.603  14.530   1.579 -0.1122  0.1787  0.0765
25071W        W40880  18.388   5.103   2.419 -0.0552  0.1668 -0.0029
25072W        W40881  13.937  13.852   2.243  0.0762 -0.0457 -0.0102
25073W        W40882   1.348  18.119  13.622  0.2429 -0.3897  0.1334
25074W        W40883  15.194   9.712   4.705 -0.0118 -0.2998  0.2443
25075W        W40884   0.189  17.638  13.960  0.1705 -0.2128 -0.1495
25076W        W40885  14.181  11.412  11.306  0.0013 -0.0436  0.2752
25077W        W40886  12.986  17.936  15.546  0.1792 -0.0469 -0.0087
25078W        W40887  17.168  10.582   1.554  0.0983 -0.0299 -0.1308
25079W        W40888   4.924   6.968   1.993 -0.0773 -0.5594  0.0768
25080W        W40889   8.434   2.755   4.898  0.1136 -0.2803 -0.0486
25081W        W40890  14.718   4.697   3.338  0.2701 -0.1829  0.2377
25082W        W40891  15.053  18.062  12.637 -0.0928 -0.4391  0.0264
25083W        W40892  11.188   7.550   1.122 -0.1736 -0.2683 -0.0062
25084W        W40893  15.302  16.642   1.400 -0.3131 -0.0618  0.0204
25085W        W40894  14.048  13.834   0.267  0.3165  0.0971 -0.1785
25086W        W40895   3.572   8.873  15.098  0.1924 -0.1183 -0.1745
25087W        W40896   2.511  17.024  14.430  0.0861 -0.0318  0.4579
25088W        W40897   8.883   5.645   4.348  0.3000  0.0608  0.2211
25089W        W40898   6.440   1.390  12.850 -0.0280 -0.4856 -0.1717
25090W        W40899   7.339   7.843  15.368  0.2689 -0.2044 -0.2013
25091W        W40900   4.641  12.013  15.557  0.1911  0.0126  0.2209
25092W        W40901   9.785  12.017   3.442  0.4100 -0.2329 -0.1873
25093W        W40902   5.003  13.485   4.522  0.0415  0.0516 -0.0564
25094W        W40903   5.232   3.023   1.129  0.0749 -0.1443  0.2680
25095W        W40904   5.531   9.206  12.393 -0.0224 -0.0832  0.0259
25096W        W40905  14.771   2.587  15.313 -0.2943  0.0392 -0.3341
25097W        W40906   6.656   0.169   2.707  0.2033 -0.1694 -0.0260
25098W        W40907   2.843   1.004   4.920  0.1873 -0.2534 -0.1577
25099W        W40908  15.708  16.199  15.083 -0.0360  0.0399  0.0125
25100W        W40909  11.513  16.660  10.441  0.1732 -0.0460  0.0081
25101W        W40910  14.576  12.950  15.250 -0.2376  0.2012  0.3176
25102W        W40911  10.373   1.148   5.392  0.0384 -0.0167 -0.0698
25103W        W40912   1.885  17.918  14.497  0.0665  0.2902 -0.4501
25104W        W40913   2.001   8.327  10.346 -0.1336  0.2670  0.0563
25105W        W40914   1.805   5.320   2.143  0.0831 -0.0322  0.0737
25106W        W40915   9.388   8.095  10.832 -0.0763  0.1853 -0.1611
25107W        W40916  16.416   7.325   2.724 -0.0114  0.1671 -0.0961
25108W        W40917   2.776   8.852   2.870  0.3064 -0.0477 -0.0610
25109W        W40918  17.192   6.876   3.332  0.0661 -0.1750  0.1423
25110W        W40919  18.473  15.114  11.427  0.4383  0.1779  0.0185
25111W        W40920   6.754  14.297  12.324  0.0507 -0.0468  0.0691
25112W        W40921   7.925   8.774   3.272 -0.2363 -0.1112  0.0678
25113W        W40922   9.741   7.004  12.782 -0.1457  0.1526 -0.1948
25114W        W40923  14.781   2.198   5.537 -0.0507 -0.1661 -0.2012
25115W        W40924  16.433  10.803   2.388  0.0601 -0.0296  0.0994
25116W        W40925   9.592   1.028   0.884 -0.0025 -0.0491  0.2789
25117W        W40926   4.795   4.530   3.487  0.0568 -0.0403  0.0926
25118W        W40927   4.007   0.739  12.824  0.3142 -0.1772  0.2328
25119W        W40928   5.685   4.953  13.094  0.1769  0.3030  0.0122
25120W        W40929   8.814  18.337   4.212  0.0022 -0.0677  0.0876
25121W        W40930   0.499   1.275  12.360  0.0086 -0.4824  0.4660
25122W        W40931  10.629  13.655  11.463 -0.3429 -0.1522 -0.1747
25123W        W40932  14.904   1.546  15.207  0.2068  0.3257  0.2313
25124W        W40933   2.486  11.869  10.838 -0.0333  0.4575  0.2061
25125W        W40934   2.831  10.933   0.479  0.0790 -0.1935 -0.4391
25126W        W40935   5.732   7.280   3.590  0.0628 -0.0529 -0.0344
25127W        W40936  11.614   2.655  13.182  0.0970  0.0147  0.0655
25128W        W40937   2.453  10.789   0.898 -0.4880  0.1851  0.0693
25129W        W40938   7.038  15.585  10.178  0.5504  0.3697  0.1780
25130W        W40939  13.468   6.420  12.927  0.0324 -0.0361 -0.3723
25131W        W40940   0.538  11.354   4.141  0.0717 -0.2289  0.2745
25132W        W40941  17.669   9.976  14.961 -0.1416 -0.2613 -0.0063
25133W        W40942   3.318   8.855   0.652  0.0914  0.0336  0.2335
25134W        W40943   9.790   1.341  13.361 -0.0022  0.1121  0.2604
25135W        W40944   2.384   1.139   5.150  0.0020 -0.2634  0.0432
25136W        W40945   8.776   2.485   2.398 -0.1327  0.0718 -0.0783
25137W        W40946   3.062  14.558   1.951 -0.0695 -0.0425 -0.0605
25138W        W40947  17.863  11.290  15.302  0.0081  0.0438  0.0409
25139W        W40948   0.910   9.407  14.995  0.0446 -0.1872  0.1208
25140W        W40949  14.578   3.380  13.845  0.0826 -0.0195  0.1502
25141W        W40950  12.160  16.739  13.740  0.2979 -0.0647  0.1299
25142W        W40951   3.079   9.176   2.025  0.2035  0.0013 -0.2294
25143W        W40952  12.598   1.656   3.807  0.1706  0.0180  0.2856
25144W        W40953  12.007  12.598  15.025  0.1495  0.0010  0.0773
25145W        W40954  15.818  11.345  15.012  0.1405 -0.0758 -0.1189
25146W        W40955   4.889  14.835   2.754 -0.0768 -0.0052  0.3594
25147W        W40956   4.244  10.086  11.493  0.3863  0.1231 -0.2685
25148W        W40957   2.941   5.448   9.638 -0.1414 -0.4341 -0.3809
25149W        W40958   8.518   6.607  14.446 -0.1315  0.2067 -0.2246
25150W        W40959   9.508   5.409  13.725  0.1494 -0.1580  0.3233
25151W        W40960  12.155   7.933   0.057  0.2659 -0.1162  0.1310
25152W        W40961   4.446  13.867   2.117  0.2639 -0.1354  0.1199
25153W        W40962  12.533   6.532  11.117  0.0151 -0.1551  0.0208
25154W        W40963  11.902  10.766   4.547  0.2295  0.1137 -0.3748
25155W        W40964   6.465  13.440   2.258 -0.0603  0.1144  0.1076
25156W        W40965   7.787  15.494   1.086  0.1582 -0.1588 -0.2524
25157W        W40966   1.499  18.537  12.307  0.0069 -0.0238 -0.1449
25158W        W40967  13.975  16.217   1.687  0.1171  0.0095 -0.0692
25159W        W40968  16.435  13.951  13.002 -0.2493 -0.1066 -0.1137
25160W        W40969   4.722  15.596  12.051  0.4044 -0.0934  0.0528
25161W        W40970  11.209  11.808  12.317  0.0453  0.3178 -0.0607
25162W        W40971  16.925  17.765  11.843  0.0746 -0.1816  0.0579
25163W        W40972   4.140  13.349   0.910 -0.3697  0.1787  0.0900
25164W        W40973   3.737  15.508  14.274 -0.0336 -0.3156 -0.0270
25165W        W40974   7.459   9.935   0.183  0.0161  0.2724  0.1050
25166W        W40975  18.617   6.935  12.784  0.0423 -0.0069  0.1011
25167W        W40976   4.088   2.783   2.026 -0.1585 -0.0262  0.1554
25168W        W40977  11.510   1.740   1.718  0.2540  0.0550 -0.0954
25169W        W40978   9.130  14.944   5.920 -0.0898  0.2423 -0.2023
25170W        W40979   8.467  15.832  10.436 -0.0394 -0.0503  0.0086
25171W        W40980   5.559   8.901   3.503  0.1759  0.2428 -0.2727
25172W        W40981   5.318   9.615  10.836  0.0987  0.0013  0.0345
25173W        W40982   4.602  18.665  11.279  0.0912 -0.0519  0.1035
25174W        W40983   1.354   8.839  10.644  0.1397 -0.0478 -0.0752
25175W        W40984   8.289   7.393   4.821 -0.0233  0.1188  0.2403
25176W        W40985  10.598  11.193   1.201  0.2014 -0.1316  0.2017
25177W        W40986   0.262   0.073  11.841 -0.0568  0.1886 -0.1833
25178W        W40987   3.905  13.641   5.150  0.0198  0.0196  0.0072
25179W        W40988  18.585   5.573  14.202 -0.1862  0.1084  0.1527
25180W        W40989   9.419   1.784   2.192  0.0990 -0.1031 -0.1708
25181W        W40990  13.388   3.168   2.671  0.2194  0.1576 -0.0343
25182W        W40991   6.633   9.305  12.430 -0.1461  0.1318 -0.1990
25183W        W40992  16.354  12.346   0.263  0.0886 -0.0718  0.1794
25184W        W40993   6.612   5.544  12.408 -0.0687  0.1058  0.2355
25185W        W40994   4.203  13.725  13.576 -0.0799 -0.2303 -0.0057
25186W        W40995  11.122  14.157   5.122 -0.3477 -0.2256 -0.1927
25187W        W40996   2.668  11.484  12.774 -0.0927 -0.3493 -0.2043
25188W        W40997  10.415  17.427   4.713  0.0069 -0.1278 -0.0483
25189W        W40998   8.142   2.456  11.825 -0.0837 -0.0168  0.0621
25190W        W40999  13.088   7.215   3.860 -0.2196 -0.0322  0.0975
25191W        W41000   7.048  14.144   4.109  0.4602 -0.0226  0.3131
25192W        W41001   8.502  15.398   2.205  0.2313  0.3190 -0.0448
25193W        W41002   0.829   2.335   3.795  0.2135  0.0398 -0.1563
25194W        W41003  14.695   2.963  14.042 -0.0047 -0.0061 -0.1737
25195W        W41004   7.407  13.217  11.809 -0.0194 -0.1205 -0.1121
25196W        W41005   7.063   1.612   0.892  0.0595  0.1372 -0.0302
25197W        W41006  15.870   5.881   2.813 -0.0346 -0.0798 -0.0568
25198W        W41007   1.460   2.071  11.987  0.2182  0.1396 -0.3023
25199W        W41008   6.031   1.511  13.555  0.3034 -0.1887  0.1349
25200W        W41009   2.726   9.973   5.018  0.1904  0.1247  0.3404
25201W        W41010  13.646   1.364  11.168  0.2431  0.2549 -0.2000
25202W        W41011   7.812  16.371   4.633 -0.2170  0.2259 -0.2678
25203W        W41012   7.054  11.389  10.278 -0.1328 -0.3248 -0.2385
25204W        W41013  12.485   7.694  11.900  0.4728 -0.4114  0.2604
25205W        W41014   6.385   0.623  12.696  0.4223  0.1001 -0.2892
25206W        W41015   4.648  12.500  13.557 -0.1824  0.0178  0.1912
25207W        W41016  10.683  11.887   3.842  0.0699 -0.1397 -0.0636
25208W        W41017  18.218   4.742   3.342  0.2123  0.1161  0.1074
25209W        W41018   0.722  17.352   2.888  0.1040 -0.2440  0.0136
25210W        W41019   9.888  10.567   0.969  0.0417  0.1589 -0.2282
25211W        W41020   3.695   6.204   0.277  0.3272  0.1542 -0.1789
25212W        W41021   6.271  12.072  15.401 -0.0524 -0.0714  0.4401
25213W        W41022  16.593  13.900   1.387 -0.1681  0.2445 -0.0761
25214W        W41023  11.656  16.223   0.623 -0.1068  0.0197 -0.0221
25215W        W41024  18.148  15.215  11.860  0.5519  0.0173 -0.3048
25216W        W41025  17.714   2.627  10.523 -0.1721 -0.1592  0.0978
25217W        W41026   8.231   0.815   6.108  0.1106 -0.1464  0.0036
25218W        W41027   6.090   9.012   2.995 -0.1947 -0.1406 -0.3060
25219W        W41028  11.827   8.561   1.905 -0.1059 -0.2852 -0.0542
25220W        W41029  15.681   9.432   0.379  0.0504 -0.3862  0.0323
25221W        W41030  14.471   1.111  15.439  0.0613 -0.3082  0.1200
25222W        W41031  17.277  10.382   1.103 -0.1198  0.3099  0.0410
25223W        W41032  16.714   0.036   0.484  0.0513 -0.0651  0.0183
25224W        W41033  15.629   2.028   4.141  0.1174 -0.0781  0.0045
25225W        W41034   6.526  14.867   1.332  0.2586  0.1104  0.2188
25226W        W41035   3.701  13.042  14.298 -0.2118  0.2478 -0.1623
25227W        W41036   9.236  17.069   2.289 -0.1430 -0.0008  0.1532
25228W        W41037   8.911  13.001  10.945  0.2875 -0.2132  0.1781
25229W        W41038   7.801   1.252   4.259  0.3868 -0.1786 -0.3973
25230W        W41039   3.000   6.444  13.673  0.1052 -0.3835  0.1368
25231W        W41040   0.318   6.985   0.156 -0.1433  0.1387  0.0100
25232W        W41041   2.820  15.887   3.186  0.2174 -0.0181  0.3097
25233W        W41042  11.006   2.944  15.140 -0.0767 -0.0489 -0.0315
25234W        W41043   6.908  13.902   0.030 -0.3193  0.0168  0.2324
25235W        W41044   6.610   3.605  13.320 -0.2323  0.1507  0.1090
25236W        W41045   4.281   0.827   4.888  0.4172  0.1560 -0.0476
25237W        W41046   9.438   2.487  14.634 -0.0202  0.0671 -0.0789
25238W        W41047  13.573   6.867  11.987  0.3150  0.3362 -0.4428
25239W        W41048   2.464  14.079  11.089  0.0474  0.1875 -0.2585
25240W        W41049  17.652  14.758  12.545  0.2038  0.2353 -0.0470
25241W        W41050  12.317  12.573   0.961 -0.1102 -0.0495 -0.1245
25242W        W41051  10.512   3.083   3.996 -0.1641  0.0599 -0.3693
25243W        W41052   1.159  16.369  11.518 -0.1219  0.2624 -0.0369
25244W        W41053   4.701  10.289   4.505 -0.1731  0.2863  0.0207
25245W        W41054   5.580   1.838   1.804 -0.1504  0.0392  0.0101
25246W        W41055   5.462   2.099   3.728  0.0588  0.1599  0.2568
25247W        W41056  12.438  10.619   2.962 -0.0073 -0.1342 -0.1253
25248W        W41057  10.356   6.315   5.796 -0.0248 -0.1383  0.0457
25249W        W41058   3.812   1.367  11.971 -0.2535  0.0333  0.0035
25250W        W41059   8.701  11.078   1.599 -0.0864 -0.1326 -0.0036
25251W        W41060   7.457  14.441   3.859 -0.2074  0.1576  0.2596
25252W        W41061  14.743   1.357  10.761 -0.1062 -0.1009 -0.2085
25253W        W41062   4.455  14.139  11.384 -0.0338 -0.0971  0.0936
25254W        W41063   9.492   3.588   2.449  0.1855  0.1555  0.0999
25255W        W41064  17.718   9.202  10.492 -0.3350  0.1299 -0.0415
25256W        W41065   6.308  17.842   2.615  0.2689  0.0444  0.1715
25257W        W41066   9.181   1.441   6.233 -0.3173  0.1847  0.0216
25258W        W41067  14.329  10.313   1.010 -0.0626 -0.4192  0.1108
25259W        W41068  18.610   3.771   2.568 -0.2182  0.1329  0.0656
25260W        W41069  17.025   4.614  11.105 -0.2501 -0.1577 -0.0776
25261W        W41070  17.804  10.119   1.924  0.1672  0.1380 -0.2348
25262W        W41071  18.023   1.737   1.432 -0.1468  0.1190 -0.0824
25263W        W41072   3.263  17.644  14.818  0.1878 -0.3573  0.2848
25264W        W41073   3.869   2.419   1.716 -0.1323 -0.1765 -0.4037
25265W        W41074   6.528   6.244   3.253  0.2709  0.3131  0.1766
25266W        W41075  12.956  14.548   3.817  0.2012  0.1269 -0.4307
25267W        W41076   7.857   3.440  12.000  0.2294  0.1612 -0.4917
25268W        W41077  10.221   6.676   3.200 -0.2485 -0.0246 -0.0555
25269W        W41078  14.899   0.347   0.838  0.0442 -0.1946 -0.0549
25270W        W41079  12.619   1.649   3.304 -0.1115 -0.0595  0.3016
25271W        W41080   5.938  12.642   3.407 -0.0116 -0.0980  0.1357
25272W        W41081  13.869  13.520   0.982  0.2953 -0.0548  0.0692
25273W        W41082   0.120  15.092  15.436 -0.2810 -0.0267  0.0162
25274W        W41083   5.388  12.919   1.597  0.1820 -0.1705 -0.1085
25275W        W41084  11.595  13.483   3.006  0.2214  0.3817  0.0500
25276W        W41085  12.432  14.698  11.579  0.1604 -0.3472 -0.2202
25277W        W41086   0.323   2.816   2.698  0.3133 -0.0186 -0.0033
25278W        W41087   1.517  12.433   9.555 -0.1793  0.0974  0.1724
25279W        W41088   1.735   3.209   1.364 -0.0768 -0.2051 -0.0194
25280W        W41089   7.660  16.005   3.252 -0.1002  0.0606  0.3430
25281W        W41090   8.569   4.517  12.416  0.0286  0.0955 -0.1001
25282W        W41091   3.102  18.498   0.060  0.3365  0.2445  0.2970
25283W        W41092  16.449   6.657  10.808  0.1940  0.2838  0.0446
25284W        W41093  10.150   7.473   0.689  0.1529  0.1023  0.0441
25285W        W41094  13.187  17.019   3.879  0.0126 -0.0406 -0.0706
25286W        W41095  11.458  10.603   4.701 -0.0729 -0.0024 -0.2836
25287W        W41096  15.135  18.243  10.538 -0.2131 -0.0010 -0.0162
25288W        W41097   8.759  17.094   0.944 -0.0835  0.0433 -0.1062
25289W        W41098  10.405   9.903  12.227 -0.1411 -0.2246  0.0153
25290W        W41099   6.256  13.016   2.094  0.1620  0.2038  0.1115
25291W        W41100   6.237   3.347  13.037 -0.0872  0.0557  0.1444
25292W        W41101   1.325   7.814  13.994 -0.1803 -0.0693  0.2172
25293W        W41102   9.985  14.683  14.951  0.2144  0.1374 -0.1332
25294W        W41103  12.368   6.531  10.582  0.0332 -0.1158  0.0766
25295W        W41104   9.839   1.555   3.438 -0.1819  0.4305 -0.1854
25296W        W41105   1.847   8.087  14.878 -0.2223 -0.0237  0.1169
25297W        W41106   9.493  17.234   0.627  0.1843  0.3495  0.0029
25298W        W41107  16.424   5.920   0.997  0.0358 -0.0168  0.1719
25299W        W41108  18.538  13.045  11.123  0.0050  0.0154 -0.0108
25300W        W41109  11.473  15.675  14.318  0.0813 -0.0745  0.3708
25301W        W41110   9.709   4.934   1.383  0.1072 -0.1702  0.0209
25302W        W41111   6.652   3.708   3.021 -0.0234 -0.3038  0.3446
25303W        W41112  15.983   9.586  15.024  0.2454  0.1819  0.0124
25304W        W41113   6.190   5.846  13.173 -0.1387 -0.1328 -0.2466
25305W        W41114   9.037   5.198   4.131  0.0534 -0.0988 -0.1798
25306W        W41115   4.635  13.169   3.078  0.0476 -0.0007 -0.1472
25307W        W41116   8.060  13.821  12.812 -0.0123  0.1863 -0.2975
25308W        W41117   2.128  12.630  12.735  0.3201 -0.1388  0.4132
25309W        W41118   0.683  16.388   3.865 -0.1503 -0.0180  0.2000
25310W        W41119   2.600   5.002   1.608 -0.1877  0.3161 -0.0839
25311W        W41120  11.836   7.501   4.046 -0.0143  0.1401 -0.1013
25312W        W41121  15.034   3.138   1.030  0.1542  0.1311  0.1157
25313W        W41122   4.774  12.039   2.400 -0.3457  0.3049 -0.0717
25314W        W41123  10.002   3.425   4.449 -0.0085  0.1713  0.1067
25315W        W41124  11.498  11.866   5.078  0.2179  0.2223  0.0315
25316W        W41125  13.159  11.947   4.182 -0.1830 -0.0822  0.1114
25317W        W41126   2.091  17.280  15.426  0.0423  0.0402 -0.0348
25318W        W41127   7.642   6.844  12.224 -0.0241  0.3164 -0.2637
25319W        W41128   1.656   2.050  13.378 -0.0067  0.1792 -0.5079
25320W        W41129   3.973   3.718  12.181  0.0110 -0.1132 -0.2422
25321W        W41130   3.190   2.440   0.695 -0.2524 -0.1119 -0.3160
25322W        W41131   7.760  17.831  12.448 -0.1586  0.1600  0.0750
25323W        W41132  14.194   9.499  13.751 -0.1719  0.2989 -0.3415
25324W        W41133   9.485  15.559   0.059  0.1082  0.2106 -0.2674
25325W        W41134   5.346  12.834  13.117 -0.1436 -0.0595 -0.1707
25326W        W41135   2.262  10.677   5.520  0.1920 -0.0140  0.1238
25327W        W41136   7.379   7.660  14.370  0.1354  0.3084 -0.0145
25328W        W41137  10.461   4.189   3.582  0.2186 -0.1642  0.0557
25329W        W41138   9.857  17.681   5.333  0.1846 -0.0882  0.0324
25330W        W41139  17.090  16.325   0.820  0.0268 -0.0686  0.0683
25331W        W41140  13.773  12.152  14.736  0.0385 -0.1570 -0.0128
25332W        W41141  14.640  15.734   4.322 -0.0712 -0.0923 -0.0682
25333W        W41142  18.020  12.769  14.675  0.3569 -0.0569 -0.1017
25334W        W41143  17.358   8.512  11.059 -0.1290  0.0762  0.0549
25335W        W41144   2.336   1.166  13.206 -0.0489 -0.0568 -0.1329
25336W        W41145  14.443  14.077  14.222 -0.0131 -0.1279  0.4901
25337W        W41146   9.700   9.887   1.921  0.0720  0.0872 -0.1894
25338W        W41147   4.645  10.516  13.176 -0.2805  0.4809 -0.2220
25339W        W41148   9.552   1.620  15.136 -0.1188 -0.2628  0.1701
25340W        W41149  12.100   1.732   3.266  0.1172 -0.1482  0.0604
25341W        W41150   3.370  13.562  12.069  0.2195 -0.2571  0.2482
25342W        W41151   8.774   7.496   4.571  0.0671 -0.1718  0.1677
25343W        W41152   5.357   5.722  13.825 -0.0632 -0.2348 -0.1504
25344W        W41153  17.818   7.240   0.744  0.1036  0.1306 -0.1935
25345W        W41154  14.604  13.570   1.196  0.0444 -0.0353 -0.3283
25346W        W41155   8.449   2.761   3.723  0.2134  0.0793  0.0900
25347W        W41156  14.374  10.755  12.601 -0.0147 -0.1142 -0.0878
25348W        W41157  13.387  18.167  12.975  0.0706 -0.0868 -0.4135
25349W        W41158   4.245  13.145   2.669 -0.3190  0.0601  0.3389
25350W        W41159   7.406   9.934   4.229 -0.2062  0.3497  0.3760
25351W        W41160   8.582  15.213  11.017  0.1189  0.2489  0.0240
25352W        W41161   0.272   9.586  12.790  0.1295  0.2332  0.2921
25353W        W41162  16.219  16.164   1.517 -0.3046  0.2546 -0.0763
25354W        W41163   0.394  11.159   1.047 -0.1052  0.0041 -0.1427
25355W        W41164   7.932  16.197  12.598  0.1783  0.0898 -0.1445
25356W        W41165   5.160  14.592  13.154 -0.2051  0.0275 -0.1559
25357W        W41166  15.494  12.290   3.653  0.2182  0.3021 -0.3196
25358W        W41167   8.765  18.506  10.136 -0.1413 -0.1763 -0.2690
25359W        W41168   6.911  13.741  14.151  0.1416  0.0757  0.1287
25360W        W41169  16.144   3.718   2.162  0.1070  0.0497 -0.1972
25361W        W41170  17.525   9.521  11.840 -0.2992 -0.2034  0.1184
25362W        W41171  15.429   2.408   0.543 -0.0839 -0.1421  0.0934
25363W        W41172  12.100   0.245   0.185 -0.0676 -0.3837  0.0318
25364W        W41173   4.074   9.324  10.711 -0.0222 -0.0766  0.0457
25365W        W41174  15.452   9.141   3.993 -0.0835  0.2768 -0.4034
25366W        W41175   7.040   8.704   3.403  0.1244  0.0908 -0.1629
25367W        W41176   2.439  12.217  15.194  0.2243 -0.3227 -0.1682
25368W        W41177   3.920  14.975  13.700 -0.1700  0.0266 -0.0780
25369W        W41178  13.912   5.545  11.889  0.0407 -0.0456 -0.3105
25370W        W41179   6.329   5.205   4.069  0.1785  0.2878  0.0712
25371W        W41180   0.221   0.166  15.588  0.2771  0.1654 -0.0834
25372W        W41181   2.557  18.281   4.208 -0.0478  0.1511  0.0833
25373W        W41182   8.848  18.554  14.931 -0.1877  0.0742  0.2242
25374W        W41183  15.899  12.474  15.134  0.0220  0.0282 -0.2509
25375W        W41184  10.122   5.135   1.761 -0.1819  0.1709  0.0578
25376W        W41185   9.752  18.085   0.479  0.1678 -0.0532 -0.0361
25377W        W41186   2.899   5.316   4.688 -0.0595  0.1954 -0.1448
25378W        W41187   8.083  17.507   3.118 -0.2480 -0.0524 -0.2383
25379W        W41188  16.155  12.016   2.755 -0.0102  0.2722 -0.0184
25380W        W41189  11.072  11.573   4.262 -0.0182 -0.1302 -0.1385
25381W        W41190  10.089   2.915   5.083  0.1256  0.0444 -0.0818
25382W        W41191  12.681  12.087  13.021  0.3454 -0.0987  0.1007
25383W        W41192  18.647  13.558  11.038  0.1075 -0.2612 -0.0499
25384W        W41193   0.179   0.203   0.490 -0.0681  0.0653 -0.1061
25385W        W41194  10.481  10.400  12.378 -0.2129  0.2209 -0.0180
25386W        W41195  18.481  10.524  12.456 -0.0383  0.2633  0.0881
25387W        W41196  10.608  10.583   1.928  0.1501  0.2470 -0.0487
25388W        W41197   2.039  10.122  15.010 -0.2761 -0.0575  0.1531
25389W        W41198  16.355   6.563  15.250  0.3889  0.1764  0.1499
25390W        W41199  12.768  17.548   0.842 -0.2075  0.0001  0.1637
25391W        W41200   3.854  14.652  10.991 -0.0799 -0.2978 -0.1085
25392W        W41201   1.999   8.222   2.844 -0.0045 -0.1199 -0.3304
25393W        W41202  14.501  13.190  14.590  0.2480  0.0295 -0.0660
25394W        W41203   1.855   4.797  10.793  0.0004 -0.0318  0.1301
25395W        W41204   9.253   5.966   3.497  0.4681  0.1177 -0.0993
25396W        W41205  16.603   4.611   0.648 -0.0569  0.0215 -0.0895
25397W        W41206   3.632   1.917   4.251 -0.0434 -0.2730 -0.0210
25398W        W41207   1.548   2.506  13.588  0.0521  0.0403  0.1266
25399W        W41208   3.967  14.609  12.818  0.1610 -0.0629 -0.1732
25400W        W41209   9.895  12.970  11.924 -0.0836 -0.1592  0.1162
25401W        W41210   3.404  10.214  13.808  0.0752 -0.0306 -0.2980
25402W        W41211  15.080   7.383  12.143  0.2493 -0.1304  0.0638
25403W        W41212   2.610  11.890  14.879 -0.1354 -0.1974 -0.0263
25404W        W41213  16.209   6.041   1.495 -0.0182 -0.1542 -0.0348
25405W        W41214  17.125  12.740  13.672 -0.0824 -0.0389 -0.0754
25406W        W41215   5.763   9.479   9.760 -0.1398 -0.0646 -0.0249
25407W        W41216   7.105   0.227  15.615  0.1915  0.0350  0.5004
25408W        W41217   4.331   5.600   1.450 -0.0627 -0.1620  0.1931
25409W        W41218  17.362  17.838  10.709 -0.0823  0.1667 -0.1437
25410W        W41219   5.348   2.956  11.611  0.0561 -0.0382 -0.0815
25411W        W41220  14.445  10.095   1.537 -0.3860 -0.5144  0.1888
25412W        W41221  14.526  11.689  12.801 -0.0829 -0.2127  0.0000
25413W        W41222  15.619   9.768   1.541 -0.2923  0.2051  0.0077
25414W        W41223   9.701  15.161  13.005  0.1768  0.0006 -0.1307
25415W        W41224   8.248  14.102   4.468 -0.1645 -0.4797  0.0667
25416W        W41225  16.609   6.731   2.153  0.0906 -0.1049  0.4694
25417W        W41226   0.173  15.981  12.818 -0.0707  0.1954 -0.1597
25418W        W41227  11.558  13.433  12.791  0.1702 -0.0472  0.4566
25419W        W41228   4.611   0.648  10.190  0.1961 -0.0596 -0.2831
25420W        W41229  16.698  10.424  14.837 -0.0267  0.1435 -0.2827
25421W        W41230  13.044  16.528  15.276  0.1073 -0.1539  0.0781
25422W        W41231   8.049  18.622  12.298 -0.1474  0.0754 -0.2114
25423W        W41232   5.124  13.821   4.874 -0.0723 -0.1480 -0.2125
25424W        W41233  14.675   2.975  13.517  0.0905  0.3265 -0.1581
25425W        W41234  12.258   9.920  15.283 -0.0920  0.0170  0.0053
25426W        W41235  12.295   3.405   1.612 -0.2603  0.3199 -0.2419
25427W        W41236  12.212   7.009  14.051 -0.2824 -0.0354  0.1578
25428W        W41237  10.412   6.193  11.784 -0.0805  0.2358  0.0422
25429W        W41238  16.718  15.990   0.806  0.1126 -0.2224  0.1909
25430W        W41239   3.477   0.532   2.820  0.1096 -0.3234 -0.1916
25431W        W41240  16.579  18.548   4.341  0.2073 -0.1303 -0.0612
25432W        W41241   1.219  14.788   1.142  0.0339 -0.3530  0.0688
25433W        W41242  12.436   5.154  15.357 -0.1711 -0.0529 -0.1159
25434W        W41243  12.839   7.187   4.931  0.1564  0.0732  0.0834
25435W        W41244   0.569  13.275   1.808  0.0134  0.2809  0.0993
25436W        W41245   8.909   7.084   1.091  0.0895 -0.4154 -0.0266
25437W        W41246   4.151  16.679   0.070  0.3378 -0.0300  0.0957
25438W        W41247  15.528  12.076   2.062  0.0446  0.4149  0.1931
25439W        W41248   0.021  17.373   3.619  0.2151 -0.0128 -0.0700
25440W        W41249   5.656  16.676  12.367 -0.2967  0.1535 -0.4582
25441W        W41250  14.807  17.432   6.437 -0.1630 -0.1371 -0.3878
25442W        W41251   5.698   1.541   5.099 -0.1012 -0.3984 -0.1659
25443W        W41252   3.113   6.530  14.524 -0.0355 -0.2401  0.2215
25444W        W41253  15.848   7.166  10.509 -0.0709  0.1202  0.0406
25445W        W41254   7.399   0.479   5.183  0.0206 -0.3118 -0.2096
25446W        W41255  15.053  18.567  12.497  0.3987 -0.0483 -0.2622
25447W        W41256   8.283  10.072  12.694  0.1592  0.2748  0.0949
25448W        W41257   1.700  15.218   1.929 -0.1298  0.0672  0.1568
25449W        W41258   0.736  11.609  12.671 -0.4470 -0.2311  0.1334
25450W        W41259   4.663  12.971   1.710  0.0928  0.2335 -0.1131
25451W        W41260   6.085  16.995   3.467  0.0803 -0.1267  0.1930
25452W        W41261   4.253   5.122   2.291  0.0634 -0.0721  0.1212
25453W        W41262   4.500   7.830   4.979 -0.2326  0.2069  0.2567
25454W        W41263  14.029   6.884   5.233  0.3539  0.1507  0.0138
25455W        W41264   9.200   5.556   9.660  0.1055  0.1470  0.3717
25456W        W41265  16.772  15.936  11.746  0.0266 -0.2035 -0.1103
25457W        W41266  17.608  17.406   9.919  0.1813  0.1353 -0.2852
25458W        W41267  11.118  12.708   2.912 -0.1316  0.3055  0.0089
25459W        W41268   4.586  11.593   5.025  0.0314  0.0071 -0.2264
25460W        W41269   6.558   1.081  11.589 -0.1331 -0.1219 -0.2986
25461W        W41270   8.225  13.347   2.598  0.2849  0.2185  0.0525
25462W        W41271  13.187   0.429  11.967  0.0581  0.1355  0.1405
25463W        W41272   2.237  11.741   9.572  0.3958  0.0683  0.4959
25464W        W41273  11.546   6.404   2.401  0.1514 -0.0488  0.0864
25465W        W41274   5.669   1.538   0.572 -0.0524  0.1838  0.1043
25466W        W41275  14.650   2.233  11.135  0.3644 -0.2707  0.0410
25467W        W41276   8.726  16.982   4.401  0.1484 -0.0288  0.1220
25468W        W41277   6.697  14.624  14.538 -0.2693  0.2062 -0.2187
25469W        W41278   1.215  18.148   1.063  0.3612 -0.0437  0.5331
25470W        W41279  16.778   9.548   4.871 -0.2578  0.1568  0.3083
25471W        W41280   8.678  18.046   6.341 -0.1331  0.0996 -0.2467
25472W        W41281  18.483  14.112  13.447 -0.0688  0.0827  0.1550
25473W        W41282  16.114   3.551   5.748 -0.0366 -0.0288 -0.1817
25474W        W41283  15.246   1.367   1.705  0.0238 -0.0346  0.0465
25475W        W41284   6.889   6.004  13.993  0.0636  0.2241 -0.0752
25476W        W41285  11.075   1.135   4.091 -0.0474  0.0176 -0.0020
25477W        W41286  11.482   0.769   1.266 -0.0374 -0.2874 -0.0341
25478W        W41287   4.915   6.474   2.793 -0.1940 -0.0907 -0.2977
25479W        W41288   2.945   1.831   4.242 -0.3567 -0.2698  0.2068
25480W        W41289   5.650   1.616  14.492  0.3325 -0.0409 -0.1566
25481W        W41290  17.893  16.945  13.623 -0.3557  0.1983 -0.1590
25482W        W41291  10.016   8.741   4.651 -0.3070  0.1402 -0.1984
25483W        W41292   7.123   5.724  10.808 -0.1308 -0.0907 -0.1970
25484W        W41293  11.337   3.351  15.203 -0.2110 -0.3732 -0.2424
25485W        W41294  12.237   4.817   0.201  0.0408 -0.0373 -0.2998
25486W        W41295  11.676  15.172   3.481  0.0215  0.2076  0.4236
25487W        W41296   8.532   9.239  10.838 -0.1469 -0.0366  0.0017
25488W        W41297  10.108  16.836   3.611  0.4617  0.0715 -0.0241
25489W        W41298   4.524   1.928   5.128 -0.0525  0.1983  0.0012
25490W        W41299  15.422   3.722  13.367 -0.1077 -0.1875 -0.1562
25491W        W41300  11.013   2.402   5.033 -0.0439 -0.1116  0.0950
25492W        W41301  16.230   6.699   4.249 -0.1168 -0.1001  0.0929
25493W        W41302   1.379   1.115  13.465 -0.3512  0.2521 -0.2081
25494W        W41303   4.033   3.049  12.790  0.0664  0.3131  0.1361
25495W        W41304   0.152   1.495   3.003  0.0546  0.0619  0.0721
25496W        W41305  12.780   6.176   6.182 -0.1521 -0.1829 -0.2455
25497W        W41306   3.315  17.989   4.152  0.2048  0.0208 -0.1125
25498W        W41307   5.473   9.338   0.867  0.3957  0.1286 -0.0086
25499W        W41308  15.295   2.363   3.038  0.1390 -0.0855 -0.0576
25500W        W41309   4.718  18.424  13.584 -0.3939  0.2549 -0.1406
25501W        W41310   7.391   9.416  11.624  0.0332 -0.1264 -0.0369
25502W        W41311  12.051   2.742   2.278 -0.1012 -0.2759 -0.3437
25503W        W41312   2.483  13.844   5.599 -0.0551  0.2276 -0.5471
25504W        W41313  11.752   5.398  14.593  0.2762 -0.0508  0.0947
25505W        W41314   8.506  10.523  12.979 -0.0420 -0.0659 -0.0920
25506W        W41315  17.010   6.006   3.616  0.0561 -0.0186  0.0064
25507W        W41316  14.670  17.368  13.804  0.0405 -0.2930  0.0230
25508W        W41317  13.718   2.408  15.435  0.1930 -0.0100  0.1469
25509W        W41318   0.313   8.939   4.645 -0.1472 -0.0336  0.1830
25510W        W41319   5.853  10.155   2.081 -0.0400 -0.0680 -0.4767
25511W        W41320   4.306   8.845   4.022 -0.0018 -0.0963 -0.0405
25512W        W41321  14.654  15.638   2.629 -0.1558 -0.1493  0.0570
25513W        W41322  16.986   2.103  14.526 -0.2115  0.1700 -0.1727
25514W        W41323   2.303  12.297   4.251 -0.2253  0.0731  0.1295
25515W        W41324  11.982   7.884   1.207 -0.1421 -0.2706 -0.1837
25516W        W41325   8.715   7.812   5.338 -0.1969  0.1497  0.0668
25517W        W41326   5.133   3.032   3.032 -0.1426  0.4808  0.3047
25518W        W41327  11.672   9.910   4.139 -0.0060 -0.2240  0.4014
25519W        W41328   6.205  14.560  14.066  0.3016  0.0204  0.0809
25520W        W41329   1.594   0.434   3.026  0.2061 -0.2170  0.0156
25521W        W41330  16.602   2.639   1.861  0.2206  0.0070 -0.3109
25522W        W41331   0.782  15.980   5.737  0.3878 -0.0645  0.0719
25523W        W41332   1.877   7.582  12.336  0.0958 -0.2995  0.1595
25524W        W41333   1.302   5.151   3.639  0.1247 -0.1550  0.0993
25525W        W41334  11.719  18.037  11.955 -0.2235 -0.2388  0.0388
25526W        W41335   1.941  15.298   1.436  0.3099 -0.1318 -0.2220
25527W        W41336  16.984  10.187  10.623  0.1392  0.0626 -0.1620
25528W        W41337  14.569   3.235  13.022 -0.3379 -0.1573  0.2799
25529W        W41338  13.167  16.741  12.535 -0.0029 -0.0540 -0.0037
25530W        W41339   1.840   3.415  13.597 -0.4116  0.1218 -0.0559
25531W        W41340  16.091  17.619  13.966 -0.2310  0.0443 -0.0079
25532W        W41341   7.901   1.354   1.219  0.1257  0.0608  0.2020
25533W        W41342  17.015  13.665   5.064 -0.1447 -0.4293  0.2393
25534W        W41343  18.220  10.437  11.175  0.1478 -0.1077  0.2074
25535W        W41344   1.649  17.136  13.826 -0.0210 -0.0806 -0.1361
25536W        W41345   0.323  18.530   0.821  0.0493  0.0394 -0.2917
25537W        W41346   0.256  15.404   5.026  0.3131 -0.1559  0.1579
25538W        W41347   6.649   5.591   4.858 -0.0948  0.0215 -0.0202
25539W        W41348  13.254  13.456  12.426 -0.0333 -0.2023 -0.5197
25540W        W41349   3.503   7.872   1.867  0.1917 -0.1398  0.0998
25541W        W41350  12.035  15.477  12.564  0.1144  0.1668 -0.3054
25542W        W41351   1.476   1.817   2.528 -0.0089  0.0478  0.0047
25543W        W41352  11.107   4.240  11.531  0.0586  0.0925  0.1995
25544W        W41353   2.453  10.447  10.724 -0.1766 -0.3525 -0.0267
25545W        W41354  12.791   8.037   3.089  0.3494  0.0291 -0.0966
25546W        W41355  13.164   1.892   2.589 -0.4930  0.0186 -0.1609
25547W        W41356  15.299  13.880  10.738  0.0224  0.1407 -0.4472
25548W        W41357  11.310  14.232  13.788 -0.0515 -0.3552  0.1363
25549W        W41358   6.194  12.881   5.361 -0.3794  0.0670  0.0989
25550W        W41359   4.763  15.992  12.399  0.0378  0.4553 -0.4196
25551W        W41360   2.305  12.311  10.597 -0.0007  0.0612 -0.0693
25552W        W41361   7.928  10.739   1.260 -0.1160 -0.1940 -0.0287
25553W        W41362   8.516   5.137  13.593  0.2186 -0.1372  0.1443
25554W        W41363   2.241  10.133  11.884  0.0632 -0.1205  0.1166
25555W        W41364   7.901  14.830  11.830 -0.1548 -0.1545 -0.2540
25556W        W41365   1.771   6.200   4.773 -0.2157 -0.1970  0.1137
25557W        W41366   2.399  10.599   3.001  0.1493 -0.0805 -0.0766
25558W        W41367  12.026  16.128  13.647  0.1508 -0.1655  0.3409
25559W        W41368   5.765  12.559  13.176  0.2162 -0.3896 -0.0195
25560W        W41369  10.258  16.599   5.353 -0.0442  0.0310 -0.0958
25561W        W41370   5.291   3.059  12.756 -0.0579 -0.1713  0.1651
25562W        W41371   7.450  10.211  11.056 -0.1692  0.1664 -0.2235
25563W        W41372   6.800  13.226   4.672 -0.0209 -0.1658 -0.1495
25564W        W41373   1.863  13.842   3.399 -0.1433 -0.3530  0.1135
25565W        W41374   4.702  14.553   6.034 -0.2643 -0.0590 -0.1723
25566W        W41375  10.719  14.555   1.772  0.2721 -0.1445  0.1212
25567W        W41376  11.159   8.352   1.144 -0.1827 -0.1793 -0.0826
25568W        W41377   3.783   2.687   4.393 -0.1816 -0.1125 -0.0276
25569W        W41378  17.462  15.762  15.028 -0.0832 -0.0242  0.1106
25570W        W41379   8.730  15.615   0.937 -0.1618  0.1733  0.0742
25571W        W41380   8.744  14.539   3.469  0.0039 -0.2262  0.0642
25572W        W41381   8.063   7.409  12.864  0.2307  0.0771 -0.2446
25573W        W41382   3.166   2.716   0.228 -0.1676  0.1270  0.1195
25574W        W41383  13.988  15.555   4.807  0.0417  0.0381 -0.0816
25575W        W41384  13.596  12.450  12.109 -0.2249  0.0423  0.0485
25576W        W41385   1.315   8.077   0.772  0.0986  0.2245  0.0385
25577W        W41386   8.205   1.248   1.659 -0.1958 -0.2550  0.2780
25578W        W41387   7.792  17.806  10.431  0.0019 -0.0282  0.0282
25579W        W41388   1.941   1.979   2.599 -0.0870 -0.1876 -0.2913
25580W        W41389   8.953   4.244   5.678  0.2951  0.2380  0.1092
25581W        W41390   3.124  13.051  11.358 -0.1607  0.1555 -0.1563
25582W        W41391  13.216   0.460   4.665 -0.0006 -0.0912 -0.3592
25583W        W41392  13.459   2.375  12.722  0.0675 -0.0220 -0.0669
25584W        W41393   6.969   3.663  14.491  0.1044 -0.1158 -0.2425
25585W        W41394  18.116   4.665  14.199 -0.2577  0.0836 -0.0604
25586W        W41395   3.588   2.793  12.109  0.0299 -0.0359 -0.1348
25587W        W41396  12.687   5.961   2.975  0.1438  0.0822 -0.0265
25588W        W41397  16.123   3.331  13.107  0.0321 -0.0505 -0.3519
25589W        W41398   2.232   7.961  12.126  0.2019  0.2325 -0.0783
25590W        W41399   6.959   9.706  13.220  0.2564 -0.1259 -0.2081
25591W        W41400  12.102  15.040  11.826  0.1306 -0.1369  0.0487
25592W        W41401   4.628   5.156  11.544  0.4782  0.1318  0.1371
25593W        W41402   0.726   2.513   2.639  0.0461  0.1750 -0.1538
25594W        W41403   2.752  16.499  14.141  0.1674 -0.0708 -0.1534
25595W        W41404   2.614  14.107   3.873  0.0406  0.1036  0.1834
25596W        W41405   1.834  15.308  10.969  0.2401  0.0057  0.0152
25597W        W41406   5.881   7.887   4.893 -0.1262 -0.0960  0.1521
25598W        W41407   3.247   5.827  11.507 -0.0166 -0.1310 -0.2083
25599W        W41408  10.553   5.337   4.579 -0.1120  0.0369 -0.1756
25600W        W41409   2.663   6.174  14.074 -0.1002 -0.1638 -0.0532
25601W        W41410  16.810  16.456   4.613 -0.0681  0.1005  0.1975
25602W        W41411  16.043   2.691  11.148 -0.4231 -0.2676 -0.2378
25603W        W41412  15.827   9.093  13.114 -0.2952 -0.0785 -0.6307
25604W        W41413  12.867   0.247  14.473  0.0993 -0.2072  0.0686
25605W        W41414   1.303  14.598   0.589 -0.1575  0.2270 -0.2608
25606W        W41415  12.296  10.865   0.742 -0.1134 -0.1954 -0.5664
25607W        W41416  16.799   0.068  12.794 -0.1088  0.0268  0.2692
25608W        W41417   2.640  12.881   3.566  0.0623  0.2412 -0.0509
25609W        W41418   6.997   7.121   0.916 -0.4004 -0.3004  0.0355
25610W        W41419   7.520  11.029   5.446  0.3905 -0.0925  0.2645
25611W        W41420   5.255   8.524   3.742  0.0569 -0.0201  0.0005
25612W        W41421   2.419   5.537   4.639  0.2761  0.2679  0.0322
25613W        W41422  12.301   3.613  11.238 -0.4749  0.4037  0.1190
25614W        W41423   9.704   2.377   1.386  0.0141  0.0698  0.2120
25615W        W41424  14.921  15.825   3.924 -0.2349 -0.1972 -0.1729
25616W        W41425  12.714  14.794   3.374 -0.0009  0.0085  0.1506
25617W        W41426  14.637  10.455   1.834 -0.1289  0.2075  0.1850
25618W        W41427  15.535   3.233  12.571 -0.0396 -0.1354  0.0097
25619W        W41428  14.895   5.926   0.129  0.0367  0.0790 -0.0498
25620W        W41429   9.124   6.159   2.705 -0.0845  0.0242 -0.2139
25621W        W41430  13.013   0.134   5.452  0.1557  0.4463  0.2408
25622W        W41431   9.700  10.463   3.628  0.0866 -0.0674 -0.3432
25623W        W41432   3.565   7.319   1.557 -0.2317  0.2165 -0.0742
25624W        W41433   7.584  14.183  13.359 -0.3479  0.0158  0.0025
25625W        W41434   9.104  10.574  15.295  0.0817  0.1510  0.1065
25626W        W41435   4.526   3.415   5.165  0.0970 -0.3782 -0.1157
25627W        W41436  13.801   2.524   0.757  0.2677 -0.0516 -0.1276
25628W        W41437  12.480  14.971   0.719  0.2420  0.1296  0.0136
25629W        W41438  13.584  13.118   4.310  0.0054 -0.4275 -0.3111
25630W        W41439   5.148  12.068  15.544 -0.0126  0.0269 -0.0661
25631W        W41440   7.491  11.358   5.888  0.1500 -0.1198  0.1495
25632W        W41441  17.608  15.717   3.688  0.1348 -0.1841 -0.0568
25633W        W41442   9.968  16.369  14.093  0.0472  0.1345  0.2839
25634W        W41443   7.699   8.883   2.473  0.1175  0.0977 -0.2110
25635W        W41444   8.830   3.368   1.561  0.1422  0.0903  0.0098
25636W        W41445  11.143  13.713  12.542  0.0178  0.0259  0.0594
25637W        W41446   5.854  13.937  15.166 -0.0167 -0.0931  0.1955
25638W        W41447   4.081   1.837  10.261 -0.4289 -0.0018 -0.1113
25639W        W41448  16.282   6.935   0.898  0.2112  0.2923  0.1661
25640W        W41449   5.161  18.497  12.355  0.1241  0.0879  0.3173
25641W        W41450   7.638  15.939  11.452  0.1149 -0.2675  0.0558
25642W        W41451   0.801  16.005  13.618  0.0181  0.2212 -0.1159
25643W        W41452  11.932  16.184   3.450  0.0952  0.0587  0.1852
25644W        W41453  15.027  14.110   1.657 -0.0018 -0.1542  0.1504
25645W        W41454   3.060   2.008   2.751  0.1426  0.0137 -0.0347
25646W        W41455   1.685  14.501  11.286 -0.3103 -0.0187 -0.1612
25647W        W41456  13.973   0.903   2.496  0.1167 -0.0074  0.0470
25648W        W41457  16.068  14.324   0.709  0.1422  0.2286  0.3155
25649W        W41458  14.884   7.289   2.019  0.1403  0.2824  0.1870
25650W        W41459   2.319   0.879  15.222  0.2185 -0.0157 -0.1667
25651W        W41460   6.626  13.084  11.061 -0.2594  0.2122 -0.0925
25652W        W41461   9.311   1.548  15.583 -0.1489 -0.0279 -0.0992
25653W        W41462  14.992  14.945   5.496 -0.1579 -0.1384  0.0080
25654W        W41463   4.627   3.472   1.453 -0.1231  0.3683  0.0007
25655W        W41464   6.665   6.466   2.796 -0.0366 -0.0534  0.2105
25656W        W41465   4.996  12.079   3.338 -0.0003  0.0131 -0.1039
25657W        W41466   8.229  15.250  14.715  0.1438  0.0694 -0.1648
25658W        W41467  10.213   6.471  11.448  0.2082  0.0673  0.2623
25659W        W41468  10.694   7.716   2.936  0.2247  0.1406  0.1458
25660W        W41469  13.599   3.136  10.312 -0.0740 -0.1990  0.1727
25661W        W41470   9.302   2.263  15.266 -0.1294  0.0790  0.1330
25662W        W41471  16.887   0.867  12.186 -0.1112  0.1788  0.0757
25663W        W41472   6.384  13.352   0.637  0.1744  0.1702  0.0046
25664W        W41473  15.200   8.574  11.348  0.0957 -0.1068  0.0447
25665W        W41474  10.553  10.512  13.749  0.0307 -0.0135  0.1757
25666W        W41475   8.787   4.259   3.492  0.2124  0.0626 -0.3692
25667W        W41476   2.372  16.472   5.304 -0.0717 -0.0623 -0.3540
25668W        W41477   4.706  13.149  14.067 -0.0270 -0.1670  0.0022
25669W        W41478   9.650  11.590  14.710  0.0497  0.0116  0.0069
25670W        W41479   5.855  14.840   1.816  0.2721 -0.2702 -0.2612
25671W        W41480   6.176   5.988   0.448  0.0274 -0.3251  0.1932
25672W        W41481   8.744   5.222   6.039  0.3188  0.0799  0.0702
25673W        W41482   2.751   1.079   2.553 -0.1981  0.1151 -0.2034
25674W        W41483  12.195  13.876  15.617  0.0223  0.0504  0.0645
25675W        W41484   5.035  13.240   2.676  0.0422 -0.0155 -0.1577
25676W        W41485  18.337  10.657  14.913  0.0690 -0.0140  0.2921
25677W        W41486  17.440  11.710  10.925  0.0868 -0.2283  0.2980
25678W        W41487   8.388   5.951  14.885 -0.2052  0.0176  0.0503
25679W        W41488  15.326  14.001  11.274  0.3658  0.3540 -0.1048
25680W        W41489   1.318   3.352  13.576 -0.1069  0.1300  0.0194
25681W        W41490   9.574   4.312   3.274 -0.0362 -0.3968  0.0588
25682W        W41491  10.345   7.251  14.641 -0.1844  0.1751  0.2741
25683W        W41492  16.508   1.698  12.254  0.2910  0.2640  0.0210
25684W        W41493   2.686   2.098   0.507  0.0737  0.1028 -0.1384
25685W        W41494   2.008  16.654   4.997  0.2997  0.0461 -0.0780
25686W        W41495  16.072   0.003   3.428  0.2652  0.1973  0.2784
25687W        W41496   1.143  15.715  13.915  0.0433  0.0655 -0.0222
25688W        W41497  15.423  18.374  13.999 -0.0641 -0.0208  0.1322
25689W        W41498   3.332  15.321   1.374  0.0546 -0.1757 -0.3126
25690W        W41499   3.826  12.357  11.639  0.0285  0.2172 -0.3617
25691W        W41500   4.115   3.530   3.942  0.2423 -0.1605  0.2990
25692W        W41501  15.294   4.692  13.246  0.1342  0.1705 -0.3997
25693W        W41502   3.537  11.311   0.618  0.1527 -0.0660  0.0465
25694W        W41503  17.164   6.455   2.239 -0.1405  0.1294  0.0510
25695W        W41504   6.714  10.206   3.023 -0.0023  0.0171  0.1312
25696W        W41505   7.226   1.148   3.326 -0.0243  0.2852  0.0331
25697W        W41506  17.507   3.796   9.567  0.0591 -0.0321  0.2169
25698W        W41507  17.701   5.559   0.111 -0.0792 -0.0343  0.3092
25699W        W41508   1.838  13.390  13.296  0.3202 -0.0235 -0.1365
25700W        W41509   5.045  16.017  12.023 -0.0235 -0.1437  0.3780
25701W        W41510   2.838  13.158   4.359  0.2448 -0.2335  0.1481
25702W        W41511   9.925  17.056  11.835 -0.4268 -0.1043 -0.0377
25703W        W41512   3.101   9.888   4.197  0.0018 -0.2961 -0.0928
25704W        W41513   3.105   8.056   4.182 -0.4246 -0.1798 -0.0695
25705W        W41514  16.449  11.426  12.390 -0.2994  0.1300  0.1711
25706W        W41515   6.816  14.215  14.267 -0.2034 -0.1019  0.0847
25707W        W41516   1.670   8.194   4.248 -0.3048  0.1978  0.0124
25708W        W41517   8.215  13.721   0.385  0.3915  0.4312 -0.2666
25709W        W41518  10.102   3.090   0.462  0.1556 -0.2925  0.0931
25710W        W41519   5.973   1.084   3.171 -0.2109  0.3396 -0.0483
25711W        W41520   2.304   9.671   5.387  0.0921  0.0494 -0.0687
25712W        W41521   8.678  14.550  14.805  0.2606 -0.1121 -0.0818
25713W        W41522   2.458   0.191   1.399  0.4841 -0.1221  0.0629
25714W        W41523   3.619  11.080   1.089 -0.1665  0.0708 -0.1228
25715W        W41524   3.283  14.984  13.096  0.1379  0.2062  0.1073
25716W        W41525   8.875  15.008   0.973  0.0048  0.4034  0.1683
25717W        W41526   4.646   8.840   3.425 -0.2224 -0.3682 -0.1158
25718W        W41527   8.539  13.627   1.810 -0.1767  0.0557 -0.0399
25719W        W41528  11.920   8.015   4.803 -0.1838  0.2135  0.2294
25720W        W41529  17.685   1.793   1.003 -0.0509  0.1115  0.3348
25721W        W41530   6.923   5.646   2.452  0.0506  0.0084 -0.1604
25722W        W41531  17.662   2.179   0.651  0.2440 -0.0626 -0.2130
25723W        W41532   3.609   4.165   2.932 -0.0645  0.0995 -0.0059
25724W        W41533  14.158  13.864  13.891 -0.0461  0.1499 -0.0947
25725W        W41534  10.921   5.912  10.626  0.0911  0.1467  0.3435
25726W        W41535   6.605   2.000  10.625  0.0662  0.1256 -0.2851
25727W        W41536  13.470   5.233  12.378 -0.0905  0.2642 -0.1301
25728W        W41537  11.200  13.881   3.734  0.0583  0.0781 -0.0297
25729W        W41538  14.925  14.220   9.792  0.0796 -0.1903 -0.1358
25730W        W41539  13.512  10.742  13.597 -0.2043 -0.2130 -0.0487
25731W        W41540   0.857   0.566   4.594 -0.2792 -0.0296  0.2123
25732W        W41541  11.426   5.085   4.653 -0.1598  0.2209  0.0866
25733W        W41542   5.749   6.023  10.528  0.3136  0.1367  0.2661
25734W        W41543   1.715   5.526   3.477  0.1811 -0.0909 -0.2240
25735W        W41544   3.855   6.932   2.652 -0.3035  0.0860 -0.0314
25736W        W41545   1.760  13.281  11.279 -0.1657 -0.2457  0.0754
25737W        W41546   4.967   0.485   4.273 -0.2982 -0.2803 -0.1082
25738W        W41547  17.854   8.216  11.325  0.3316 -0.2052 -0.1522
25739W        W41548  10.903  11.346   3.832  0.0874 -0.0007  0.1967
25740W        W41549  14.047  15.692   1.799  0.2551  0.2935 -0.1869
25741W        W41550  10.229   9.752   0.677 -0.2065  0.0612  0.1968
25742W        W41551   5.514  13.370   2.526 -0.0303 -0.0395 -0.2026
25743W        W41552   4.808  14.043   4.322 -0.1683  0.3155  0.0875
25744W        W41553  15.060   3.930  11.240 -0.3445 -0.2060 -0.2199
25745W        W41554  13.508   0.160   5.175  0.3217 -0.0567 -0.1977
25746W        W41555  18.444  15.606  13.918  0.0423  0.0861  0.0802
25747W        W41556  15.019  10.615  13.631  0.1580  0.1368 -0.0683
25748W        W41557   5.713   8.626  11.603  0.0246 -0.1023  0.0072
25749W        W41558   8.068   2.953  13.111  0.0653 -0.1005 -0.2126
25750W        W41559  17.229   7.581   2.402 -0.0915  0.1174  0.0129
25751W        W41560   7.550   4.312  14.233 -0.1388 -0.3165  0.0252
25752W        W41561   3.142  14.906  12.571  0.2223 -0.1279  0.1346
25753W        W41562   2.905   0.828   3.458  0.0152  0.6172  0.2136
25754W        W41563   6.624  15.259   3.439 -0.1004  0.1583  0.3146
25755W        W41564  10.373   1.089   0.401  0.4204  0.0964 -0.0677
25756W        W41565   0.027  13.758  15.017 -0.1546 -0.0716 -0.0853
25757W        W41566   2.495   5.427  14.654 -0.0770  0.2681 -0.4432
25758W        W41567   7.122  11.006   1.689  0.1246  0.1481 -0.0396
25759W        W41568   0.703  10.429  15.204 -0.1121  0.1314  0.2712
25760W        W41569  18.664  13.815  14.204  0.2896  0.1781  0.0894
25761W        W41570  17.974   4.463  11.380 -0.0128 -0.0050 -0.0845
25762W        W41571  10.369  13.271   2.338 -0.1240 -0.0424  0.0959
25763W        W41572  15.190  14.990   3.190 -0.4171  0.0444  0.3992
25764W        W41573  11.851  11.422   2.388 -0.4497 -0.1049 -0.1990
25765W        W41574   4.382   9.666  13.047 -0.3275 -0.1014  0.0476
25766W        W41575   9.333   7.855  10.193  0.1622  0.2725 -0.2507
25767W        W41576   2.140   6.240  14.354 -0.1233 -0.1391 -0.0770
25768W        W41577  16.087  12.582   1.569  0.0588 -0.0783 -0.2591
25769W        W41578  14.634   9.622   1.487 -0.1319  0.0038  0.0487
25770W        W41579  17.722   7.983   3.646 -0.0345  0.1337  0.0055
25771W        W41580  18.023   2.374  14.406 -0.5189  0.0524 -0.2453
25772W        W41581   1.361  14.695   3.158  0.1751  0.0814  0.0961
25773W        W41582  13.736  16.737  11.421 -0.0941 -0.1463 -0.0908
25774W        W41583  15.972  18.402  12.371  0.3712 -0.5014 -0.1654
25775W        W41584  15.403   2.039   0.973  0.1273  0.0405  0.1117
25776W        W41585   7.366   2.065  15.183  0.2591  0.0717 -0.2858
25777W        W41586   8.294   0.801   3.723 -0.3514 -0.0532  0.2644
25778W        W41587  15.258   1.403   4.925 -0.2136 -0.0245 -0.3397
25779W        W41588   2.031   2.667   0.808  0.2229 -0.2679 -0.1657
25780W        W41589   3.189   9.442  10.944 -0.0850  0.1568  0.3833
25781W        W41590   7.852   3.337  12.848 -0.3729 -0.1348  0.0579
25782W        W41591   1.267   5.243   0.644  0.4217  0.0603 -0.2665
25783W        W41592  12.546   5.337  14.358 -0.2116 -0.3292 -0.4747
25784W        W41593   8.364   4.321   4.448 -0.0826  0.0189 -0.3103
25785W        W41594   0.333  17.612  12.342  0.2777  0.0877  0.1236
25786W        W41595   4.300  11.343  13.381 -0.2336  0.2165  0.1355
25787W        W41596   1.894   3.024   2.647 -0.0455 -0.1458  0.1303
25788W        W41597   9.184   3.837  13.064  0.0357  0.2427 -0.0727
25789W        W41598   8.430  12.878  12.166 -0.1843 -0.0476 -0.0889
25790W        W41599  13.869   8.253   2.310  0.1901  0.1226  0.2075
25791W        W41600   5.669   5.325   1.286 -0.1249 -0.2516 -0.1279
25792W        W41601   7.007  13.448   2.478  0.1321 -0.2406 -0.2407
25793W        W41602   0.481  10.538  10.418  0.4155  0.1342 -0.2271
25794W        W41603  10.706  13.447   2.637  0.0840  0.1950  0.1777
25795W        W41604  17.866   7.433   1.322 -0.1819 -0.3137 -0.1485
25796W        W41605  16.937   9.617  12.235  0.0752 -0.0796  0.1298
25797W        W41606   6.588  14.061   0.579  0.0830  0.4898  0.1410
25798W        W41607   5.252  14.487  12.059  0.1658 -0.1916  0.1672
25799W        W41608  11.114   7.005   3.701 -0.1248  0.1022  0.1869
25800W        W41609  16.824   2.744   5.183 -0.2677  0.2136 -0.2145
25801W        W41610  11.100   2.761  12.282 -0.1096  0.3656  0.0411
25802W        W41611   8.445   8.846  11.264 -0.1949 -0.0024 -0.2688
25803W        W41612  14.825   0.188   4.516  0.0524  0.1101 -0.4426
25804W        W41613   9.194   1.180  14.758  0.0403  0.1582 -0.0813
25805W        W41614   8.531   9.160   3.685  0.0831 -0.2642  0.0219
25806W        W41615  13.720   9.577  10.138 -0.2199 -0.0668  0.0764
25807W        W41616  10.176   8.450   1.187 -0.1421  0.1279 -0.1059
25808W        W41617  16.687  11.598  10.415 -0.0603  0.1950  0.3227
25809W        W41618   7.395  14.407  12.098  0.1564  0.3301  0.3591
25810W        W41619   1.195  13.358  12.594 -0.0636 -0.0448 -0.6047
25811W        W41620  15.886   9.730   1.131  0.0731  0.2400 -0.0826
25812W        W41621   6.188   1.872  12.901 -0.0976 -0.0577  0.2221
25813W        W41622  17.916  18.371   4.348 -0.0967  0.3651 -0.1016
25814W        W41623  17.765   6.877  12.763 -0.0249 -0.2929 -0.1557
25815W        W41624   1.212  18.564   1.739 -0.2813  0.0493 -0.0147
25816W        W41625  17.551  10.456   5.209  0.1214 -0.1081  0.1981
25817W        W41626   0.995  14.009  12.212  0.1869 -0.0003  0.2687
25818W        W41627  17.933   0.725  13.991  0.0904  0.0076  0.0821
25819W        W41628   7.286   3.504   5.087  0.2807  0.1006 -0.2898
25820W        W41629  14.596  10.143  15.346 -0.2499 -0.0627 -0.0516
25821W        W41630   8.072   6.277   2.036 -0.0683  0.0912  0.0563
25822W        W41631  17.573   8.100  15.397 -0.1704  0.0753  0.1333
25823W        W41632   0.024   5.263  13.226 -0.5177  0.0504 -0.0722
25824W        W41633   5.527   2.795   4.463  0.1699  0.2178  0.1545
25825W        W41634   5.403  10.261  12.935  0.0359  0.4245 -0.1339
25826W        W41635   2.648  14.316   1.911  0.0100 -0.0031 -0.1719
25827W        W41636   6.029   7.077  10.186 -0.0119 -0.0902 -0.1927
25828W        W41637   4.668  14.380   1.905  0.0251 -0.2113 -0.1520
25829W        W41638   7.386  12.042  10.823  0.0757 -0.0842 -0.1022
25830W        W41639  10.061  15.190   2.453  0.0981 -0.3423 -0.2492
25831W        W41640   5.882  13.107   1.751 -0.1626  0.0889  0.1323
25832W        W41641   6.283   2.852  12.636  0.1077 -0.3605 -0.1755
25833W        W41642   9.522   1.959  12.643  0.1639 -0.1737 -0.1772
25834W        W41643  11.094  16.540   0.979  0.0030 -0.0899 -0.0592
25835W        W41644  18.231   5.645   9.973  0.0595 -0.1400  0.0116
25836W        W41645  12.694  18.225  13.089  0.4147 -0.1701  0.0823
25837W        W41646  16.745   6.804   4.097 -0.3465 -0.1846 -0.1745
25838W        W41647  11.292   8.880   5.029  0.4760  0.2530  0.3663
25839W        W41648  11.484  11.369   5.768  0.1063 -0.0399 -0.1320
25840W        W41649   3.892  14.060   5.394  0.1917  0.0252  0.0439
25841W        W41650  14.464  11.891   3.414  0.1059  0.2074  0.0329
25842W        W41651   3.127   0.098   2.777  0.1800  0.0528 -0.0935
25843W        W41652   2.172  15.881  13.548  0.4496 -0.1355  0.0562
25844W        W41653   0.638   1.203  14.921 -0.2058 -0.1406  0.1908
25845W        W41654   1.885  11.825  14.348  0.2073  0.0438 -0.0616
25846W        W41655  13.468  12.811   1.190  0.3324 -0.2139 -0.1566
25847W        W41656  13.310   1.176   5.334 -0.1270  0.1024 -0.2231
25848W        W41657   6.289   8.344  10.916  0.1881  0.1173 -0.0664
25849W        W41658  18.632  18.439  12.294 -0.0265  0.0893 -0.1406
25850W        W41659  10.726  16.487  15.294  0.1826  0.1936 -0.1273
25851W        W41660   0.034   0.188  11.025 -0.2619 -0.0631 -0.2847
25852W        W41661  15.596  14.460  11.526  0.1035  0.0220 -0.0868
25853W        W41662  13.907  16.646   3.904 -0.1930 -0.1750 -0.0128
25854W        W41663   5.995  15.194   9.465 -0.0584 -0.2004  0.1297
25855W        W41664   5.508   1.043   3.401 -0.0221 -0.1346 -0.1801
25856W        W41665   2.057   4.427   0.638 -0.1546 -0.0434  0.0901
25857W        W41666  10.932  15.480   3.404 -0.2335 -0.3630 -0.0082
25858W        W41667  13.200   6.558   1.405  0.0619  0.0898 -0.1536
25859W        W41668   2.457  17.882   5.227  0.3822 -0.0625  0.4555
25860W        W41669   3.031  15.754  10.693 -0.0940 -0.1535  0.0635
25861W        W41670   2.656   9.131   4.762  0.2584  0.0278 -0.0141
25862W        W41671   7.281   1.127   5.466 -0.0154  0.0337  0.1400
25863W        W41672  17.480  16.086  10.996 -0.3816  0.0626 -0.0109
25864W        W41673  15.884   8.902   4.101  0.1281  0.3338 -0.2397
25865W        W41674   4.150   4.582  10.620  0.1956  0.0768  0.2084
25866W        W41675  14.567  14.487  13.947  0.3481 -0.0213 -0.2064
25867W        W41676  13.145  13.015  13.883  0.1391 -0.1037  0.0354
25868W        W41677   2.092   8.676  13.596  0.0406  0.1047 -0.4502
25869W        W41678  11.723   7.218  11.846  0.0930  0.1656 -0.0316
25870W        W41679  10.423  14.783  14.230  0.2951 -0.1991 -0.1724
25871W        W41680  15.731  17.008   1.648 -0.1714 -0.0044  0.4007
25872W        W41681  10.290   8.103  12.211 -0.0290  0.2147 -0.4586
25873W        W41682  13.507   4.696   0.559  0.0384  0.0429  0.2087
25874W        W41683  11.985  15.032   0.642  0.0238 -0.0010  0.0072
25875W        W41684  10.406   6.774   5.071 -0.0263 -0.0217 -0.3193
25876W        W41685   4.930  11.637  15.442  0.0121  0.2298  0.3214
25877W        W41686   8.124  18.569  14.183 -0.0218 -0.0175  0.1399
25878W        W41687  12.898  15.741   3.594 -0.0800  0.2582 -0.0435
25879W        W41688  17.350  17.634  11.657 -0.0632 -0.0024  0.0370
25880W        W41689  11.515   6.651  14.567  0.1464  0.0239  0.1174
25881W        W41690   5.841  10.937  15.470 -0.0167 -0.0284 -0.1285
25882W        W41691  10.315   3.546   0.374  0.1158 -0.0998 -0.2731
25883W        W41692   8.454  13.238   2.128 -0.3010 -0.1855 -0.0415
25884W        W41693   3.207   8.494   2.750 -0.1520 -0.0039 -0.0912
25885W        W41694   6.693   6.932   4.483 -0.1406 -0.0867  0.3031
25886W        W41695  12.587   5.453  14.867 -0.0983 -0.0465 -0.0295
25887W        W41696   9.721   7.779  10.531  0.0199  0.0083  0.0770
25888W        W41697  17.073  17.394  13.194 -0.1089 -0.2592 -0.1322
25889W        W41698  18.088  18.393   2.778 -0.1782 -0.1025  0.3684
25890W        W41699   4.584   5.883   1.133  0.0104  0.0330  0.1029
25891W        W41700   5.923   9.122   4.392 -0.1721 -0.2138  0.0299
25892W        W41701  10.870  14.540  10.879  0.2209 -0.1626  0.0227
25893W        W41702  16.895  16.007   3.791 -0.3018 -0.3147 -0.1361
25894W        W41703   3.646   0.680   4.035 -0.2380 -0.1204  0.0991
25895W        W41704  12.088   3.693  11.761 -0.3802 -0.1117  0.1685
25896W        W41705  16.516   8.756  14.775  0.2772 -0.1771  0.2455
25897W        W41706   5.549   5.153   2.894  0.2171 -0.0673 -0.0162
25898W        W41707  13.967  15.576  12.258  0.0307 -0.0495  0.2623
25899W        W41708  17.437  12.506   2.229  0.3640 -0.3216 -0.0898
25900W        W41709   9.740  11.797  10.222 -0.0733 -0.0995  0.0157
25901W        W41710   1.177   1.069   0.895  0.0695  0.3268 -0.1754
25902W        W41711   1.348  17.480   3.140  0.0110 -0.0897 -0.0697
25903W        W41712   7.072  10.219  13.951  0.1409  0.1245  0.0041
25904W        W41713  18.663  10.125   4.170  0.0643 -0.1195 -0.1290
25905W        W41714   3.476   6.818   1.817 -0.0482  0.4853  0.0841
25906W        W41715  15.195   4.837   3.092 -0.0479  0.3001 -0.0157
25907W        W41716   6.676   5.350   0.220 -0.1730  0.1532 -0.1965
25908W        W41717   1.222   8.916   0.678  0.1154  0.0451  0.1295
25909W        W41718  18.055  13.237  15.354  0.2163 -0.2511 -0.0062
25910W        W41719   1.109  15.482   1.857 -0.2177 -0.0041 -0.2081
25911W        W41720  16.076  11.925   3.841  0.1347  0.1467  0.2907
25912W        W41721   3.971   8.760  14.772 -0.0330 -0.0135 -0.0481
25913W        W41722  18.053   9.285  13.856  0.0014 -0.0758  0.2511
25914W        W41723   0.506  12.158  13.789  0.1466  0.0853 -0.0556
25915W        W41724   9.865   0.651   1.359 -0.2593 -0.0396 -0.1779
25916W        W41725   0.562  10.313  14.073 -0.1036  0.1758  0.2670
25917W        W41726  17.893   4.937   2.472  0.0284  0.0504  0.1603
25918W        W41727   8.039   3.446   0.849  0.2293  0.1300  0.1787
25919W        W41728  10.696  15.072   3.620 -0.0953 -0.1473 -0.0093
25920W        W41729   1.274   8.595   5.136  0.1330  0.1623  0.5162
25921W        W41730  10.995  14.915  14.007 -0.0477  0.0489  0.1347
25922W        W41731   0.086  14.423  14.368  0.2384 -0.0447  0.0223
25923W        W41732   9.619   8.244  11.264  0.0013  0.2384 -0.1911
25924W        W41733  18.107  15.139  14.040 -0.1112  0.1963  0.2305
25925W        W41734   1.516  17.220  12.872  0.3545 -0.0821 -0.3451
25926W        W41735  10.089  12.674  10.083 -0.0007  0.1438  0.0256
25927W        W41736   1.559   1.142  11.070  0.1863  0.0627  0.0303
25928W        W41737   4.649  11.234   0.518  0.0085  0.0736  0.1276
25929W        W41738  12.190  14.938   4.203 -0.0562 -0.2617 -0.4397
25930W        W41739   2.479  15.082   4.061  0.0579 -0.0815  0.2324
25931W        W41740  16.609   2.167   1.994  0.0691  0.1143 -0.2562
25932W        W41741   8.829   0.898  15.007  0.0362 -0.2058  0.1598
25933W        W41742   7.270   2.135   2.723  0.0815 -0.0154 -0.2116
25934W        W41743   2.505   4.362  13.715  0.0717  0.0731 -0.0701
25935W        W41744   2.134   8.449  13.082 -0.4313 -0.0816  0.0099
25936W        W41745   0.241  10.649  14.352  0.0674 -0.0814 -0.0784
25937W        W41746  14.716  10.164   0.402 -0.3418  0.1081 -0.1314
25938W        W41747   7.635  13.971   4.205  0.1152  0.1027 -0.0792
25939W        W41748  18.351   1.938  15.128  0.1991 -0.0389 -0.1210
25940W        W41749  11.237  13.384  11.562 -0.0381  0.3368  0.0558
25941W        W41750  15.580  10.382   0.921 -0.0806  0.1005 -0.1161
25942W        W41751   7.740  18.302  12.636 -0.0639 -0.0102  0.1957
25943W        W41752  12.042  14.538   3.350 -0.0012  0.2598  0.0050
25944W        W41753  12.319  15.969   0.932 -0.2071 -0.0606 -0.2058
25945W        W41754   5.659   0.218   3.878 -0.1526  0.2332 -0.2363
25946W        W41755  16.847  10.732   2.087 -0.1643 -0.1126 -0.2130
25947W        W41756  17.968   1.502  14.767 -0.1273 -0.2609  0.1985
25948W        W41757  17.995  14.912   0.413 -0.1159 -0.2940 -0.2342
25949W        W41758   4.702  15.394   0.615 -0.1084  0.0106  0.0059
25950W        W41759   0.561   2.776  12.496  0.0952 -0.1597  0.0267
25951W        W41760   3.614   1.248  15.571 -0.1300  0.0214  0.4160
25952W        W41761   8.368   9.568   2.646  0.1026  0.2755 -0.1542
25953W        W41762  11.973  12.559   4.085 -0.0449  0.2119  0.2197
25954W        W41763  14.564   4.469  12.617 -0.1305 -0.0175  0.0384
25955W        W41764   6.184  10.719   5.008  0.3295  0.0509  0.0618
25956W        W41765   0.764   5.527  11.457  0.2738 -0.0590  0.3049
25957W        W41766   7.172  18.357   0.367  0.0319 -0.1204  0.0354
25958W        W41767  11.018   8.269   1.697 -0.1022 -0.1149  0.0466
25959W        W41768   3.140  16.994   2.510  0.6212 -0.1583  0.0070
25960W        W41769   0.808  11.553   0.386  0.1695  0.1207 -0.0209
25961W        W41770   8.327   8.720   3.591 -0.0746 -0.1271 -0.1766
25962W        W41771   2.160   2.505   2.656 -0.0331  0.2476 -0.2216
25963W        W41772  15.077  17.855   3.657 -0.1312 -0.0663 -0.0706
25964W        W41773  16.769   3.504   2.860  0.0113  0.1500  0.0650
25965W        W41774   4.329   1.214   4.079 -0.1169 -0.1589 -0.2500
25966W        W41775   0.585  12.802   5.050  0.1217 -0.1874 -0.0002
25967W        W41776   4.622   8.021   2.854  0.1395  0.2058  0.1464
25968W        W41777   2.595  14.227   5.217 -0.1806  0.1593  0.0030
25969W        W41778   5.578   7.694   0.181 -0.0608  0.3040  0.0112
25970W        W41779   2.993  14.347   3.614 -0.0789  0.0217  0.1506
25971W        W41780   6.572   2.084   2.286  0.1901  0.2923 -0.0306
25972W        W41781  11.525   6.661  11.800  0.0173  0.1018 -0.0407
25973W        W41782   8.336  17.174  12.806 -0.1084  0.0995 -0.1431
25974W        W41783   9.098  14.414  12.091  0.1628 -0.1312 -0.1328
25975W        W41784  11.522  10.322   5.374  0.3034  0.3889 -0.2067
25976W        W41785   2.139  17.488   5.242  0.2758 -0.2592 -0.1033
25977W        W41786  15.330  16.868  11.801  0.1098  0.1092  0.1072
25978W        W41787   2.541   7.138   3.233 -0.3052  0.0945  0.1130
25979W        W41788   6.004  14.274   4.581 -0.0601 -0.0211  0.0844
25980W        W41789  11.938  18.551   3.789  0.1883  0.0500  0.0929
25981W        W41790  15.404   2.735   5.076  0.2535  0.1341  0.0344
25982W        W41791  16.560  10.279  11.587 -0.2353 -0.2321 -0.1353
25983W        W41792   8.307  11.139   1.074  0.0839  0.0126 -0.1768
25984W        W41793  13.331   8.682  11.198 -0.1349 -0.0188  0.0042
25985W        W41794   3.126  16.834   4.632  0.0598  0.3175  0.0398
25986W        W41795   1.653   9.034  11.641 -0.2987 -0.1083  0.1964
25987W        W41796  16.402  13.201   3.146  0.1740  0.4661  0.0071
25988W        W41797   9.849   6.311   4.696  0.0947 -0.1414 -0.2799
25989W        W41798  18.580   7.691  11.833  0.0901  0.1026  0.0366
25990W        W41799  10.890   1.810  12.509  0.4814 -0.0385  0.1597
25991W        W41800  13.049  14.390   4.663  0.0283  0.3005  0.0396
25992W        W41801  12.937   6.056  15.253  0.0014  0.1720 -0.3559
25993W        W41802   7.541  15.973   1.350 -0.1919  0.1006 -0.0442
25994W        W41803  12.922   4.247  12.357 -0.1010  0.0790 -0.1638
25995W        W41804   5.999   5.142  13.598 -0.0068  0.0371 -0.0470
25996W        W41805  14.697  18.333  13.865  0.0316 -0.0297  0.1294
25997W        W41806  17.911  17.786  14.949  0.0118 -0.0679  0.0966
25998W        W41807  10.439   7.198  15.166  0.1376 -0.0514  0.0573
25999W        W41808  13.495  13.111   3.051 -0.0089 -0.0433  0.0150
26000W        W41809  17.757   5.808  13.897 -0.0312  0.3526 -0.3406
26001W        W41810   7.377  17.059   1.101 -0.2222  0.1679  0.0287
26002W        W41811  12.612   3.262   3.460  0.2931 -0.1270  0.1469
26003W        W41812  15.576   3.298  13.628  0.1048  0.2335 -0.1459
26004W        W41813  13.166  12.821  14.937  0.5424 -0.3064 -0.1774
26005W        W41814   4.962  17.740  14.128 -0.0368  0.0829 -0.0054
26006W        W41815  16.501  14.267   0.980  0.1966 -0.1873 -0.1267
26007W        W41816   1.326  13.469  12.132 -0.1337  0.0354 -0.0045
26008W        W41817   9.173   2.507   3.954 -0.1834  0.1685 -0.1579
26009W        W41818  10.323   1.913  13.464  0.1693  0.1502  0.0759
26010W        W41819   7.713   2.758   0.208 -0.3201  0.0934  0.0052
26011W        W41820   8.818  17.088   0.187 -0.1758 -0.2100  0.0213
26012W        W41821   6.525  13.052   1.101 -0.2573 -0.2934  0.3588
26013W        W41822  14.753  15.926   1.376 -0.4213  0.0899  0.2619
26014W        W41823   6.693  15.827  13.376  0.1260 -0.0169 -0.1749
26015W        W41824   7.551  11.300   1.698 -0.1127  0.0230  0.0327
26016W        W41825   0.710   3.676   3.856 -0.1925 -0.1172 -0.2539
26017W        W41826   0.418  18.379  13.750  0.2590 -0.0161  0.2527
26018W        W41827  10.419   8.639   4.247  0.4603  0.0805  0.1106
26019W        W41828   3.949   8.049   5.111 -0.2701 -0.1753  0.2123
26020W        W41829   9.463   8.066  14.016 -0.2643  0.2292  0.0165
26021W        W41830   6.062   6.439   0.740 -0.0786 -0.0910 -0.1740
26022W        W41831  17.526  12.932  11.321  0.2683  0.2667  0.2778
26023W        W41832   4.746  17.296   0.490  0.0795  0.1038  0.1039
26024W        W41833  11.828  13.297   3.410  0.2853  0.0474  0.1927
26025W        W41834   9.006   9.182  12.294 -0.2634 -0.0191  0.0027
26026W        W41835   4.878   8.260   4.108 -0.1465  0.0455  0.2436
26027W        W41836  17.721   2.488  13.465 -0.0538  0.1393  0.2026
26028W        W41837   1.305  16.972   2.216  0.0663 -0.0168 -0.0606
26029W        W41838  10.945   4.787  14.983  0.0054 -0.1858 -0.4181
26030W        W41839  16.433   5.411   0.981  0.0571  0.2868  0.1151
26031W        W41840  12.946   3.203   2.384 -0.3552  0.1791 -0.2117
26032W        W41841  12.594  14.342  15.536  0.2188  0.2987 -0.0224
26033W        W41842   9.854  15.406   3.274  0.1002 -0.1141 -0.2090
26034W        W41843  12.916   3.509   4.431  0.0522  0.0913  0.0402
26035W        W41844   6.715   8.625   2.432 -0.1323  0.0917  0.1562
26036W        W41845   5.087  14.711  13.919  0.1563 -0.4214  0.1164
26037W        W41846   7.298   5.977   2.633 -0.0779 -0.0622  0.1050
26038W        W41847   2.537  11.682  11.715  0.0605 -0.0407 -0.3506
26039W        W41848   1.440   5.129  12.747  0.1507  0.0273  0.0236
26040W        W41849  11.205  10.031  12.987  0.0191 -0.2499 -0.1752
26041W        W41850  13.479  11.842  12.524  0.2265 -0.2670 -0.2371
26042W        W41851   6.231  15.087   4.907  0.1951  0.1326 -0.0426
26043W        W41852  12.732   9.082  14.230 -0.0332 -0.2441 -0.1815
26044W        W41853   0.958  14.659   2.227 -0.2389 -0.1002 -0.0901
26045W        W41854  17.190  16.401   9.613 -0.0896  0.1567 -0.0570
26046W        W41855   9.192   8.510  11.107  0.0563  0.0176  0.0173
26047W        W41856  13.121  13.327   4.605  0.0833  0.1824 -0.1250
26048W        W41857  10.830   6.858  15.180 -0.0926 -0.0385 -0.0196
26049W        W41858  18.372   5.814   4.239 -0.2493 -0.0162  0.0367
26050W        W41859   9.215  14.884   0.669  0.0800  0.0936 -0.1429
26051W        W41860  18.376   2.051  11.157  0.0347  0.0929 -0.2573
26052W        W41861   0.352   1.772  14.407 -0.2052  0.2070 -0.1418
26053W        W41862   3.241   0.812  12.637  0.2111  0.1295  0.1447
26054W        W41863  14.190  14.810   3.282 -0.0957 -0.1223  0.2747
26055W        W41864  13.488  10.701  12.044 -0.0619 -0.0262  0.1827
26056W        W41865   4.683   8.047  12.424  0.3591 -0.0605  0.2484
26057W        W41866   9.897   3.269   1.409 -0.2005 -0.0479  0.2041
26058W        W41867   2.940   0.220   1.352 -0.0445  0.1161 -0.2709
26059W        W41868   7.202   6.682   4.971 -0.1885  0.0500 -0.0460
26060W        W41869  13.736  16.278  13.811  0.0826  0.0482 -0.0690
26061W        W41870   7.722   0.106  13.943  0.1056 -0.0521 -0.3150
26062W        W41871   5.750   9.295  13.307  0.0436 -0.0385 -0.3154
26063W        W41872  17.210   4.527   4.858 -0.0875 -0.1372  0.0144
26064W        W41873   8.964   8.117   3.368  0.2045  0.0997  0.2199
26065W        W41874   5.150  17.038   0.612  0.1150 -0.0290  0.2881
26066W        W41875  13.626   0.902  13.285  0.3480  0.1237 -0.0465
26067W        W41876   7.800   2.452  14.268  0.0093 -0.2674  0.3944
26068W        W41877  13.692  11.492  12.207  0.1950 -0.0386 -0.0207
26069W        W41878   2.250   1.006  12.256 -0.1601 -0.0842 -0.2073
26070W        W41879   3.351   4.119   1.040  0.2354 -0.1488  0.1052
26071W        W41880  17.441  17.769  13.427  0.1427  0.0993 -0.0048
26072W        W41881  14.144   8.261  10.004  0.0043 -0.3318 -0.1692
26073W        W41882  12.522   9.112  11.017 -0.0931 -0.2593  0.2625
26074W        W41883  12.900  12.597   3.271  0.0437  0.1452 -0.0687
26075W        W41884  14.824  17.193  11.763  0.0216  0.0457  0.0425
26076W        W41885   5.454   4.716   4.161  0.1682  0.0959  0.0104
26077W        W41886   6.599  11.458  13.865  0.2994 -0.0934 -0.0240
26078W        W41887   4.672  14.644   1.390  0.0599  0.1564  0.0801
26079W        W41888  15.710  14.787   4.256 -0.1061  0.0327 -0.0875
26080W        W41889  11.768   0.562  13.059 -0.4762 -0.1519 -0.3414
26081W        W41890   2.193  14.117   4.161 -0.1972  0.0964 -0.0790
26082W        W41891  10.744   1.775   2.073 -0.0934 -0.5306  0.1901
26083W        W41892   3.434  16.415  15.271 -0.1645 -0.0655  0.3619
26084W        W41893   2.593   8.083   0.012 -0.0991 -0.0731  0.1013
26085W        W41894   0.955   5.110  13.707  0.0042  0.0667 -0.2812
26086W        W41895   1.549   9.072  15.354 -0.1220  0.1347 -0.5636
26087W        W41896  18.519  16.944   0.769 -0.0183 -0.2657  0.4677
26088W        W41897   2.444  12.562  13.182  0.0181  0.3132  0.1034
26089W        W41898  11.764   1.613  11.150 -0.1468  0.0910 -0.1412
26090W        W41899   5.043   4.301  11.085 -0.0283 -0.1831 -0.1848
26091W        W41900   1.688   5.843  14.166  0.3249  0.4473 -0.1003
26092W        W41901   9.721   5.789  13.214 -0.1656 -0.1308 -0.1714
26093W        W41902   9.362   0.517   5.686 -0.0798 -0.2285  0.0807
26094W        W41903  15.195  18.653   5.727 -0.1875  0.0569  0.0849
26095W        W41904   9.292   3.355  12.707 -0.2194  0.1867 -0.3305
26096W        W41905  13.929   9.243   3.776  0.0056 -0.0293  0.0864
26097W        W41906   6.775  11.434  15.450 -0.0347  0.1055  0.0245
26098W        W41907  12.809   4.212  15.448 -0.3401  0.0272 -0.0910
26099W        W41908  10.612  12.877   4.390  0.0116  0.0627  0.0655
26100W        W41909  13.288  18.126  13.995  0.0469 -0.3550  0.3435
26101W        W41910  14.734  18.668  14.660  0.2007 -0.1915 -0.0768
26102W        W41911   7.636   7.426   0.458 -0.1250  0.0070  0.2109
26103W        W41912   8.812  17.782  14.567  0.2538 -0.1659  0.1634
26104W        W41913  14.009   0.877  15.381 -0.2558 -0.0043 -0.3301
26105W        W41914  12.932   1.157  14.705 -0.0242  0.2007  0.3068
26106W        W41915   9.979  15.278  11.982 -0.3655  0.1122 -0.2218
26107W        W41916   8.823   9.545   3.710  0.0204  0.0955 -0.1739
26108W        W41917  12.406  10.086   1.436  0.0030 -0.2333 -0.1006
26109W        W41918  17.991   7.744  13.751 -0.0163  0.0351 -0.0614
26110W        W41919  16.928  18.053  10.448 -0.5197 -0.1056  0.2120
26111W        W41920   8.997  17.804   4.554 -0.2331 -0.4507 -0.1904
26112W        W41921   6.965   4.768  13.436 -0.0684  0.1270 -0.3672
26113W        W41922  11.026  12.578   4.450 -0.1198  0.1963  0.1701
26114W        W41923  16.597   2.287  13.488 -0.1219  0.0950  0.2173
26115W        W41924   3.121  12.384   3.816 -0.1768 -0.0665  0.0347
26116W        W41925  16.223   3.144   3.355  0.1739  0.0693 -0.2598
26117W        W41926   1.684  10.349   1.204 -0.3134  0.1026  0.1984
26118W        W41927  14.543  16.214   5.040 -0.0857 -0.0190  0.1446
26119W        W41928   8.900   7.588  12.770 -0.0598  0.0869  0.2357
26120W        W41929  10.260   0.713   5.603  0.5633 -0.0484 -0.1975
26121W        W41930   2.849  13.764   3.176  0.0977  0.0940  0.0723
26122W        W41931  16.010   5.916  14.259 -0.3307  0.0204  0.0142
26123W        W41932   3.865   8.295   1.617 -0.2540  0.0502  0.0762
26124W        W41933   2.580   4.354   0.576 -0.0286 -0.1793  0.2595
26125W        W41934  15.426   2.695   3.835  0.0912  0.0429 -0.1760
26126W        W41935  16.982  13.791  13.019 -0.2572  0.1591  0.2955
26127W        W41936  14.371  16.257   1.382 -0.1215 -0.0321 -0.0202
26128W        W41937  13.995   8.753  13.079 -0.2700  0.3640  0.1629
26129W        W41938   1.555   6.059  11.149  0.0680 -0.3431  0.0995
26130W        W41939  14.168  15.923   4.139 -0.0993  0.0103  0.0408
26131W        W41940  17.434  14.424  10.804  0.2352  0.1066 -0.2265
26132W        W41941  16.404  16.672   1.530  0.0772 -0.1019 -0.1071
26133W        W41942  17.110   4.544  13.982  0.0176  0.1765  0.2273
26134W        W41943   4.145   2.508  15.581 -0.0512 -0.0196 -0.3183
26135W        W41944   7.047   5.262  15.505 -0.0860  0.0035 -0.1510
26136W        W41945   3.206  15.634   0.951 -0.0091  0.1562 -0.1327
26137W        W41946  18.602  17.133  14.065 -0.0605 -0.1864  0.2903
26138W        W41947   8.913   8.168   0.740  0.0224  0.1048  0.2793
26139W        W41948  10.080  14.295   5.432 -0.2177  0.2347  0.0189
26140W        W41949   1.542   6.317  14.371 -0.2600  0.0639 -0.0012
26141W        W41950   0.184   0.965  12.011  0.2488 -0.1562 -0.0964
26142W        W41951  13.212   4.190   3.653 -0.0319  0.1287  0.0513
26143W        W41952  18.364  13.438  14.592  0.2307  0.3913  0.0093
26144W        W41953   6.409   9.721  12.153 -0.1589 -0.0912 -0.0134
26145W        W41954   6.295  10.968   4.075 -0.0084 -0.1647  0.2237
26146W        W41955   3.315  10.409  13.285 -0.0037  0.0762  0.0805
26147W        W41956  13.293   0.461   0.237  0.0183 -0.0634 -0.3087
26148W        W41957   2.495  15.742  11.474 -0.1303  0.0679 -0.1716
26149W        W41958   2.218   0.188  13.483  0.0990 -0.0500  0.0839
26150W        W41959  14.165  17.281  13.873  0.0739 -0.1018 -0.0909
26151W        W41960  17.939   1.756   5.730 -0.2002 -0.2035  0.0675
26152W        W41961   2.800  14.861   0.742  0.1238 -0.0407  0.0694
26153W        W41962   1.614   6.827  13.988  0.0210 -0.1064 -0.1571
26154W        W41963   2.022  16.611  11.399  0.1038 -0.1152 -0.0941
26155W        W41964   2.039  14.946  11.204 -0.0620  0.0301  0.1104
26156W        W41965   3.826  11.543  13.495  0.0905 -0.2143 -0.0709
26157W        W41966  13.317  12.364  14.712 -0.2229  0.0153 -0.1330
26158W        W41967  12.446  17.917  12.199 -0.1173  0.2705  0.4867
26159W        W41968   4.176   2.021   3.409 -0.0358 -0.2270 -0.0676
26160W        W41969   6.892  12.879  11.562  0.1311  0.0192 -0.2789
26161W        W41970   1.761  15.970  12.013  0.2214  0.0430 -0.3375
26162W        W41971   4.207   5.693  12.098 -0.2316  0.0616  0.2942
26163W        W41972   2.950   3.060  13.950 -0.0617  0.3441 -0.1153
26164W        W41973   7.095  15.615   0.509 -0.1618 -0.1125  0.0304
26165W        W41974   4.126   1.500   1.468 -0.2152 -0.1724  0.1051
26166W        W41975   4.138  14.067  15.034  0.1464 -0.1772  0.0796
26167W        W41976   6.638  10.495   0.392 -0.1516  0.1542 -0.0345
26168W        W41977  12.956   6.725   0.476 -0.0549  0.0914  0.2003
26169W        W41978  18.121   7.511  14.736 -0.1671 -0.1769 -0.2180
26170W        W41979   1.480   6.406  13.631  0.1261 -0.0356  0.0054
26171W        W41980  14.578  14.515   0.458 -0.2187 -0.1483  0.0145
26172W        W41981  15.041   9.667  12.839  0.1737  0.2290 -0.0980
26173W        W41982   1.762  13.706  10.941 -0.4930 -0.2032  0.1736
26174W        W41983  11.914  18.358   2.145 -0.0230  0.1236  0.2871
26175W        W41984  17.247  12.106  11.193  0.4873  0.1574  0.0569
26176W        W41985  17.606  10.447  12.693 -0.1299  0.0224 -0.0089
26177W        W41986   0.953   4.974   2.452  0.2873 -0.2677 -0.0987
26178W        W41987   2.652   5.768  12.352  0.1976  0.2456 -0.1705
26179W        W41988   6.488   7.204  15.078 -0.5260 -0.1844 -0.2652
26180W        W41989  14.305   1.265   5.393 -0.0988  0.0047 -0.0194
26181W        W41990  13.918   1.705  11.985 -0.3168 -0.1161  0.1201
26182W        W41991  12.538  17.104   0.008 -0.1371  0.0731  0.0539
26183W        W41992  16.137  18.354  13.364  0.0085  0.1091  0.0277
26184W        W41993  13.878   3.426   2.477  0.1203  0.1774  0.1959
26185W        W41994  18.315  12.742   1.570  0.0565  0.1849 -0.0181
26186W        W41995  13.015   4.051   4.927  0.1117 -0.0544 -0.0555
26187W        W41996  12.209  13.270  14.192 -0.0737 -0.3593 -0.0966
26188W        W41997  16.087   4.624   0.894 -0.1548 -0.1956  0.0380
26189W        W41998   6.779   5.482   4.000  0.2368 -0.0371  0.0701
26190W        W41999   5.955  15.826   3.721 -0.0966  0.0551  0.1228
26191W        W42000  14.789   3.955  11.705  0.3319  0.2062 -0.1242
26192W        W42001  14.373   4.895  12.888 -0.0493  0.0092  0.0823
26193W        W42002   3.196  18.552   1.054 -0.1532  0.1847  0.2727
26194W        W42003   7.270   5.343  14.042 -0.1943  0.0698 -0.0419
26195W        W42004   8.939  11.738  15.585  0.1104  0.0092 -0.0508
26196W        W42005   2.361   3.259  13.342 -0.2443 -0.1402  0.2069
26197W        W42006   2.739   3.872   0.655 -0.0461 -0.1842  0.2507
26198W        W42007   9.907  10.933  15.204  0.1893 -0.0271 -0.2013
26199W        W42008  14.902   0.484   4.966  0.1918 -0.0493 -0.1423
26200W        W42009   1.180   2.430  15.183 -0.2791  0.1160  0.1058
26201W        W42010   6.901   7.978  14.600 -0.1263 -0.0808 -0.1131
26202W        W42011  18.383   8.838  10.467  0.0235  0.3447 -0.7615
26203W        W42012   5.162   7.261   0.181  0.1019 -0.1755  0.4230
26204W        W42013   9.212  15.552   2.700 -0.1890  0.0172 -0.0765
26205W        W42014   6.076   2.966   4.743 -0.0957 -0.1851 -0.1049
26206W        W42015   4.031  11.716  10.886 -0.1845  0.0042  0.2644
26207W        W42016   7.508   0.180   5.609 -0.0708 -0.0501  0.0913
26208W        W42017   8.171   7.892  11.436 -0.0964  0.0016  0.0480
26209W        W42018   7.109   4.052  10.434 -0.0420 -0.1713 -0.1471
26210W        W42019   6.012  10.728   2.995 -0.1699  0.0716  0.6168
26211W        W42020  15.219   6.730  11.513 -0.2725 -0.0471 -0.0505
26212W        W42021  10.801   9.831  11.779  0.0303 -0.0779  0.2799
26213W        W42022  16.432   8.683  15.274  0.2865 -0.1641 -0.0206
26214W        W42023   3.502  10.109   0.058 -0.2439  0.0990  0.2106
26215W        W42024   1.670   4.103  15.098  0.2619 -0.1753  0.1164
26216W        W42025   8.778  15.333   1.745 -0.4952 -0.1116 -0.4305
26217W        W42026  10.101  12.615   1.138 -0.2029  0.0923  0.5153
26218W        W42027  18.242  16.243  13.912 -0.0919  0.2904  0.2880
26219W        W42028  12.773   2.626   4.157 -0.1799  0.1813 -0.3726
26220W        W42029   6.335   2.191  13.296  0.1557  0.3631 -0.1822
26221W        W42030   9.659  12.083  14.737 -0.1158 -0.2105  0.1915
26222W        W42031   3.242  14.220  14.360 -0.0379  0.0352 -0.2088
26223W        W42032  13.353  10.386  12.579 -0.0688  0.0927  0.0686
26224W        W42033   4.245  13.169   0.096  0.1198  0.0317 -0.0496
26225W        W42034   3.372  10.528  11.611  0.0468  0.2749  0.0311
26226W        W42035   9.468   6.385   1.500  0.0979  0.0019  0.0906
26227W        W42036  18.270  16.885  14.920 -0.2817 -0.1838  0.1420
26228W        W42037   1.862  12.394   4.505  0.0915 -0.1794  0.0967
26229W        W42038   1.550   0.671   5.652  0.1604 -0.0926  0.0351
26230W        W42039   5.120  15.344   1.596 -0.1389  0.4356 -0.3122
26231W        W42040   0.876   5.617   3.262  0.0284 -0.0861 -0.4508
26232W        W42041  17.377  18.148   0.086 -0.1555  0.3133 -0.2009
26233W        W42042   1.479  14.542   2.092  0.0640 -0.1638 -0.0494
26234W        W42043   7.718  15.510   3.363 -0.1704  0.0016  0.1451
26235W        W42044  14.458  10.798   3.917  0.1756  0.0917  0.0143
26236W        W42045   0.522   5.595  14.900 -0.0780 -0.0170  0.0097
26237W        W42046  10.116   0.632  14.117 -0.1002 -0.2292  0.0614
26238W        W42047   6.776  11.921   5.324  0.1452 -0.0741 -0.0960
26239W        W42048  11.289   7.260  13.415  0.1243 -0.1450  0.2162
26240W        W42049  18.036  14.823   2.874 -0.1110 -0.4004  0.3132
26241W        W42050  17.252   8.884   5.097 -0.2883  0.1915 -0.0235
26242W        W42051   3.713   6.185   4.460  0.1195  0.1094  0.0791
26243W        W42052   5.898   4.016  13.120 -0.1498  0.1234 -0.1758
26244W        W42053  11.443   6.285   3.405 -0.1541 -0.4037  0.0564
26245W        W42054   4.082   1.468  15.533 -0.1445 -0.0611  0.4031
26246W        W42055  11.202   2.022   1.983 -0.2045 -0.0570 -0.2347
26247W        W42056   6.393  18.591  13.592 -0.0827 -0.1488  0.3067
26248W        W42057   1.783   7.493  14.088  0.0444  0.1010 -0.1606
26249W        W42058   2.237   4.546   1.972 -0.1661  0.0824  0.2547
26250W        W42059  16.281   9.579   4.907 -0.1321  0.2483 -0.1636
26251W        W42060   9.512  14.568   5.606 -0.2877 -0.1302  0.1026
26252W        W42061   4.282   0.032  13.194 -0.0451  0.1750  0.1198
26253W        W42062  15.099  15.590   4.408  0.0473  0.2290 -0.3221
26254W        W42063   4.962   8.667   2.353  0.1876  0.3179  0.3644
26255W        W42064  13.129  18.536  11.435 -0.1421 -0.0573 -0.0026
26256W        W42065  17.546  14.619  14.126  0.0585  0.1997  0.1067
26257W        W42066  18.202  10.725   3.299  0.2173 -0.1035 -0.1422
26258W        W42067   8.915  15.698   5.264 -0.3757  0.2915  0.1269
26259W        W42068   6.376   9.981   1.835  0.0105 -0.0205  0.2127
26260W        W42069   4.727   4.876  15.505 -0.0696 -0.0383  0.3347
26261W        W42070  10.095  10.312  12.860  0.0595  0.1692  0.2137
26262W        W42071   2.791  10.094   0.371 -0.1570 -0.0690  0.1610
26263W        W42072  13.796  14.458  12.888  0.5190 -0.2844  0.0171
26264W        W42073   7.409  10.942   2.799 -0.0934  0.1477  0.0153
26265W        W42074   2.529  10.278   9.706  0.1565 -0.1075 -0.0071
26266W        W42075  14.832   0.661   0.118 -0.0713  0.0526  0.1641
26267W        W42076   5.496   6.630   4.796  0.0057 -0.0562  0.2743
26268W        W42077   7.990   9.370  15.574  0.0634 -0.1186  0.0482
26269W        W42078  10.714  10.153  10.818 -0.2617 -0.3690  0.1722
26270W        W42079   2.160   8.562   0.179 -0.0543 -0.0468  0.3169
26271W        W42080  10.633   8.187   5.228 -0.0929  0.1124 -0.1998
26272W        W42081   7.917  18.297   1.039  0.1991  0.1484 -0.1783
26273W        W42082  17.003  15.776   1.981  0.0445  0.1301  0.1632
26274W        W42083   7.611   4.756  12.755 -0.0358  0.1668  0.1296
26275W        W42084   5.841   6.073  14.951 -0.2694 -0.1321 -0.0264
26276W        W42085   2.742   7.702  15.304  0.2203  0.0188 -0.0159
26277W        W42086  18.617   2.560   4.377 -0.0513  0.0293 -0.0338
26278W        W42087  15.526  17.876   2.271  0.0928  0.0861 -0.1811
26279W        W42088   2.609   2.535   2.432  0.1872  0.0649  0.1897
26280W        W42089  12.758   0.920   0.829 -0.3006 -0.0500 -0.1599
26281W        W42090   9.282   0.302   2.255 -0.2935 -0.0825  0.0361
26282W        W42091   9.038  13.727   3.176  0.2210  0.0825  0.2509
26283W        W42092  16.646  13.535  15.586  0.3208 -0.0801  0.0621
26284W        W42093   4.814  13.189  11.908  0.4179  0.0369  0.0939
26285W        W42094   5.487   1.779  12.534 -0.2300  0.1440 -0.1302
26286W        W42095   9.450  17.491  15.427 -0.0067 -0.3111  0.0955
26287W        W42096  18.307   4.437  13.784 -0.1060  0.0386 -0.3056
26288W        W42097   2.998  11.767  11.585 -0.0135  0.1098 -0.1628
26289W        W42098  14.490  11.559   0.097  0.0203  0.0380 -0.2385
26290W        W42099  13.509   2.371  14.119 -0.1270  0.3621 -0.2070
26291W        W42100   6.314   6.564   5.205  0.0802 -0.3004  0.1654
26292W        W42101   1.081   5.707   0.425 -0.0404  0.0074 -0.0553
26293W        W42102   0.406   2.695  14.995  0.0461  0.1707 -0.3721
26294W        W42103  14.853  15.538  14.488 -0.0227  0.0713 -0.1029
26295W        W42104  18.395   4.772   2.825  0.1661  0.0621 -0.1735
26296W        W42105  10.044   9.310  13.053  0.0680  0.2319 -0.2147
26297W        W42106  15.893  12.248   9.557 -0.0425  0.1509 -0.0744
26298W        W42107  17.228  12.988  15.360 -0.4281  0.1055 -0.0101
26299W        W42108  18.378   0.506   1.686 -0.1952 -0.1571 -0.0948
26300W        W42109  17.817   6.392  12.672  0.1507 -0.0219 -0.0870
26301W        W42110   9.296   2.490   2.566 -0.3694 -0.1532 -0.0917
26302W        W42111  13.600  13.913   5.078 -0.2123  0.1134 -0.1760
26303W        W42112   5.166  18.481  11.375 -0.1822 -0.2899 -0.0825
26304W        W42113   8.984  13.512   2.016 -0.0720 -0.1218 -0.1172
26305W        W42114  12.741   4.100   4.369  0.0459 -0.1031 -0.4439
26306W        W42115  11.240  16.487  14.067 -0.1662 -0.0664  0.3174
26307W        W42116  16.579   7.023   1.331  0.2061  0.1801  0.0333
26308W        W42117   9.151   3.715  12.389  0.3001  0.2198  0.1077
26309W        W42118  11.198  12.909   5.430  0.0947  0.0800  0.2889
26310W        W42119  16.569   3.204   5.453  0.0918  0.1519  0.1355
26311W        W42120  16.001   0.847   4.900 -0.1429 -0.0891 -0.1288
26312W        W42121   9.445  11.709  12.133  0.0800 -0.2399 -0.0715
26313W        W42122   4.664  17.885  12.739  0.2344 -0.1036 -0.0386
26314W        W42123   5.246  16.706   1.000  0.3083  0.0759 -0.0160
26315W        W42124   2.725  18.495  11.659  0.0733  0.0909  0.0677
26316W        W42125  17.970   6.457   5.197  0.2188 -0.1266  0.2516
26317W        W42126  11.005  12.287  13.154 -0.2044  0.1375  0.3499
26318W        W42127   6.692   2.732   2.930 -0.3651 -0.0756  0.3578
26319W        W42128  12.700   5.651   3.975 -0.3838  0.2880 -0.1403
26320W        W42129   9.843  17.051  12.424  0.2058 -0.1482  0.1522
26321W        W42130   8.331   7.786  13.102  0.0026  0.2445  0.2653
26322W        W42131  16.559  12.222  15.358  0.0643 -0.1946 -0.0169
26323W        W42132   8.791   6.586  15.351  0.2282 -0.1702 -0.1894
26324W        W42133   6.500  13.281   5.109 -0.1093 -0.1618 -0.3066
26325W        W42134   9.155   7.125   1.515 -0.1065 -0.1809 -0.0801
26326W        W42135  10.758  12.235   2.040 -0.3181 -0.0508 -0.0141
26327W        W42136   0.380   3.818  13.320  0.1792 -0.1320 -0.1688
26328W        W42137  11.610   1.777  14.642 -0.6191 -0.0345 -0.0473
26329W        W42138   8.328   5.717   6.253  0.0011  0.2973 -0.0002
26330W        W42139   8.304   3.943   3.421  0.1881  0.0884 -0.0481
26331W        W42140   5.861   3.064   0.160  0.0657 -0.1661  0.0547
26332W        W42141   7.030  14.403   5.985  0.3233 -0.2060 -0.1575
26333W        W42142   3.642   4.199  15.075  0.0244  0.2604  0.1339
26334W        W42143   4.025   4.429  14.430  0.0049  0.2059 -0.3536
26335W        W42144   2.921  15.345   1.761 -0.0426  0.3278 -0.1775
26336W        W42145   6.020   2.453  11.195  0.1636  0.3782  0.0632
26337W        W42146   5.670   4.221   4.952  0.0143  0.1124 -0.0508
26338W        W42147  14.785  16.576   3.710 -0.0515  0.1651 -0.2412
26339W        W42148   0.672  17.444  13.758  0.1988 -0.1714  0.1735
26340W        W42149   6.659   5.812   3.493  0.0183 -0.0796 -0.0957
26341W        W42150   1.334   2.409   4.334 -0.0805 -0.1469 -0.0799
26342W        W42151  15.007   6.521   2.101 -0.2923  0.2685 -0.0881
26343W        W42152  13.866  14.033  11.307 -0.1399  0.1402  0.1514
26344W        W42153  15.152   8.734   2.678 -0.0824 -0.1385 -0.0676
26345W        W42154  11.411   7.531   4.359 -0.0964 -0.0391 -0.2418
26346W        W42155  14.162   5.181  13.925  0.0111  0.0816  0.1053
26347W        W42156  10.014   2.418   4.871 -0.0273  0.4168 -0.3587
26348W        W42157   4.144   0.016   4.684 -0.1036 -0.0272 -0.1591
26349W        W42158   3.649   2.807  14.713  0.0533 -0.1065  0.0307
26350W        W42159  10.928   4.073   4.829 -0.1332  0.0342  0.1707
26351W        W42160   0.032  10.850   0.036 -0.1557 -0.0239 -0.1476
26352W        W42161   0.776  14.437  15.327 -0.0225 -0.3426  0.0863
26353W        W42162   4.459   3.220  12.877 -0.0678 -0.1909 -0.1390
26354W        W42163  11.697   7.267  15.480 -0.0396  0.1447  0.2245
26355W        W42164   7.782  12.106  14.967  0.0021  0.2501 -0.2929
26356W        W42165  10.043  11.838  14.378 -0.0449  0.0233  0.1746
26357W        W42166  11.014  13.284  15.362  0.2845  0.1195 -0.1560
26358W        W42167  17.788   7.927   2.789 -0.1356  0.2949  0.0750
26359W        W42168  10.698  10.247  11.535 -0.1408 -0.1058  0.0826
26360W        W42169   7.394   7.905   0.307 -0.0545  0.2324  0.0574
26361W        W42170  18.086  12.478  12.524  0.1268  0.2040 -0.1106
26362W        W42171   5.281   4.580  10.670  0.0509  0.0247  0.0286
26363W        W42172  16.336   5.378  10.645 -0.1847 -0.1963 -0.5044
26364W        W42173   6.471  10.452  13.126  0.0025  0.1907  0.0517
26365W        W42174   5.087   5.361   5.570  0.2333  0.2036 -0.2740
26366W        W42175   9.940  17.738   0.162 -0.1055 -0.2707 -0.1300
26367W        W42176   0.509   5.896   4.685  0.2262  0.0330  0.0447
26368W        W42177   3.623  13.425  12.939 -0.2940 -0.1008  0.0807
26369W        W42178  16.694  11.919   4.379  0.2994 -0.0425 -0.1628
26370W        W42179  13.469  12.871   5.570 -0.0370  0.0258 -0.2332
26371W        W42180  12.400  10.886   3.512 -0.3662  0.1037 -0.1865
26372W        W42181  12.315  12.568  14.395  0.0757  0.0967 -0.1565
26373W        W42182   8.268  15.595   1.752  0.2559  0.0270 -0.1353
26374W        W42183  10.507   8.997   3.922 -0.2376 -0.1718  0.0637
26375W        W42184   4.252   0.363   3.523 -0.3529  0.2397  0.2647
26376W        W42185   4.894   3.459  14.380  0.1786  0.2207  0.1590
26377W        W42186   0.443   8.413  10.503 -0.2135  0.1913  0.0298
26378W        W42187  11.023   1.108   6.169  0.1018 -0.0316  0.2437
26379W        W42188   9.670   7.147   3.770  0.0702 -0.5050  0.3124
26380W        W42189   2.141  11.560  11.004  0.0952  0.6133 -0.2044
26381W        W42190  12.355   5.168   0.593 -0.0024 -0.4276  0.0766
26382W        W42191  14.751  13.637   4.379  0.1626  0.2009  0.2456
26383W        W42192   8.302   0.071   4.811 -0.0867  0.1393  0.0856
26384W        W42193   6.215   8.238   5.259 -0.2092  0.0523 -0.1342
26385W        W42194  11.974   3.145   1.273 -0.1672 -0.3268  0.0208
26386W        W42195  12.672  10.859  11.934  0.1417 -0.0287 -0.1586
26387W        W42196  17.261  14.661   1.207 -0.0330  0.1246  0.3049
26388W        W42197  12.425   2.816  14.623  0.1670  0.1304  0.1998
26389W        W42198   1.099  13.876  13.084 -0.1680  0.1828 -0.1053
26390W        W42199  15.924   5.344   0.126 -0.3532 -0.2474  0.5116
26391W        W42200  12.937   9.893   0.469  0.0813 -0.1726 -0.0618
26392W        W42201   6.264   1.651   3.603  0.0205  0.0923 -0.1287
26393W        W42202   7.534   4.904  14.713 -0.1991  0.1809 -0.2432
26394W        W42203  13.264  12.940   3.426 -0.2332 -0.0739  0.1298
26395W        W42204  11.755   1.992   4.508  0.4098 -0.0503  0.1000
26396W        W42205   5.224  17.595   1.794 -0.1178  0.0706  0.1247
26397W        W42206  13.068  12.945   2.878 -0.0767 -0.3801  0.2321
26398W        W42207  16.522   3.938  14.557 -0.1178 -0.1194  0.5702
26399W        W42208  14.964  11.949  14.215 -0.2168 -0.0263 -0.3020
26400W        W42209   9.952  12.859  14.427  0.1193  0.0996 -0.0431
26401W        W42210   0.681  10.892  14.409  0.1004 -0.0388 -0.1013
26402W        W42211   8.895  12.723   3.291 -0.0483 -0.1008  0.1617
26403W        W42212   5.373  10.058  10.622 -0.1601 -0.0912  0.3518
26404W        W42213   0.075  13.270  13.147  0.0656  0.1418  0.1529
26405W        W42214  12.578  10.020  11.384  0.1063  0.0493  0.1831
26406W        W42215   0.308   3.259   4.447 -0.0746  0.0041  0.3343
26407W        W42216   2.027  17.226  12.806  0.3598 -0.0952 -0.4142
26408W        W42217   1.510   0.635   0.658  0.0630  0.1614 -0.2501
26409W        W42218   4.432   4.747   1.977 -0.0131  0.0803  0.2520
26410W        W42219   8.720   9.603  14.442 -0.1559  0.1725 -0.1505
26411W        W42220  12.557   3.155   4.203  0.0468 -0.1604  0.3682
26412W        W42221  14.891   6.492  10.201 -0.1920 -0.1731  0.1838
26413W        W42222   3.795  13.138   4.460 -0.1571 -0.2528 -0.1434
26414W        W42223   0.182  18.213  11.824 -0.0079  0.0726 -0.1351
26415W        W42224   5.321   5.383   0.894  0.3021 -0.1821 -0.1992
26416W        W42225   1.198   2.259   2.611 -0.0550  0.2672 -0.0614
26417W        W42226  17.589  11.272  12.688 -0.1903 -0.0809 -0.2594
26418W        W42227  12.451   1.928  10.902  0.1724  0.3707  0.0368
26419W        W42228   8.734   5.841   5.338 -0.0656  0.4281 -0.0772
26420W        W42229   1.341  15.146   0.695 -0.1461  0.1166 -0.2270
26421W        W42230   9.077   6.708   2.712 -0.1468  0.1129 -0.1366
26422W        W42231   1.523   2.818   5.755  0.2835 -0.1303  0.0714
26423W        W42232   4.117  18.201  14.017  0.3969  0.0298  0.1384
26424W        W42233  13.298   2.099   0.087 -0.0634  0.0685  0.2645
26425W        W42234   6.407   7.972  14.924 -0.1768  0.1260 -0.1284
26426W        W42235  18.657  14.866  14.954 -0.2959  0.0959 -0.2214
26427W        W42236   8.137  16.095  10.755  0.0147 -0.1320  0.1861
26428W        W42237  11.204  11.537  11.563  0.0403  0.0730 -0.0038
26429W        W42238  13.626   6.037   3.986 -0.0943  0.2634  0.0066
26430W        W42239   7.792  15.932   0.797  0.3024  0.0928 -0.1644
26431W        W42240  14.325   8.965   3.629 -0.1045 -0.1325 -0.0587
26432W        W42241   7.957   8.019  12.863  0.0320  0.2590  0.1744
26433W        W42242   9.574  10.319  12.039 -0.1060 -0.0234 -0.1064
26434W        W42243   0.610  12.577   5.573 -0.1552  0.0415  0.0621
26435W        W42244   9.940   0.214   1.641  0.1957 -0.1650  0.0326
26436W        W42245   4.588  17.317  14.097 -0.0711 -0.2299 -0.0779
26437W        W42246  11.958   4.493  11.304 -0.1588  0.1733 -0.1513
26438W        W42247   0.185   4.060   4.409 -0.0286 -0.3219  0.2603
26439W        W42248   6.680   4.915   3.827 -0.1552  0.5414 -0.0844
26440W        W42249   2.406   0.366  14.345 -0.2146  0.1350 -0.3238
26441W        W42250  15.668   3.151   3.883 -0.3570  0.0087  0.0105
26442W        W42251  16.816   1.565   2.759 -0.2083  0.0890 -0.0593
26443W        W42252  13.287  14.175  12.951 -0.0240  0.0477 -0.0516
26444W        W42253   6.958  11.771  14.130 -0.0699  0.2207  0.0647
26445W        W42254   9.309  13.725   1.510 -0.0882 -0.0036  0.3781
26446W        W42255   4.962   2.450  14.892 -0.0179 -0.2834 -0.0666
26447W        W42256  11.796   3.373  12.650  0.0774 -0.1097 -0.1169
26448W        W42257  18.254  18.043  10.998 -0.1545 -0.0515  0.2572
26449W        W42258   3.007   7.441  14.430  0.2649 -0.2221  0.5319
26450W        W42259   9.947  13.158  13.936  0.0288  0.1507  0.0458
26451W        W42260  10.975  11.249  13.264 -0.2163  0.1790  0.1504
26452W        W42261   5.544  15.603   1.521 -0.2081 -0.1704 -0.1706
26453W        W42262  16.483   9.981  10.756 -0.4250 -0.0341  0.0067
26454W        W42263   0.602   3.865   0.371  0.3074 -0.0380 -0.1263
26455W        W42264  10.236   7.483   3.624  0.0530 -0.1740  0.1116
26456W        W42265  12.929   5.155  12.615  0.5154 -0.1333  0.3557
26457W        W42266   0.718   3.910  12.581 -0.0522 -0.0313 -0.2127
26458W        W42267   5.008  14.062  14.649  0.2587  0.1207 -0.0399
26459W        W42268   9.651   1.360  14.682  0.1193 -0.0176  0.3804
26460W        W42269  12.790   2.218  13.459 -0.2252 -0.0212  0.0555
26461W        W42270   8.756  12.667  11.269 -0.0795  0.0067  0.0226
26462W        W42271  13.429  15.960   4.129  0.2009  0.1194  0.1093
26463W        W42272  15.575  10.001  14.091  0.2607 -0.0965 -0.1076
26464W        W42273  14.869   4.131   3.954  0.0196 -0.0583  0.1636
26465W        W42274  16.918  10.559   0.148  0.2309  0.0796 -0.2414
26466W        W42275   8.421   8.561  12.649 -0.0972 -0.3062  0.2421
26467W        W42276  11.477   7.624  15.134 -0.0661 -0.0638  0.0103
26468W        W42277  13.556  15.738   4.925 -0.1508  0.0438  0.0492
26469W        W42278   1.286  13.451   2.396 -0.0395 -0.1138 -0.2988
26470W        W42279  11.181   8.914  14.896 -0.1128 -0.1082 -0.2526
26471W        W42280  12.580  12.373  12.580  0.0006 -0.2553  0.0232
26472W        W42281   9.829   2.878   2.084 -0.1037 -0.0642  0.0006
26473W        W42282   6.414   9.173   0.773 -0.3785 -0.0604  0.0209
26474W        W42283  14.276  14.042   2.611 -0.2012 -0.1956 -0.1427
26475W        W42284   7.797  10.286   0.150  0.3025 -0.2647  0.0643
26476W        W42285  17.272   1.257   2.528  0.1484  0.0026 -0.1960
26477W        W42286   8.815  10.069   5.843  0.3800 -0.1910  0.0459
26478W        W42287   8.515  13.803  13.411  0.1835  0.0394 -0.0971
26479W        W42288  12.596  13.540  11.090 -0.1512 -0.2273 -0.2711
26480W        W42289   8.991  14.903   1.508 -0.4093  0.0711 -0.1902
26481W        W42290  14.768   4.987   0.177  0.1452 -0.2782  0.0112
26482W        W42291   6.756   7.598  12.647 -0.0266  0.2630  0.0545
26483W        W42292   7.260  11.442   5.412  0.2193 -0.3165  0.1133
26484W        W42293   1.755   7.581  10.591  0.0861 -0.1461  0.2198
26485W        W42294   9.860   5.173   3.578  0.1737 -0.0412  0.1060
26486W        W42295   1.719   0.208  15.424 -0.1859 -0.0215  0.2366
26487W        W42296  12.268   4.367  14.204 -0.2766  0.0975  0.1721
26488W        W42297   2.676  13.121  11.000 -0.1378 -0.0034 -0.1591
26489W        W42298   4.174  15.175  14.686 -0.0771  0.1308 -0.3845
26490W        W42299   2.465   9.179   3.701 -0.1444  0.3733  0.1150
26491W        W42300   7.896  12.613   5.802  0.0578  0.1750  0.1220
26492W        W42301   4.734  16.503  14.827  0.2701 -0.7138  0.0266
26493W        W42302  13.909   3.737   4.134 -0.0995  0.0934  0.2790
26494W        W42303   9.106  11.400   1.222 -0.0180  0.2544  0.3289
26495W        W42304   4.065  16.432   3.333  0.1427  0.2593 -0.3172
26496W        W42305   6.422   4.430  11.144  0.1576 -0.0218  0.0231
26497W        W42306   3.841  14.634  15.161  0.0655  0.3087 -0.0418
26498W        W42307  13.185  16.234   0.146  0.3514 -0.0748 -0.0802
26499W        W42308  11.500  14.589   2.194 -0.3803  0.2370 -0.2710
26500W        W42309   7.759   4.663  13.922 -0.1590  0.2471  0.2053
26501W        W42310   2.474  16.388   4.618  0.0184  0.2051 -0.1631
26502W        W42311  13.546  17.769  11.694  0.1837 -0.0685  0.0700
26503W        W42312  18.392   6.298   4.859 -0.1924  0.0236 -0.0845
26504W        W42313   6.231   4.217  13.619 -0.0003 -0.0174 -0.1697
26505W        W42314  13.166   0.556   5.714 -0.0326  0.2548 -0.3610
26506W        W42315  11.997   7.653  15.282  0.1485 -0.4771  0.1321
26507W        W42316  13.976   1.933   5.446  0.0305 -0.2661  0.3186
26508W        W42317  15.280   9.072   1.028 -0.0749  0.0695  0.0760
26509W        W42318   6.081   0.699  13.122 -0.2317 -0.2722  0.1352
26510W        W42319   8.778   5.834   1.815  0.0520 -0.1761  0.2578
26511W        W42320  10.361  14.555  15.293  0.3654  0.2129  0.2756
26512W        W42321  16.172   0.768  15.440 -0.1229  0.1302  0.2158
26513W        W42322   6.514   6.112  11.381 -0.0502  0.1733 -0.0521
26514W        W42323  17.848   4.726   2.928 -0.0187  0.3064  0.1852
26515W        W42324  13.193   1.441  15.202 -0.1483  0.0477 -0.1257
26516W        W42325   7.261  14.175  12.514 -0.2034  0.0066 -0.2326
26517W        W42326  17.009   5.526   4.322 -0.3390  0.1365 -0.1677
26518W        W42327   4.326   1.327   4.587  0.2369  0.3068 -0.1947
26519W        W42328  14.202   1.616   1.810  0.1723 -0.0404 -0.2405
26520W        W42329  17.072   6.125   4.740 -0.3980 -0.0107 -0.0691
26521W        W42330   4.852   3.622  14.946  0.2746  0.0946  0.1096
26522W        W42331  14.020  10.684  10.580  0.0965 -0.0511  0.0022
26523W        W42332  18.443  17.688   3.922 -0.0115  0.0242  0.4228
26524W        W42333   1.375   9.827   4.307  0.1006  0.1756  0.1277
26525W        W42334  16.233  17.364  14.365 -0.0801  0.1318 -0.1812
26526W        W42335   5.846  14.253  12.709 -0.0828 -0.3274 -0.0394
26527W        W42336   2.541  13.993   0.136 -0.2803 -0.1165 -0.1492
26528W        W42337   2.094  10.559   0.542  0.0237 -0.0299 -0.0674
26529W        W42338   6.915   6.112  15.566  0.2800  0.1155  0.0294
26530W        W42339   8.296   2.228   6.350 -0.0984 -0.4287 -0.4248
26531W        W42340  18.403   1.888   4.733  0.2056 -0.0732  0.2390
26532W        W42341  10.739   1.520  13.321 -0.1818 -0.1666 -0.0173
26533W        W42342  10.207   0.100  12.292  0.1440 -0.1448 -0.1224
26534W        W42343   7.517   8.762   0.716 -0.1573  0.2913 -0.5467
26535W        W42344  13.025  11.100  12.982 -0.0728 -0.0003 -0.2319
26536W        W42345   8.684   3.079   3.367  0.2368  0.1065  0.5316
26537W        W42346  15.877   1.068   5.358 -0.0542  0.0264 -0.1355
26538W        W42347   7.995   7.757   3.246  0.0853 -0.1546 -0.1483
26539W        W42348   4.495   6.240   2.517  0.1078  0.1647  0.1482
26540W        W42349  12.152   7.471   0.948  0.2401 -0.2557 -0.1000
26541W        W42350  12.277  14.254   4.322  0.1557 -0.0230  0.1048
26542W        W42351  10.363  16.395  13.538 -0.1464 -0.2584  0.0523
26543W        W42352   0.608  12.004   1.127  0.1618  0.1327 -0.4715
26544W        W42353  11.900   4.256  11.728 -0.1442 -0.1837  0.0475
26545W        W42354  17.245  12.044  11.712  0.0193  0.1979 -0.2101
26546W        W42355   5.072  11.727   5.253 -0.1239 -0.0353  0.0824
26547W        W42356   8.271  10.188   0.065 -0.3889 -0.3949  0.1919
26548W        W42357   4.684  17.647   6.198 -0.3644  0.0694  0.0886
26549W        W42358   5.279   0.426   1.180  0.0636  0.0740 -0.2595
26550W        W42359  17.856   1.858  11.254 -0.3622 -0.1877  0.0009
26551W        W42360   8.257  18.124   1.421 -0.0044 -0.0462 -0.2449
26552W        W42361   8.736  18.508   1.260 -0.0356  0.0535 -0.0145
26553W        W42362  18.307  11.467   1.135 -0.0329  0.0795 -0.2185
26554W        W42363  11.923  15.988   4.860  0.5182  0.1127 -0.0047
26555W        W42364  15.652  10.400  10.532 -0.1176 -0.1573 -0.2916
26556W        W42365  16.668   5.416   4.981  0.1157  0.0328  0.2293
26557W        W42366  13.464   3.187   3.353 -0.0823  0.0365 -0.1258
26558W        W42367  12.057  12.138   4.398 -0.0773  0.0244 -0.0906
26559W        W42368  18.499  12.713   2.072 -0.1149 -0.1071 -0.1183
26560W        W42369  14.373  17.416  13.269 -0.0324 -0.1552 -0.1805
26561W        W42370  11.968  15.881  10.879 -0.1166  0.0851  0.1110
26562W        W42371  11.742  11.677  15.195 -0.0217 -0.0843 -0.0014
26563W        W42372   3.568  11.020   1.637 -0.0828  0.1392  0.3194
26564W        W42373  13.694  11.714  14.506  0.1994  0.2048  0.0310
26565W        W42374  11.877   5.487   3.405 -0.3083 -0.0508  0.2480
26566W        W42375   9.103   0.105  12.905 -0.1690 -0.1892 -0.0080
26567W        W42376  17.472  16.828  13.829  0.1403  0.2448 -0.0718
26568W        W42377   8.452  10.438   5.702 -0.0584 -0.0332 -0.1265
26569W        W42378   6.052   3.617   3.888  0.0767 -0.0993 -0.2513
26570W        W42379  15.526   8.459   1.224 -0.1154 -0.1474  0.1015
26571W        W42380  12.646   4.712  12.367 -0.0771 -0.0979 -0.2733
26572W        W42381   4.274   1.294  12.044  0.1892 -0.3795 -0.0933
26573W        W42382   7.594  13.591  15.345 -0.1375 -0.0573 -0.1062
26574W        W42383   3.055  15.076  13.896 -0.1337 -0.2117  0.0779
26575W        W42384  14.252   6.012  13.159  0.0192 -0.0953 -0.0482
26576W        W42385  10.526  17.594  10.932  0.1345 -0.2409  0.0558
26577W        W42386   8.978   5.355  13.862  0.1690  0.0576  0.0211
26578W        W42387   2.969   3.244  13.319  0.0414  0.1925 -0.1519
26579W        W42388  12.337   6.329  13.431  0.0339 -0.2545 -0.2637
26580W        W42389   2.602  10.677   1.374 -0.0793  0.3666  0.1139
26581W        W42390   3.750   2.246  13.936 -0.0673  0.1279 -0.1494
26582W        W42391  15.773   9.382   2.836  0.0969 -0.4236 -0.0002
26583W        W42392   8.377   2.728  11.428  0.0362  0.0871 -0.2646
26584W        W42393  12.809   4.128  12.784 -0.1048  0.5043  0.3047
26585W        W42394   6.966   2.906   4.690  0.0597 -0.3163 -0.1033
26586W        W42395   3.096   9.390  11.641 -0.3144  0.1356 -0.1648
26587W        W42396  18.347   4.356  11.715  0.0504 -0.1830  0.0469
26588W        W42397  13.496   3.616   4.984  0.0230  0.1550  0.4190
26589W        W42398  10.282  13.804  14.598  0.0299  0.0287  0.2034
26590W        W42399   7.297  14.008  11.180 -0.0262 -0.0336 -0.0106
26591W        W42400  12.141   0.300   4.099 -0.0575  0.0452 -0.1307
26592W        W42401  15.540   5.996  14.055 -0.1282 -0.0226 -0.2973
26593W        W42402  15.753  14.499  12.074  0.1538  0.1030  0.1898
26594W        W42403   4.946   9.697  12.220  0.0088  0.0775  0.4378
26595W        W42404  12.193   9.596  14.402  0.1437  0.1424 -0.2592
26596W        W42405  12.295  13.545  11.517  0.2181 -0.1822 -0.1159
26597W        W42406   7.159   1.407  11.638 -0.3322 -0.1190 -0.0027
26598W        W42407  14.524   9.743  11.935  0.3726 -0.3129 -0.1184
26599W        W42408   6.604   4.067  12.451  0.0375  0.0441  0.0738
26600W        W42409  11.780   6.391   1.944  0.2168 -0.2080  0.1359
26601W        W42410   3.374   5.640  14.635  0.1298 -0.3212  0.0666
26602W        W42411   8.072   6.285  15.124  0.3167 -0.0889  0.2600
26603W        W42412   7.519   8.601   3.983  0.1830 -0.1255 -0.0004
26604W        W42413   8.725  11.429   0.883  0.1363 -0.0833 -0.0983
26605W        W42414   4.477  10.449  15.065  0.2732  0.1016 -0.2128
26606W        W42415   9.564   4.493   4.169 -0.0857 -0.0479  0.1300
26607W        W42416  17.427   1.807   5.976  0.0704 -0.0867  0.1954
26608W        W42417   6.550   7.513  13.624 -0.2034 -0.0132 -0.2888
26609W        W42418  17.979   3.753  14.549  0.0232  0.2486  0.2907
26610W        W42419   3.950   4.191  13.804 -0.0351 -0.1781 -0.0694
26611W        W42420   9.089  16.887   0.567  0.1029 -0.0143 -0.4938
26612W        W42421  17.191  10.993   1.250  0.1269 -0.1178  0.1361
26613W        W42422   6.325  11.382   0.990  0.1425  0.2109  0.0496
26614W        W42423   3.037  10.124  15.512 -0.0248 -0.3273 -0.0399
26615W        W42424   5.590   5.235  15.606  0.0618  0.0534  0.3289
26616W        W42425   8.125  11.493  10.908 -0.0414  0.0546 -0.3479
26617W        W42426   1.447   6.895   2.208 -0.1085 -0.1375  0.3008
26618W        W42427   5.870   5.605  10.924  0.8123  0.1770 -0.2188
26619W        W42428   4.550   9.386  10.926  0.0760 -0.1267  0.0267
26620W        W42429  11.632   0.886  13.428 -0.1572 -0.1221  0.4119
26621W        W42430   1.012  16.091   3.002 -0.0440 -0.3520  0.2758
26622W        W42431  18.395   3.203   4.868 -0.3223  0.1382  0.1125
26623W        W42432   6.309   3.482  12.589 -0.0677 -0.2706  0.0660
26624W        W42433   4.342  11.502  11.979  0.2591 -0.0579  0.0609
26625W        W42434  16.461   9.937   2.552 -0.1047 -0.4000 -0.2683
26626W        W42435   7.172  12.447   1.063  0.1618  0.4284  0.1714
26627W        W42436   6.051  15.295   4.499  0.0060  0.0457  0.0278
26628W        W42437  12.374   1.065  13.079  0.2235  0.0473 -0.0456
26629W        W42438   5.748  15.788  14.521  0.1402 -0.2827 -0.1841
26630W        W42439  15.808   4.352   0.346 -0.1340 -0.2099  0.1592
26631W        W42440  17.474   6.720   1.432  0.1712  0.2515 -0.0829
26632W        W42441  17.194  18.307  13.423 -0.3775  0.0358 -0.2846
26633W        W42442  14.729   8.216  11.947  0.3527  0.0361 -0.4188
26634W        W42443   0.836   5.094  11.179  0.0320 -0.1863  0.0129
26635W        W42444   2.165   7.954   4.324  0.1519  0.1451  0.2627
26636W        W42445  13.864  12.719  11.274 -0.1097  0.1034  0.1857
26637W        W42446  16.597  16.971  14.525 -0.1217 -0.0067 -0.3582
26638W        W42447  12.785  11.596  13.270 -0.6237  0.1586 -0.0803
26639W        W42448  13.477   5.435  11.717 -0.4091  0.2750 -0.1607
26640W        W42449  15.311   0.012  11.637 -0.2433 -0.0991 -0.3530
26641W        W42450   4.343  12.015   2.135  0.0131 -0.0356 -0.0491
26642W        W42451  17.310   2.173  14.845 -0.2038 -0.0100 -0.0297
26643W        W42452   9.455  15.674   5.268  0.2815  0.1166 -0.0622
26644W        W42453  11.509   5.128   2.170  0.0831  0.2933  0.0511
26645W        W42454  13.063  10.370   3.673 -0.1573 -0.2682  0.2645
26646W        W42455   2.039   2.125   9.965  0.1747 -0.0675 -0.4984
26647W        W42456   4.094  14.240   1.953 -0.2196 -0.4014 -0.0526
26648W        W42457  12.155  14.720  14.744 -0.0884 -0.0538 -0.2987
26649W        W42458   1.140   1.983  14.856 -0.3301 -0.1387 -0.0415
26650W        W42459  15.987   3.891   4.357  0.0109  0.0723 -0.0951
26651W        W42460  10.221   1.222   3.432  0.3322 -0.0049  0.2959
26652W        W42461  16.415   4.924   3.814  0.1344  0.0267 -0.1291
26653W        W42462   3.581   2.692  10.859 -0.1160 -0.0871 -0.1329
26654W        W42463   2.087   1.468  14.724  0.0232  0.0723  0.2820
26655W        W42464   2.172  11.258  11.906  0.1796  0.0227 -0.1441
26656W        W42465   4.410   2.267   0.373 -0.1849 -0.3034 -0.2265
26657W        W42466   7.209   9.828   4.822 -0.2234  0.1640  0.1257
26658W        W42467  18.214   3.346   3.793 -0.3064  0.0037 -0.1596
26659W        W42468  12.286   1.440   0.736 -0.1165 -0.2012 -0.1954
26660W        W42469  13.647  15.860  14.456 -0.2634  0.2449  0.0247
26661W        W42470   5.120   7.900  12.243  0.0620  0.1151 -0.1000
26662W        W42471   8.529  14.750   1.265 -0.1522 -0.1999 -0.0533
26663W        W42472   5.717   0.702  14.533  0.0551 -0.2556  0.2378
26664W        W42473   9.466   5.539   3.845  0.0224  0.0287 -0.2546
26665W        W42474   7.983  12.075  13.106 -0.2428  0.2315 -0.0716
26666W        W42475  14.092   5.141   4.891 -0.0719 -0.3926 -0.1400
26667W        W42476   3.380  10.540   4.768 -0.0286 -0.2286 -0.0050
26668W        W42477   0.764  17.803  11.556  0.0754 -0.0269 -0.1587
26669W        W42478  18.503  18.316  12.846  0.3652 -0.1369  0.3272
26670W        W42479   1.317  10.769  12.256  0.0477  0.1432 -0.1092
26671W        W42480   9.083   9.135   3.657 -0.0816  0.1952 -0.1166
26672W        W42481  12.643  13.278   3.709  0.0897 -0.2281  0.0662
26673W        W42482  11.685   3.563   1.236  0.0034 -0.1298  0.0731
26674W        W42483   8.362   2.657  12.239  0.0152 -0.0340 -0.3864
26675W        W42484   0.966  10.601   4.733 -0.0289  0.2057  0.3027
26676W        W42485  16.032   5.177   2.521 -0.2860 -0.0949 -0.2019
26677W        W42486   6.203  12.750  13.401  0.1562 -0.1448 -0.0765
26678W        W42487  16.205   1.141  14.547  0.0376  0.0070  0.2248
26679W        W42488   5.049  11.243   5.412 -0.1330 -0.1642 -0.0383
26680W        W42489   8.460  14.255   1.282  0.2257  0.1778  0.4594
26681W        W42490   8.732  16.084   0.262  0.1465  0.1007  0.1896
26682W        W42491   0.676   0.115   2.941  0.0410 -0.1792 -0.1047
26683W        W42492  13.176   2.174  13.103 -0.0839 -0.1152 -0.0137
26684W        W42493   5.853  14.074  12.252  0.1768  0.3560 -0.1947
26685W        W42494   8.565  11.226   4.014  0.0697 -0.0957  0.2810
26686W        W42495   0.530   3.633   5.361  0.0030 -0.1561 -0.2109
26687W        W42496   9.152   9.336  15.525  0.1827  0.4545  0.3394
26688W        W42497   0.136   2.936   3.175  0.0993  0.0348 -0.2332
26689W        W42498   4.834   7.338   4.698  0.3022  0.1220 -0.1372
26690W        W42499  10.692   0.058   0.569 -0.0261  0.0737 -0.2816
26691W        W42500  11.893  10.714   5.065 -0.1731  0.2717  0.0506
26692W        W42501   1.099  17.743  14.741 -0.2764  0.0286  0.0360
26693W        W42502   9.334   8.522   1.734 -0.1467 -0.5329  0.2482
26694W        W42503  16.282   3.758  12.962 -0.2059 -0.2883  0.0733
26695W        W42504  15.784   2.818   9.847  0.0167  0.0950 -0.2048
26696W        W42505   0.427  18.615   4.006 -0.1485  0.0204  0.1925
26697W        W42506   1.650  12.168  11.976 -0.3065  0.1547  0.1110
26698W        W42507   1.565   9.529  13.054 -0.0235  0.3222 -0.0110
26699W        W42508  10.004   8.318   4.158  0.1459 -0.1709  0.2692
26700W        W42509   9.894  16.488   4.507  0.2762  0.0844 -0.0077
26701W        W42510  10.895   4.014  12.741 -0.3419 -0.0301  0.0218
26702W        W42511   9.610   0.966   5.660 -0.3503  0.2030 -0.0663
26703W        W42512  11.119  15.761   1.289  0.0517 -0.0187 -0.0561
26704W        W42513   0.214   7.871   1.948  0.1250 -0.0998 -0.1297
26705W        W42514   4.594  13.433   2.485 -0.0173  0.3067  0.1644
26706W        W42515   1.308  12.559  12.006 -0.1908  0.4543  0.0926
26707W        W42516  13.515  18.338  12.496 -0.1208 -0.2652 -0.0284
26708W        W42517  12.454   6.854   3.331 -0.3655  0.3296  0.1705
26709W        W42518  17.003   7.300   1.395 -0.1030  0.3124  0.1843
26710W        W42519  17.329  15.715  11.505 -0.1491  0.2727  0.2069
26711W        W42520  15.536   8.412  10.796 -0.2132  0.0495 -0.1310
26712W        W42521  12.171  15.566  13.172 -0.0623  0.0596 -0.2556
26713W        W42522  14.247   8.895   3.086  0.5094 -0.0521 -0.1221
26714W        W42523  11.712   1.071   3.370  0.0659 -0.1899 -0.3440
26715W        W42524   1.435  14.627   4.500  0.2841 -0.0876  0.1301
26716W        W42525  13.929  11.871   4.765  0.0538 -0.1050  0.0619
26717W        W42526  14.349  12.358   2.767 -0.3078  0.0062  0.2420
26718W        W42527  12.601  13.251   5.697 -0.1355  0.0510 -0.1205
26719W        W42528   6.962   4.428  11.262 -0.3464 -0.1208 -0.1631
26720W        W42529  12.587   1.216  12.651  0.0671  0.2816  0.2053
26721W        W42530  16.529  16.170  11.285 -0.0340 -0.3499  0.0558
26722W        W42531   5.766   7.898  11.565  0.0398 -0.0913  0.2206
26723W        W42532  11.996   3.835  12.667  0.2860  0.0929  0.2444
26724W        W42533   5.318   0.573   4.645 -0.0383  0.2470  0.0183
26725W        W42534   8.199   3.438  10.878 -0.2444 -0.1759  0.0382
26726W        W42535   8.468   1.266   2.920  0.2106 -0.0574  0.1866
26727W        W42536   5.855   8.006   1.410  0.2529 -0.2142  0.2726
26728W        W42537  12.984   1.858   3.572 -0.1372 -0.0464  0.0195
26729W        W42538   7.579   9.471   4.046  0.0368 -0.3119 -0.1667
26730W        W42539  17.796  10.767  13.329 -0.1747  0.0445  0.0966
26731W        W42540  14.564   8.450  13.848  0.3219  0.4146 -0.0657
26732W        W42541  17.841   7.741  13.141 -0.0882  0.1316 -0.0504
26733W        W42542   4.826   6.003   2.825  0.0585 -0.0024  0.2205
26734W        W42543   8.979   4.729   0.275  0.1008 -0.3140  0.1641
26735W        W42544  11.922   2.208   3.405  0.1032 -0.0107  0.1302
26736W        W42545  11.351   8.031  12.469 -0.1858  0.1559  0.0706
26737W        W42546  10.209  12.027   2.036  0.2374 -0.1089  0.2010
26738W        W42547  13.228   4.991   0.806 -0.1158 -0.1509  0.0487
26739W        W42548   8.741   9.927   0.880  0.0426 -0.0781  0.2021
26740W        W42549   8.717   4.867   3.718  0.1490 -0.0772  0.0831
26741W        W42550   0.080  11.539   2.901 -0.0723  0.1254 -0.0041
26742W        W42551   5.309   9.388  13.069  0.0975  0.0994 -0.0108
26743W        W42552   6.043   1.287  14.010  0.1638  0.0908  0.1160
26744W        W42553  13.143   1.852   0.923  0.1603  0.0704 -0.0429
26745W        W42554   7.820   6.619   1.773  0.1850  0.4476  0.0273
26746W        W42555  11.433   1.140  15.177  0.0629 -0.2474 -0.4063
26747W        W42556  17.946  14.443   3.682 -0.0053 -0.1188  0.2481
26748W        W42557  13.650  11.199  12.887  0.2361  0.3315  0.3245
26749W        W42558   2.863   6.945  14.463 -0.0111 -0.1122 -0.0994
26750W        W42559   2.909   9.613  11.280  0.2195  0.1492 -0.1814
26751W        W42560   2.194   5.774   3.194 -0.2446 -0.0803 -0.0017
26752W        W42561  17.068  18.132  11.533  0.2732 -0.1171  0.0500
26753W        W42562   8.490   2.212  12.034  0.0329 -0.2402  0.0161
26754W        W42563  12.386  17.789   5.570 -0.0647 -0.1226 -0.1791
26755W        W42564  12.176  17.496  15.591 -0.1288  0.4287  0.0113
26756W        W42565   1.079   8.254  10.887 -0.0690 -0.3843 -0.2413
26757W        W42566  11.093  16.019  15.134 -0.1052  0.0872 -0.5018
26758W        W42567   2.137   4.958  14.554  0.0438 -0.1336  0.1812
26759W        W42568  13.319   7.555  15.533  0.0708  0.1547 -0.2569
26760W        W42569  12.983  14.508  13.126  0.2211  0.0793 -0.0790
26761W        W42570  17.443  15.133   2.354 -0.3434 -0.1188 -0.0914
26762W        W42571   5.135  13.800   3.330  0.3147 -0.2905 -0.2176
26763W        W42572  17.217   3.087   0.241 -0.2768  0.2206 -0.0100
26764W        W42573   9.752  13.515   4.423 -0.0545 -0.0670 -0.1330
26765W        W42574   8.800  15.189  12.834 -0.0831  0.3064 -0.0033
26766W        W42575  12.257   6.091   1.350 -0.0479  0.1748  0.1593
26767W        W42576  14.738  11.081  11.539 -0.1515 -0.1059 -0.3227
26768W        W42577   1.928  12.041   4.917  0.0538 -0.0930  0.0789
26769W        W42578   7.449   7.981   4.449 -0.0653  0.0391 -0.0431
26770W        W42579   3.187  16.840  15.319 -0.0955  0.2488  0.2849
26771W        W42580   9.554   5.182   1.761  0.0022 -0.0184 -0.0322
26772W        W42581   6.584  13.494  15.535 -0.2088  0.1312 -0.0037
26773W        W42582  17.658   6.237  12.146  0.1094 -0.0994  0.0638
26774W        W42583   2.781  17.943   3.918 -0.1763  0.2203  0.0738
26775W        W42584  11.887  14.234   0.409  0.1184 -0.2573 -0.0086
26776W        W42585  15.466  11.869   0.021  0.2078  0.0204 -0.0163
26777W        W42586  15.465  13.699   3.160  0.0304 -0.0092  0.2754
26778W        W42587  17.589   2.981   2.418 -0.0612 -0.3970  0.0745
26779W        W42588   7.111  13.249  14.073  0.1835  0.1200  0.1739
26780W        W42589   6.693   1.994  11.145  0.0280  0.2039 -0.2393
26781W        W42590  16.684   4.543  12.550  0.2034  0.0308  0.2531
26782W        W42591   6.357  12.317   0.625 -0.1078 -0.1341  0.3316
26783W        W42592   4.186   9.797  10.899  0.0422 -0.0197  0.1831
26784W        W42593   0.423   8.344   1.829 -0.0416 -0.1379  0.1036
26785W        W42594   5.530   4.681  15.363 -0.1831 -0.1308 -0.5776
26786W        W42595   2.699  11.944   0.187  0.1400 -0.2661 -0.2718
26787W        W42596   2.448  12.583  14.810 -0.0609  0.0908  0.2294
26788W        W42597   0.930   4.475  15.268 -0.3317  0.0514 -0.1462
26789W        W42598   6.168  16.040   4.488  0.0035 -0.4199 -0.3979
26790W        W42599  13.177   5.667   5.090 -0.4258 -0.1079  0.0515
26791W        W42600  13.473   4.185   4.777  0.0415 -0.2064 -0.4356
26792W        W42601   0.872  16.377  15.127 -0.2032  0.0083  0.0346
26793W        W42602  15.920   0.035   0.827  0.0012 -0.2177  0.2348
26794W        W42603   1.455  16.878   1.126  0.1909  0.0084 -0.0088
26795W        W42604   9.591  16.828   4.825 -0.0588 -0.3468  0.0433
26796W        W42605  17.395   2.857   0.715 -0.2543  0.3146  0.0312
26797W        W42606  16.396   3.335  12.011 -0.1080  0.0857 -0.1331
26798W        W42607  13.857   3.807   4.646  0.0894 -0.1136  0.0498
26799W        W42608  15.692  10.258   1.819  0.4522 -0.4513  0.0806
26800W        W42609   1.088   0.960  13.907  0.2175  0.1082 -0.2133
26801W        W42610  10.140   7.847   2.497  0.0432 -0.3311  0.1446
26802W        W42611   5.530  11.322   3.539  0.3746 -0.2520  0.2763
26803W        W42612  14.326  13.583   3.918  0.1255  0.0993 -0.0843
26804W        W42613   7.651  11.225  11.887  0.0036 -0.1371 -0.2772
26805W        W42614   9.095  18.537   2.948  0.1665 -0.0603  0.1292
26806W        W42615   0.846  12.793   2.303 -0.1471  0.2001 -0.1060
26807W        W42616  12.931  10.858   1.381 -0.1449  0.0606 -0.1391
26808W        W42617  11.612  17.927   1.686 -0.0216  0.0161  0.0412
26809W        W42618   5.101  16.488  11.855  0.0043 -0.1868  0.0889
26810W        W42619  12.105  17.511  12.281  0.0176 -0.0574  0.3038
26811W        W42620  17.212   2.652  15.120  0.1089  0.0258  0.0245
26812W        W42621  13.813  13.577  13.638  0.2336 -0.1655  0.1044
26813W        W42622  16.460   1.415  11.358 -0.2407  0.3515  0.0399
26814W        W42623  14.255   7.459   3.719 -0.0967 -0.1362  0.1051
26815W        W42624  11.974   0.568  14.081  0.0912 -0.3768 -0.1638
26816W        W42625  13.672  17.160  13.957 -0.0015  0.3535  0.2598
26817W        W42626  10.835  12.186   0.703 -0.1199 -0.0060 -0.3494
26818W        W42627  18.137   8.923  12.869 -0.0759  0.2948 -0.1306
26819W        W42628   1.198   3.336   4.614  0.4347 -0.1364  0.0823
26820W        W42629  13.525   4.486   3.987  0.0391 -0.0599  0.0966
26821W        W42630   8.763  15.794   2.049 -0.0794  0.1311 -0.2350
26822W        W42631  12.950  16.588   5.988  0.0163 -0.0844  0.2117
26823W        W42632  14.543   0.043  13.559  0.2828 -0.0468 -0.0828
26824W        W42633   9.222   2.960   3.374  0.0570  0.0181 -0.1119
26825W        W42634  12.793  10.796  14.905 -0.0939 -0.2309  0.0928
26826W        W42635  16.222   1.978   0.650  0.2063  0.3527 -0.2433
26827W        W42636   8.589  10.919  12.626 -0.0378 -0.0903 -0.1116
26828W        W42637   7.084  17.572  14.253  0.2331  0.0374 -0.1668
26829W        W42638  16.932   4.862  12.217  0.2068 -0.3521  0.1425
26830W        W42639  12.202  11.058  11.934 -0.0746  0.0545 -0.1551
26831W        W42640   2.449   2.089   1.868 -0.0113 -0.0159  0.3194
26832W        W42641   5.009   6.303  13.177  0.1636  0.0218 -0.1538
26833W        W42642   1.914  13.293  14.819  0.2560 -0.0208  0.0294
26834W        W42643   1.709   8.383  13.414  0.2022  0.0165 -0.2416
26835W        W42644   5.404   0.246   0.717 -0.0099 -0.0026 -0.1415
26836W        W42645   7.110   1.458   3.684  0.0854 -0.0867  0.1303
26837W        W42646  17.316   0.757   3.197 -0.2600  0.0182 -0.2000
26838W        W42647  17.540   8.172   3.168  0.0781  0.1078 -0.0622
26839W        W42648   4.013  14.200  12.492  0.1040 -0.0260  0.1907
26840W        W42649  13.994   0.475   4.014  0.2409  0.0007  0.0744
26841W        W42650   2.402  10.007   1.316 -0.1160  0.2143  0.0650
26842W        W42651   4.200   0.122   2.646 -0.0565 -0.2835 -0.0203
26843W        W42652  14.865  16.335  12.664 -0.0637 -0.1156  0.0771
26844W        W42653   5.641  12.241   3.478  0.0891  0.4810  0.1113
26845W        W42654   5.145   9.098   3.206  0.0033  0.0402 -0.0193
26846W        W42655   0.664   7.090  15.006  0.4309  0.0179  0.2893
26847W        W42656   5.944   9.392   0.923  0.0611  0.1789  0.0278
26848W        W42657  12.632  14.623  14.076 -0.1315 -0.0360 -0.1547
26849W        W42658   0.958   3.124  13.879 -0.1481  0.0680  0.0224
26850W        W42659   3.690  16.257   5.011  0.0085  0.1273  0.1358
26851W        W42660   2.536  12.335  12.697  0.0215 -0.4754  0.2005
26852W        W42661  10.664   5.786   1.403  0.0489 -0.2539  0.3068
26853W        W42662  16.817   6.629  15.614  0.3043  0.1163  0.0277
26854W        W42663   1.596   9.935  12.722  0.0126  0.0274 -0.0828
26855W        W42664   9.803   9.130   1.265  0.3628 -0.0254  0.0233
26856W        W42665   4.753   7.687  13.452 -0.1574  0.0190  0.1473
26857W        W42666   2.109   3.745  13.117  0.1662  0.0698  0.1671
26858W        W42667  15.383  10.081  12.851  0.0745 -0.1628 -0.2144
26859W        W42668  13.519   9.934   4.501 -0.0185  0.0275  0.1760
26860W        W42669   0.626   5.998  14.052 -0.0781 -0.0242  0.0625
26861W        W42670   3.573  15.645  12.529  0.1680  0.1662 -0.0065
26862W        W42671   5.887  10.772   0.324 -0.0923 -0.3798  0.0896
26863W        W42672   7.209  11.291  12.653  0.0659  0.0781 -0.0708
26864W        W42673   1.277  16.318   2.396  0.0038 -0.1411  0.2836
26865W        W42674  17.265  11.994  13.840  0.4116  0.0968  0.0271
26866W        W42675   8.294   5.118  14.503 -0.3052 -0.2423 -0.2056
26867W        W42676   2.120  14.229   3.684 -0.3300  0.0901 -0.0114
26868W        W42677   4.954  12.664   5.039  0.1995 -0.0413 -0.0197
26869W        W42678   3.270   0.078  13.871  0.0856 -0.3056 -0.0554
26870W        W42679   5.809   5.557   0.832 -0.0070 -0.0710  0.2059
26871W        W42680   3.398  14.530  12.905  0.1656  0.0317  0.3088
26872W        W42681   3.790   7.550   0.405 -0.2386  0.3800 -0.0125
26873W        W42682  14.821  12.651   3.064 -0.0726 -0.1706 -0.1927
26874W        W42683   2.324   0.139  12.651 -0.2631 -0.0567 -0.0942
26875W        W42684  11.797  16.598   0.953  0.3912  0.1594 -0.1028
26876W        W42685  17.814   0.869   0.005  0.3191 -0.0666  0.1293
26877W        W42686  14.219  18.252  13.640  0.2611  0.1682  0.0477
26878W        W42687  17.178  15.178   5.936  0.1193  0.1845  0.1191
26879W        W42688   7.471   4.071  15.290  0.0295 -0.2749  0.2194
26880W        W42689   2.428   7.585  14.401 -0.1408 -0.0022  0.2943
26881W        W42690  15.553  11.448   2.621 -0.0138 -0.0991  0.2008
26882W        W42691  18.659   8.353  14.988  0.0739  0.2864  0.2853
26883W        W42692   2.850  12.713  13.822  0.1237  0.0016  0.0229
26884W        W42693  13.447  12.926  12.240  0.1085 -0.1703  0.0534
26885W        W42694  14.455  13.748   3.423  0.2311 -0.0224  0.0443
26886W        W42695  14.134   2.977   4.665 -0.0859 -0.2775  0.0656
26887W        W42696  17.867   9.201  15.473 -0.0363 -0.1365  0.0050
26888W        W42697   3.649   0.651  15.482  0.0549 -0.3095  0.1648
26889W        W42698   5.555  17.518   2.936 -0.2396  0.0386 -0.3425
26890W        W42699  16.459  14.376  13.951 -0.3273 -0.0292  0.0192
26891W        W42700   3.620   5.343  13.372 -0.1896 -0.2080 -0.1332
26892W        W42701  16.004  18.544   4.996 -0.2698  0.0288 -0.2840
26893W        W42702   2.728   1.600  14.215 -0.2646 -0.0291 -0.2211
26894W        W42703   2.929  17.924  15.031 -0.0109  0.1631 -0.1097
26895W        W42704  16.385   7.890  11.866  0.0735 -0.0553  0.3087
26896W        W42705   7.644  10.363  14.000  0.2418  0.1012  0.0585
26897W        W42706  12.083  18.271   2.954  0.0803 -0.0460  0.1057
26898W        W42707   6.848   8.947  12.911  0.2081 -0.2161  0.0358
26899W        W42708  10.215   5.471  15.171 -0.1237 -0.3437 -0.1226
26900W        W42709  16.291   3.841  11.915  0.5058 -0.1144 -0.1060
26901W        W42710  17.281   9.387  15.531  0.2324  0.2614 -0.1025
26902W        W42711  18.015  14.703   4.993  0.2323  0.1013  0.3129
26903W        W42712  15.520   6.547  11.879  0.1954  0.0083  0.2032
26904W        W42713   7.380  14.498   4.870 -0.1842  0.2008  0.0550
26905W        W42714   2.431  18.008   0.169 -0.2705 -0.1870 -0.0760
26906W        W42715   8.306  12.855  10.869  0.2325  0.0897  0.0630
26907W        W42716   9.862   0.238  10.826  0.0661 -0.1591  0.0385
26908W        W42717   1.760   0.030   2.650 -0.0621 -0.0562 -0.1791
26909W        W42718  18.616   2.538   1.400  0.0248 -0.0651 -0.4520
26910W        W42719  15.943   3.291  10.097 -0.0857 -0.3452  0.2070
26911W        W42720   9.477   5.141   5.301  0.0781 -0.1633 -0.2414
26912W        W42721   0.973  15.344  13.608 -0.0902  0.0511  0.2577
26913W        W42722  17.392  18.202  10.329 -0.3544  0.0399 -0.1631
26914W        W42723  15.843   8.348   1.652  0.1645  0.1249 -0.1351
26915W        W42724  12.610   1.828   0.776 -0.0317  0.0765  0.0833
26916W        W42725   7.540  16.727   3.802  0.0947 -0.2215  0.5137
26917W        W42726   3.215   7.378   4.705 -0.1970  0.2577  0.0685
26918W        W42727   2.446   0.747   1.183  0.0931 -0.0875  0.0454
26919W        W42728   8.510  14.373   4.032  0.1721  0.4824  0.1119
26920W        W42729   9.905  18.318  11.444 -0.2412 -0.1884  0.3419
26921W        W42730  18.033   5.245  10.255  0.1173 -0.1114 -0.0761
26922W        W42731  13.433   3.519   2.244  0.0134  0.0875 -0.2224
26923W        W42732   0.843   2.375   4.302 -0.2574 -0.1210 -0.2768
26924W        W42733  16.338  17.114   4.488  0.0497 -0.1419  0.4176
26925W        W42734  10.353   3.884  11.821  0.0587 -0.3180 -0.1122
26926W        W42735   7.096   5.756  14.357 -0.1940  0.2603 -0.0474
26927W        W42736   2.456   9.918  13.252 -0.3201  0.0725 -0.1648
26928W        W42737  17.233  13.754  11.587 -0.0755  0.1075 -0.1723
26929W        W42738   0.759  10.071   0.815  0.1669  0.4054  0.0073
26930W        W42739   0.694   2.593  10.949 -0.1041 -0.1083 -0.1745
26931W        W42740   8.218   9.260  11.208 -0.0366 -0.0349 -0.3172
26932W        W42741   1.358  15.102   4.412  0.0623  0.0080  0.1241
26933W        W42742   3.976  14.152   2.438  0.2402 -0.1013 -0.0916
26934W        W42743  10.260  11.144  11.602  0.0859  0.1545 -0.1266
26935W        W42744  11.809  10.255  10.635 -0.6060  0.1846  0.2137
26936W        W42745  12.197   5.968  11.694  0.1039 -0.0142  0.3075
26937W        W42746   7.697  12.772  10.698  0.4253 -0.1488 -0.2464
26938W        W42747   4.064   3.548   0.946 -0.0456 -0.0873 -0.1098
26939W        W42748  15.552  15.848   1.491  0.1430 -0.1461  0.2431
26940W        W42749   2.583  11.948  13.049  0.1803 -0.3625 -0.1142
26941W        W42750  10.326   7.368  10.224 -0.3679 -0.1396 -0.3988
26942W        W42751   7.243  17.396   2.541  0.0158 -0.0431 -0.0166
26943W        W42752   1.180  18.004   0.382 -0.1910  0.0555  0.2361
26944W        W42753   3.238  16.204   3.209 -0.0507 -0.1469 -0.4125
26945W        W42754   4.167   9.923   3.645 -0.4514 -0.1322  0.0371
26946W        W42755   3.488   2.881   4.023 -0.0659 -0.3239  0.1505
26947W        W42756   9.203   2.452   6.001 -0.2621 -0.3410  0.3047
26948W        W42757  10.446   4.036  12.959  0.0669 -0.3363  0.4437
26949W        W42758   1.582  11.093  14.148  0.1369 -0.2557 -0.0902
26950W        W42759  12.141   1.757   5.268 -0.0061  0.0999 -0.0422
26951W        W42760  11.011  13.658   0.006  0.3193  0.0130 -0.4430
26952W        W42761   6.245   4.320  12.102  0.1760  0.3911  0.0713
26953W        W42762   2.144  11.273   1.739  0.2106  0.1469  0.0823
26954W        W42763   1.353  13.172   1.404  0.3635 -0.3025 -0.0214
26955W        W42764   5.583   0.678  11.375  0.0552  0.2090 -0.3059
26956W        W42765  11.351  11.854   1.552  0.0499  0.3456  0.0684
26957W        W42766  16.250  16.559  12.825  0.1399 -0.1313 -0.1454
26958W        W42767   2.802  14.164  12.777  0.1106  0.0399 -0.0134
26959W        W42768  12.779   3.430  15.084  0.0118 -0.1350  0.0410
26960W        W42769   6.613   0.143  15.430  0.3033 -0.0069 -0.1545
26961W        W42770   9.724  18.369  13.820  0.0092 -0.0229  0.0311
26962W        W42771  17.763  17.978  11.953 -0.2021  0.0947  0.1025
26963W        W42772  15.179  12.877   3.895  0.3115 -0.0640  0.0422
26964W        W42773   1.598   5.729  14.698  0.1836  0.1177 -0.3369
26965W        W42774   1.698   4.770  14.224  0.0648  0.0503 -0.2015
26966W        W42775   3.554  17.006  12.891 -0.0324  0.1148 -0.0859
26967W        W42776   7.041  10.757   0.124 -0.5149 -0.0654 -0.0798
26968W        W42777   5.601   1.348  12.317 -0.0075  0.0220  0.0631
26969W        W42778   6.482  12.737  11.875 -0.3300 -0.1815  0.0399
26970W        W42779   5.230   1.062   4.022  0.1637 -0.1987 -0.1559
26971W        W42780   4.642  12.291   4.818 -0.0661  0.0024 -0.0722
26972W        W42781   5.256  16.248  13.024 -0.0031  0.3783  0.0619
26973W        W42782   6.216  17.915   5.924  0.2263  0.0466 -0.1011
26974W        W42783   6.519  16.900   0.692  0.0628  0.0079 -0.1243
26975W        W42784  13.769  14.241  11.985  0.0347  0.0110 -0.1535
26976W        W42785  11.182  17.592  15.082  0.0500 -0.1603  0.0628
26977W        W42786   7.797   0.801  11.872  0.2237  0.1378 -0.0259
26978W        W42787  15.250  15.158   9.890 -0.0318 -0.0589  0.0726
26979W        W42788  10.094   1.953  12.637 -0.2417 -0.1692  0.2169
26980W        W42789   7.815   1.042   2.914 -0.0356 -0.3153 -0.2391
26981W        W42790  16.722  15.028   3.692  0.1752  0.2927 -0.4793
26982W        W42791  14.998  14.748  11.566 -0.5349  0.0848  0.1125
26983W        W42792  10.578  16.539   1.067  0.2287 -0.1946  0.0618
26984W        W42793  10.993   8.703   1.951  0.2123 -0.0751  0.1456
26985W        W42794  18.047   4.475   2.477  0.0272 -0.1196  0.1126
26986W        W42795  16.538   5.782   9.869 -0.0933 -0.1171 -0.0541
26987W        W42796   1.344   3.556  12.579 -0.0755  0.3400 -0.1877
26988W        W42797   7.611  13.507   3.520  0.0171 -0.2672 -0.0686
26989W        W42798   4.562   2.117   4.562  0.1067 -0.2119  0.1554
26990W        W42799  14.968  14.052   5.082  0.4596  0.1349  0.1651
26991W        W42800   4.915   4.960  11.891  0.1364  0.3393 -0.1601
26992W        W42801  15.617  13.721   1.087 -0.1383 -0.2757  0.1410
26993W        W42802   6.994   2.705   3.461  0.4202  0.2781  0.3754
26994W        W42803  12.662  16.061   4.702 -0.1863  0.0684 -0.0885
26995W        W42804  16.728   1.761   3.262 -0.1324  0.0550 -0.2122
26996W        W42805   9.644  12.737   0.802  0.1295  0.2217 -0.3260
26997W        W42806   3.614   3.695  13.026  0.1579  0.2213  0.0715
26998W        W42807  10.418  12.556   2.368  0.3124 -0.2132 -0.0622
26999W        W42808   4.382   5.728  13.843  0.0344  0.3494 -0.1587
27000W        W42809  16.630  17.061  12.883 -0.2319 -0.4980  0.0975
27001W        W42810   4.982   5.576   4.264 -0.0192  0.1421  0.3513
27002W        W42811  16.408   7.001  11.808  0.0535  0.1337  0.1442
27003W        W42812  14.193   3.296   0.966  0.3880 -0.3087  0.2091
27004W        W42813  18.260   4.459  15.338 -0.1360 -0.0066  0.0338
27005W        W42814  13.644   1.728  11.531 -0.2796 -0.1185 -0.3235
27006W        W42815   6.835   2.197  14.899  0.0030  0.2197 -0.0002
27007W        W42816  18.059  10.400   0.582  0.0323  0.0002 -0.0029
27008W        W42817   1.896   1.166  15.237  0.0819  0.2270  0.1414
27009W        W42818  14.337   8.539  12.083  0.2824 -0.0454  0.1311
27010W        W42819  17.223   4.172   0.397 -0.0691 -0.1455 -0.1027
27011W        W42820   9.829   5.392   1.302 -0.0443  0.1094  0.2068
27012W        W42821   2.811   9.240   0.145  0.0342  0.1697 -0.1342
27013W        W42822   4.020  16.593   2.487  0.0176  0.0780 -0.2111
27014W        W42823   4.000  11.233  10.001  0.0726  0.2395  0.1408
27015W        W42824  18.090  12.506   9.648 -0.0467  0.1193 -0.0027
27016W        W42825   5.050  11.731  11.454  0.0214  0.0285 -0.0519
27017W        W42826   4.192   6.072  11.712  0.0130 -0.1974  0.1489
27018W        W42827  15.001  15.326  12.722 -0.0323  0.2754  0.0411
27019W        W42828   1.619  12.198   4.077  0.2314 -0.2218  0.2004
27020W        W42829  16.371  14.319   2.293 -0.0457  0.0294  0.0320
27021W        W42830   1.069   8.867  12.477 -0.0235  0.1246 -0.0729
27022W        W42831   7.894  13.736  13.653  0.0542  0.0981 -0.1412
27023W        W42832   0.416   8.691  13.176  0.1642 -0.1273  0.2258
27024W        W42833  14.641  13.652  13.238  0.0955 -0.1999 -0.1074
27025W        W42834  11.275   7.548  12.571  0.0253  0.1466 -0.3130
27026W        W42835  17.037   9.120   9.800 -0.3161  0.1389 -0.1413
27027W        W42836  14.922   3.527   2.940 -0.1710  0.1504  0.2822
27028W        W42837  15.599   6.073  13.498 -0.0002 -0.1637 -0.2391
27029W        W42838   2.951   5.763   3.448  0.0955  0.2813  0.2004
27030W        W42839   9.324  17.509  13.599  0.1588  0.1895  0.2264
27031W        W42840   1.970   6.466   1.021  0.1639 -0.0182 -0.0962
27032W        W42841  11.507  12.534  14.775  0.2130 -0.0360  0.0692
27033W        W42842   1.634  11.943  14.835 -0.1000 -0.0034 -0.3406
27034W        W42843  15.328   2.983   9.936  0.0410  0.1251  0.2622
27035W        W42844  16.927  17.773   2.323  0.3045 -0.1515 -0.0366
27036W        W42845   7.831   7.971   0.479 -0.1333  0.2763 -0.0175
27037W        W42846   5.572   8.198  14.772 -0.0622  0.2190 -0.3840
27038W        W42847  10.140  13.955   5.844  0.0743  0.2132 -0.2191
27039W        W42848   8.470   1.236  10.765  0.2206  0.2116  0.1859
27040W        W42849   5.813  16.388   2.228  0.1484 -0.2881 -0.3262
27041W        W42850   3.880   8.158   1.125 -0.1783  0.0057 -0.1995
27042W        W42851  12.424  13.013  15.426 -0.0662 -0.1030 -0.0070
27043W        W42852   3.847  12.319  13.039 -0.0906 -0.2229 -0.0636
27044W        W42853  14.870  15.959  11.918  0.1084  0.0410 -0.0060
27045W        W42854  13.373   3.501   4.045 -0.0152  0.0132 -0.0437
27046W        W42855   8.657   2.335  14.936  0.0646  0.2860 -0.0185
27047W        W42856  17.027  14.947   0.148 -0.0943 -0.2301 -0.1677
27048W        W42857  10.389   7.252   4.052 -0.1863  0.1470 -0.1873
27049W        W42858   7.951  16.249   2.735 -0.0133  0.1853 -0.0440
27050W        W42859   0.956  16.134   0.043 -0.0213 -0.0344 -0.3200
27051W        W42860   7.793   7.646  11.673  0.0300 -0.3477 -0.2788
27052W        W42861   4.807  18.070  14.515  0.1504 -0.0651  0.1128
27053W        W42862   1.889  12.004   5.424  0.4067 -0.2842 -0.1278
27054W        W42863   1.047   0.519   2.971  0.0648 -0.2050 -0.2880
27055W        W42864  11.134   6.507   4.814  0.2973  0.2331 -0.1954
27056W        W42865   5.937  14.165  10.777  0.2092  0.1022 -0.1125
27057W        W42866  10.381   8.772   5.419 -0.1539  0.1887  0.0563
27058W        W42867  14.281   9.041   0.760 -0.0671  0.4081  0.0074
27059W        W42868  16.076  15.347  13.125 -0.1845  0.0452  0.0381
27060W        W42869  13.948   6.588   1.276 -0.3205 -0.2657  0.2097
27061W        W42870  10.156  10.793   5.886  0.0871 -0.2315 -0.2633
27062W        W42871  14.539   4.121   3.531  0.0251  0.0298 -0.2535
27063W        W42872   1.011   1.384  12.219 -0.0755 -0.3079 -0.0701
27064W        W42873  14.747  18.311  12.932 -0.1602 -0.1713  0.0043
27065W        W42874  14.153   2.309  14.552  0.1792 -0.2716  0.2419
27066W        W42875  16.637   0.352  13.841 -0.2343  0.2644  0.1224
27067W        W42876  18.120  15.154  13.287 -0.2578 -0.2127  0.2081
27068W        W42877   6.512  15.916  15.333  0.1109  0.1794  0.0440
27069W        W42878   7.572   9.107  12.046  0.0740  0.2094 -0.1388
27070W        W42879   2.074  15.695  12.724 -0.1934 -0.3517  0.1433
27071W        W42880  15.006   5.732   2.326 -0.1508  0.4744 -0.0280
27072W        W42881  15.529  10.132   2.279  0.2225  0.0595 -0.1173
27073W        W42882  15.781  12.960   2.431  0.2646  0.2363 -0.2260
27074W        W42883  13.811  16.329  14.303 -0.0420 -0.3698 -0.1600
27075W        W42884  12.668   5.485   9.896 -0.1999  0.0946 -0.1662
27076W        W42885  13.937  11.666  15.604 -0.0333 -0.2630 -0.0225
27077W        W42886  11.706  12.809  13.829  0.2710  0.1400 -0.3326
27078W        W42887   3.793  12.527   1.762  0.2753 -0.4255  0.0327
27079W        W42888   6.558  18.495   4.293  0.2312 -0.2016 -0.3515
27080W        W42889  15.155   1.539  11.027  0.1879  0.1511  0.0898
27081W        W42890  18.301  10.967   0.924  0.1431 -0.1615  0.1777
27082W        W42891   4.930   9.805  13.783 -0.0380 -0.0413  0.2436
27083W        W42892   2.321  13.072   3.126  0.0034  0.1168 -0.3442
27084W        W42893  16.065  10.204   3.719  0.0425  0.2427  0.0444
27085W        W42894   4.795  17.339  12.460 -0.1858  0.2311  0.0570
27086W        W42895  15.623  12.301   4.582  0.3101 -0.3522 -0.1542
27087W        W42896  11.671   0.431   0.398 -0.1794 -0.2010 -0.0153
27088W        W42897  14.680  12.351  12.833 -0.1961  0.2882  0.1767
27089W        W42898  11.286   8.058  14.850  0.0583  0.0455  0.0590
27090W        W42899  11.264   2.223   0.684 -0.0127  0.1242  0.3703
27091W        W42900   3.095  11.835   1.638  0.2022 -0.1895  0.0624
27092W        W42901  15.734  17.816   4.418  0.0696 -0.1953 -0.2494
27093W        W42902   0.068  12.735   3.846  0.2676 -0.2602 -0.0113
27094W        W42903  16.239  17.679  11.272 -0.1293 -0.0262  0.0176
27095W        W42904   4.727   0.987  13.413 -0.1289 -0.2670 -0.0863
27096W        W42905   4.888   4.068  12.065  0.0121  0.2154 -0.1430
27097W        W42906  10.411   5.192  13.049  0.3730  0.1382 -0.0782
27098W        W42907  18.012  10.749   9.329 -0.2390  0.2044  0.0563
27099W        W42908   5.197   4.487   1.645  0.2314  0.1127 -0.0286
27100W        W42909  15.561  13.799   4.402  0.0408  0.0180 -0.3233
27101W        W42910   3.708  16.879   5.772  0.2937  0.1776  0.1850
27102W        W42911   5.959   5.514   0.253 -0.1343 -0.4041  0.0522
27103W        W42912   6.631   8.505   0.760 -0.5038 -0.0145 -0.0496
27104W        W42913   1.688  16.239   5.146  0.3265 -0.3731 -0.0598
27105W        W42914   8.443  10.566   3.355 -0.0454  0.2702 -0.1636
27106W        W42915  16.428  11.776  14.875  0.0517 -0.0708 -0.0148
27107W        W42916  16.564   1.320   4.341  0.1078  0.1650 -0.1921
27108W        W42917   6.706   1.011  12.706 -0.2028 -0.0562 -0.2752
27109W        W42918  17.608  15.504  11.092  0.0184 -0.4132  0.2006
27110W        W42919  15.172   5.857  11.718  0.4928  0.1428 -0.3811
27111W        W42920   6.254  11.329  13.250 -0.0155  0.1497 -0.2141
27112W        W42921   9.703  11.039  11.690  0.0618 -0.0707  0.2096
27113W        W42922  17.569  15.091   1.075 -0.2528 -0.1805 -0.1643
27114W        W42923  13.248   2.821   5.951 -0.4405 -0.2359  0.0349
27115W        W42924  18.218  15.038  14.797  0.0537 -0.1137  0.1543
27116W        W42925   4.789   3.198   1.024  0.2147  0.0047  0.2046
27117W        W42926   8.690   1.221   5.090 -0.0356  0.0239 -0.2244
27118W        W42927  17.742   3.540   4.503  0.0457 -0.0127 -0.1856
27119W        W42928  18.017  13.346   3.685 -0.0955  0.4562 -0.0087
27120W        W42929   6.703   5.972   3.952 -0.0111 -0.4207 -0.1686
27121W        W42930  16.545   3.125  12.903 -0.0188 -0.1669 -0.2891
27122W        W42931   3.519  11.357   3.595  0.1479  0.3308  0.0518
27123W        W42932  14.049   5.625  11.370  0.0404  0.3964 -0.0307
27124W        W42933   3.268  15.272  14.333  0.2491  0.0139  0.0922
27125W        W42934   4.034   7.555   5.128  0.1369  0.0573  0.1377
27126W        W42935   3.428   8.915   4.094  0.1691 -0.0862 -0.3016
27127W        W42936   5.713  18.063   4.314 -0.1527 -0.0090 -0.0425
27128W        W42937  13.778  14.791  10.288 -0.0865 -0.1769 -0.1081
27129W        W42938   2.736   1.591   3.207 -0.1120  0.2742 -0.0266
27130W        W42939  12.679  15.640  15.335  0.0450  0.2137 -0.2849
27131W        W42940   0.086  11.228  10.942 -0.2995 -0.1744  0.2062
27132W        W42941   9.496   3.256   1.708  0.1770  0.2271 -0.2636
27133W        W42942  10.584  12.170   4.856  0.1998  0.0769 -0.0160
27134W        W42943  16.638  18.295   4.766  0.1137  0.1358  0.1770
27135W        W42944   6.520  12.565  15.155 -0.1852  0.4472  0.1718
27136W        W42945  14.715  10.350  13.936  0.2154 -0.2223 -0.5817
27137W        W42946  14.766  13.266  12.308  0.2615  0.0587 -0.0078
27138W        W42947   7.458  14.632  12.747 -0.1933  0.0744  0.1789
27139W        W42948  15.843   2.916  13.339 -0.0858 -0.2075 -0.0318
27140W        W42949   9.872  18.249  12.955  0.0168  0.0715 -0.4907
27141W        W42950  12.238   3.445   2.995 -0.0113 -0.1078 -0.1484
27142W        W42951  17.178  10.030  12.503 -0.0677 -0.3968 -0.2167
27143W        W42952  15.027  18.078   0.955 -0.0691  0.2816 -0.0407
27144W        W42953   2.703   9.407   4.309  0.3193  0.1039 -0.1355
27145W        W42954   0.702  17.059  10.932  0.0419 -0.0935 -0.1291
27146W        W42955  13.591   3.370   1.624 -0.0046  0.0975  0.0249
27147W        W42956  17.883  16.482   2.851 -0.1724 -0.1556  0.0650
27148W        W42957   6.475  13.622  12.519  0.0893 -0.0411  0.1189
27149W        W42958  18.037  14.802   1.786  0.1379  0.1437 -0.1554
27150W        W42959  16.565   8.950  14.067 -0.2173 -0.1378 -0.1731
27151W        W42960   0.243  15.818   4.439  0.2210  0.2743 -0.0584
27152W        W42961   1.198   4.239  10.450 -0.0056 -0.2779 -0.0038
27153W        W42962  16.945  17.263  11.098  0.0344 -0.1227 -0.0141
27154W        W42963   1.553  15.723   5.235 -0.0549  0.2477 -0.0264
27155W        W42964   0.534   5.615   2.017  0.1732  0.2254  0.1091
27156W        W42965  17.858   9.499  11.382 -0.2839 -0.1839 -0.3111
27157W        W42966  11.461   2.064   3.700  0.1442 -0.0989 -0.1683
27158W        W42967  17.457  17.589   2.343 -0.0361  0.3191 -0.2583
27159W        W42968  10.398   7.624  13.081  0.0582 -0.4342 -0.3088
27160W        W42969   1.662   6.937  15.559  0.0051 -0.0765 -0.0494
27161W        W42970  12.046   3.648   4.960  0.0315 -0.0426  0.1066
27162W        W42971   1.020   3.145  11.804 -0.0853 -0.4530  0.2091
27163W        W42972   8.748   6.429  12.695 -0.2424 -0.3244 -0.1797
27164W        W42973   1.775  15.181  14.220  0.0284  0.2273  0.1580
27165W        W42974   6.749  13.240  14.436 -0.4005  0.2736 -0.1153
27166W        W42975   2.994  12.081   4.966 -0.1890  0.0858  0.0529
27167W        W42976  14.123   5.508  10.892 -0.1311  0.1142  0.3951
27168W        W42977   9.137   9.837  13.712  0.0051 -0.1920  0.0208
27169W        W42978  13.507   5.484   4.345  0.0919 -0.0804 -0.1013
27170W        W42979   4.121  17.713   4.849  0.0343  0.0367 -0.1099
27171W        W42980  16.105   5.464   4.244  0.2461  0.0094 -0.0877
27172W        W42981   6.072  12.302  14.969  0.0691 -0.0939 -0.2904
27173W        W42982   9.058  12.886   4.418 -0.0411  0.0257 -0.0777
27174W        W42983   4.048  16.198  12.139  0.0703  0.1964 -0.2445
27175W        W42984  18.181  18.214   1.935 -0.1944 -0.0140  0.0696
27176W        W42985  11.005   9.558   2.809 -0.2384  0.4768  0.0915
27177W        W42986  13.538   6.140   2.055  0.1044  0.0170  0.0731
27178W        W42987  15.512   8.479  14.999  0.3713  0.0445 -0.1046
27179W        W42988  17.053   0.307   1.902 -0.4628  0.1750  0.2934
27180W        W42989  18.616  13.484   0.236 -0.0160 -0.2497 -0.2476
27181W        W42990   9.677   7.216   5.723  0.0431  0.1323 -0.1922
27182W        W42991  14.628   8.089   2.834 -0.1227 -0.4082  0.1523
27183W        W42992   5.736  13.766   2.636  0.0678 -0.0764  0.2479
27184W        W42993  14.548  13.435  11.366  0.2947  0.0724 -0.0157
27185W        W42994  17.018  17.995   4.988 -0.0025  0.0139 -0.0175
27186W        W42995  11.067   3.503  12.662 -0.3111  0.2128  0.0192
27187W        W42996  11.085   3.754   2.454 -0.0387  0.0366  0.2367
27188W        W42997  13.026   0.408   3.073 -0.0775  0.3390 -0.2949
27189W        W42998  13.488   9.640  14.012 -0.0359 -0.1179 -0.1570
27190W        W42999  18.525   1.977  13.088  0.1215  0.1028  0.1165
27191W        W43000  10.828   7.265  13.658 -0.0949  0.0272  0.0919
27192W        W43001   9.302   5.688   4.788  0.2623 -0.0940 -0.3006
27193W        W43002  18.346   7.067  10.650 -0.2913 -0.0256 -0.2186
27194W        W43003   2.110   8.313   0.656  0.0198  0.1664  0.0976
27195W        W43004   9.674  15.321  14.798 -0.2581 -0.1127  0.1775
27196W        W43005   7.623  11.327   4.320 -0.0987  0.2795 -0.3874
27197W        W43006  18.635  12.386   1.731  0.1151  0.1734  0.1383
27198W        W43007   2.884   0.343   3.774  0.2043  0.1617 -0.1444
27199W        W43008  16.686  12.599  11.962  0.1285 -0.0279 -0.0736
27200W        W43009  11.107   4.804   2.023  0.0036  0.1154  0.0897
27201W        W43010  13.089   8.844   1.271 -0.1856  0.1770 -0.2788
27202W        W43011  16.939   2.286  12.177  0.1426  0.2175 -0.0979
27203W        W43012  16.535  12.010   3.109  0.1041  0.1048  0.1954
27204W        W43013   7.910   7.185   3.199  0.0086 -0.0136  0.1002
27205W        W43014   4.051  16.168  14.775  0.0601 -0.0814  0.2710
27206W        W43015   7.935  14.777  15.593 -0.1900  0.0447  0.1457
27207W        W43016   4.628   0.196   5.413 -0.1411 -0.0721 -0.2518
27208W        W43017  13.780   7.844  11.228 -0.2359  0.0522  0.1560
27209W        W43018  13.097  17.861   1.191 -0.0839 -0.1212  0.0269
27210W        W43019  10.423  13.136   4.041 -0.0220 -0.1021  0.3059
27211W        W43020   8.097  17.392   4.093  0.3049  0.4442  0.1572
27212W        W43021  16.380   4.127   4.980 -0.1650  0.0291  0.1148
27213W        W43022  17.198   4.393   4.266 -0.1707 -0.0232 -0.4339
27214W        W43023  12.064  11.173   4.853  0.3378  0.0482  0.2339
27215W        W43024   7.065   4.828   1.318  0.2315 -0.1251  0.3247
27216W        W43025   5.275  11.580   1.303  0.0676 -0.0945 -0.1074
27217W        W43026   2.565  13.315   0.772 -0.2513 -0.2156 -0.1013
27218W        W43027   4.812   9.323   3.543  0.2435 -0.1553 -0.3119
27219W        W43028  14.799   2.290   2.924  0.1695  0.3074  0.0461
27220W        W43029  18.639   5.266  12.685 -0.0395 -0.1924 -0.1440
27221W        W43030  10.466   0.350  12.581 -0.1116  0.1162 -0.0732
27222W        W43031   6.046   8.613  12.873  0.2291  0.0580 -0.0981
27223W        W43032  15.475   2.898  10.915 -0.2821 -0.3663  0.0569
27224W        W43033   0.294  12.405   3.472 -0.3208 -0.1106  0.0138
27225W        W43034  17.180  16.077  13.863 -0.0874 -0.1169 -0.0887
27226W        W43035  16.418   2.963   5.890  0.3769  0.1428  0.0004
27227W        W43036  15.636   7.591  11.230 -0.3001 -0.0214 -0.0494
27228W        W43037   6.348  15.137   2.009  0.1934 -0.2143  0.1307
27229W        W43038   1.748  12.066   1.295  0.1735  0.2439  0.0070
27230W        W43039   8.102  14.088  13.218 -0.0662  0.0692  0.1019
27231W        W43040   8.472   1.300  11.316  0.1040  0.0456  0.1778
27232W        W43041  10.930  17.881   0.826  0.0456 -0.0417  0.0739
27233W        W43042  10.746  15.792  14.916 -0.1309  0.1034  0.2422
27234W        W43043  18.083   1.759   0.581 -0.2087  0.1031 -0.3607
27235W        W43044   3.672   1.540  11.549  0.1902  0.0917  0.2152
27236W        W43045  16.779   4.611   3.792  0.2671  0.0740  0.0296
27237W        W43046  15.413   6.281  11.465  0.1724  0.1727  0.2833
27238W        W43047   5.801   8.757  14.696 -0.2131 -0.0745  0.2601
27239W        W43048  15.922   0.789  11.663 -0.0877  0.3068 -0.2048
27240W        W43049  10.102  11.209  12.417 -0.0875 -0.3782  0.0280
27241W        W43050   1.476   6.528  14.992 -0.3706  0.0434  0.1593
27242W        W43051  10.807  13.150   1.429  0.0154  0.0799  0.0311
27243W        W43052  16.552  10.452  10.538 -0.0060  0.0937 -0.0221
27244W        W43053  12.172  15.999   1.433 -0.2427 -0.3103  0.2607
27245W        W43054   8.852  17.172  11.990 -0.1043 -0.2536  0.4559
27246W        W43055   4.520  11.602   2.546  0.1531 -0.3087 -0.1724
27247W        W43056   9.387   5.491   2.184 -0.2165 -0.1136 -0.3208
27248W        W43057  14.746   1.305  14.554  0.1706  0.1721  0.1216
27249W        W43058   7.237   4.357  13.151  0.0105 -0.0008  0.1334
27250W        W43059  14.051  13.535  14.857 -0.0864  0.2189  0.3995
27251W        W43060  15.742   7.588  15.279 -0.2468  0.0506  0.1703
27252W        W43061  13.560   8.251  11.465  0.0567 -0.0448 -0.0279
27253W        W43062  10.723   1.608  11.504  0.0676 -0.1421  0.0873
27254W        W43063  13.201   4.241  13.635 -0.3750 -0.0918 -0.0002
27255W        W43064  12.682   3.661   3.094 -0.1344 -0.2465  0.0988
27256W        W43065   3.120   7.533  14.942 -0.1160 -0.0744 -0.0328
27257W        W43066   5.427  11.204   0.965 -0.0335 -0.0166 -0.1234
27258W        W43067  16.538   3.354  11.523  0.2696  0.0079  0.1215
27259W        W43068   4.832   3.844  10.919 -0.1462  0.0030  0.1071
27260W        W43069   9.465  11.941  15.580 -0.0373  0.0189 -0.1016
27261W        W43070   4.851  15.149  11.961 -0.2274 -0.0190 -0.0550
27262W        W43071   2.176  18.007   3.355  0.1017 -0.0207 -0.2053
27263W        W43072  16.072   6.442  13.440  0.0075  0.0365  0.2538
27264W        W43073   7.191   5.205   3.951 -0.2108  0.3677  0.1319
27265W        W43074   0.553   7.857   0.637  0.2485 -0.0152  0.0367
27266W        W43075   9.216  16.423   0.457 -0.0861 -0.2035  0.0743
27267W        W43076  10.306  10.825  12.016 -0.0145 -0.0594  0.2373
27268W        W43077   6.342   1.358  15.270  0.3119 -0.1321  0.0602
27269W        W43078   4.656  15.932  10.090  0.1127  0.0549  0.3337
27270W        W43079   8.403  18.649   2.303 -0.1030 -0.1620  0.2763
27271W        W43080   4.566  13.984   9.956  0.1568  0.0776 -0.0195
27272W        W43081   6.220  16.252  11.959  0.1296  0.0056 -0.0551
27273W        W43082   9.014  16.929   1.721 -0.2157  0.0855  0.1319
27274W        W43083  16.949  17.645   3.539 -0.0750  0.2124 -0.0315
27275W        W43084  15.057   5.538   1.333 -0.0536  0.0070 -0.3622
27276W        W43085   2.812   6.971   2.006 -0.0246 -0.1418  0.0776
27277W        W43086   4.351   8.404   3.746 -0.3085 -0.1211 -0.0695
27278W        W43087   3.955  15.848   0.073 -0.0719  0.2104 -0.2589
27279W        W43088   9.110   8.950  14.201 -0.2614 -0.3500  0.0439
27280W        W43089   1.477   3.398   1.787 -0.0128 -0.1485  0.0477
27281W        W43090  16.142  14.799  10.264  0.1334 -0.0389  0.0330
27282W        W43091   8.170   0.762   2.524 -0.1658  0.0132  0.1392
27283W        W43092   1.049   4.741   0.453 -0.1356 -0.2547 -0.0182
27284W        W43093   6.718   0.752   4.781  0.1655  0.3634 -0.0148
27285W        W43094  15.707  13.238  11.105  0.3224 -0.0911  0.0188
27286W        W43095   2.629   0.103   2.896 -0.0831  0.1596  0.0587
27287W        W43096  18.068  13.002   1.900 -0.0684  0.1356 -0.1967
27288W        W43097   0.493  15.606  12.854 -0.1458  0.1001 -0.0870
27289W        W43098  17.447  12.294   4.861 -0.0089 -0.3714 -0.3930
27290W        W43099  10.634  15.273  10.119  0.0676 -0.0157  0.2050
27291W        W43100  14.378  13.438   0.190 -0.0716 -0.0631 -0.0263
27292W        W43101   5.976   0.128   5.631  0.2701  0.0804 -0.0237
27293W        W43102   4.659   4.909   3.805 -0.1511  0.0837  0.1593
27294W        W43103  17.587   3.932  14.852  0.1022  0.0880 -0.1834
27295W        W43104   8.903  11.648  12.086 -0.2868 -0.1268  0.0222
27296W        W43105  17.761   4.509  15.179 -0.0812 -0.1271  0.2140
27297W        W43106   1.831  18.276  15.531  0.1116 -0.1493  0.0318
27298W        W43107   6.562  16.145  12.423  0.0091 -0.1831  0.2618
27299W        W43108  16.055  10.088   5.144 -0.0203  0.1527 -0.0024
27300W        W43109   1.069  10.597   5.269 -0.2879 -0.1360 -0.0879
27301W        W43110  12.451   5.940  14.904 -0.3198 -0.1894  0.2017
27302W        W43111  13.679  15.267  11.670  0.1577  0.0068  0.1755
27303W        W43112  14.098  16.027  10.168  0.0905 -0.1469  0.0897
27304W        W43113   0.340  11.164  11.337  0.0949 -0.0595 -0.2945
27305W        W43114  17.367  14.771   4.304 -0.1489  0.1633  0.0959
27306W        W43115  12.219  16.092  11.905 -0.1480  0.0658  0.0092
27307W        W43116   8.083   6.637   3.336  0.1614  0.0486  0.3731
27308W        W43117   3.056   9.800   2.834  0.0489 -0.0979 -0.2132
27309W        W43118  11.100  15.459  13.994  0.1661 -0.0212  0.1978
27310W        W43119  14.615  18.151  13.370  0.0406 -0.1076  0.1897
27311W        W43120  16.759  13.344   1.853  0.2178  0.0510 -0.1571
27312W        W43121   3.806   9.845  11.593  0.1392  0.0224 -0.0144
27313W        W43122   9.270  18.477  10.091  0.0797 -0.1234 -0.1075
27314W        W43123  17.527  14.246  12.405  0.0315 -0.1961  0.0120
27315W        W43124   3.654   4.258   9.933 -0.1309  0.1519 -0.2703
27316W        W43125   8.418   0.118   5.761  0.1344 -0.0155  0.2147
27317W        W43126   7.358  17.697   2.146 -0.2248 -0.0411 -0.1203
27318W        W43127   1.493   2.401  14.078  0.1001 -0.2749  0.0694
27319W        W43128  14.922  12.904  12.015 -0.1241 -0.0599 -0.1686
27320W        W43129   6.511  10.411   5.729 -0.0596 -0.1206 -0.4309
27321W        W43130   2.404  10.921  14.257 -0.1317 -0.0810  0.4406
27322W        W43131   1.143   0.137   4.505  0.1028 -0.4148  0.2482
27323W        W43132   0.099  12.844  14.313  0.2929  0.0799  0.3091
27324W        W43133  14.749   8.840  12.267 -0.2487  0.3296 -0.1863
27325W        W43134   6.584  15.290   4.048 -0.1072 -0.0420 -0.0358
27326W        W43135   3.554   0.485  13.712 -0.1836 -0.1233 -0.4281
27327W        W43136   1.378   5.897   0.086  0.0245  0.0597 -0.3492
27328W        W43137  18.125   8.037  15.116  0.2763  0.0651 -0.3035
27329W        W43138   4.618   7.028   3.686 -0.3285  0.1792 -0.0003
27330W        W43139   0.212  18.305  15.579  0.2941 -0.0078  0.1533
27331W        W43140  16.608   8.286   2.722 -0.0238 -0.0336  0.6554
27332W        W43141   0.865   5.520  10.325 -0.1253 -0.3137  0.1342
27333W        W43142   5.710   8.344  15.233  0.0102 -0.1832 -0.2532
27334W        W43143   3.935  15.692   2.832  0.2439  0.4463 -0.5171
27335W        W43144   7.109   4.189   3.945  0.1134  0.0295  0.1145
27336W        W43145  12.359  10.433   1.068 -0.0039 -0.0806 -0.1713
27337W        W43146   3.649  17.663   4.240 -0.0116  0.2660 -0.3044
27338W        W43147  12.545   2.258  14.229 -0.0333 -0.1335 -0.2379
27339W        W43148  10.056   6.049   1.961 -0.1589  0.0757 -0.3037
27340W        W43149   5.332   4.635  13.948  0.1522  0.2441  0.0288
27341W        W43150   4.265  11.442   3.364  0.0638  0.1906  0.1163
27342W        W43151  10.082   8.554  12.073 -0.2841  0.0167 -0.2879
27343W        W43152  16.790   7.290   3.423 -0.0833 -0.0657 -0.3260
27344W        W43153  17.521   4.212  12.306  0.0351 -0.0200  0.2976
27345W        W43154   3.776   9.273   4.227  0.4129 -0.5695 -0.2799
27346W        W43155   8.860   7.206   2.863 -0.2773 -0.1343  0.1797
27347W        W43156   6.249   2.793   1.400  0.1074  0.0371  0.1221
27348W        W43157   5.339  14.602   2.100 -0.5681  0.0401 -0.1641
27349W        W43158   0.619   0.876   4.365  0.2894 -0.2783  0.3251
27350W        W43159   3.443  10.314   9.932 -0.2174  0.1058  0.0219
27351W        W43160  15.128  18.009  13.774  0.0882  0.2342  0.0930
27352W        W43161   3.075   0.002  12.005 -0.2621  0.3339  0.2185
27353W        W43162   0.287   8.745  13.657 -0.0689  0.0119  0.1281
27354W        W43163  16.931   3.967  14.106 -0.0738 -0.1015 -0.1831
27355W        W43164  13.063  17.467  13.424  0.2634  0.0359 -0.3546
27356W        W43165  15.350  11.136  14.771  0.0893 -0.3620  0.0709
27357W        W43166   7.626   1.887  15.624  0.2016  0.0899 -0.5098
27358W        W43167   7.656  18.077   4.518 -0.5095 -0.0403 -0.0851
27359W        W43168  11.832  13.812   0.888 -0.0319  0.1478  0.0325
27360W        W43169   1.599  13.401   5.352 -0.0289 -0.1140 -0.1902
27361W        W43170   9.264   1.861  11.576 -0.1075 -0.1495 -0.0889
27362W        W43171  16.105  15.138   4.127  0.0600 -0.2262 -0.2658
27363W        W43172   7.191  11.606  13.025  0.2108  0.4486  0.1510
27364W        W43173  18.179  15.260   4.829 -0.1568  0.0560  0.1099
27365W        W43174  14.108   1.767  12.589  0.0871 -0.1262  0.1803
27366W        W43175   3.335   6.798  13.502 -0.3111  0.1023 -0.1253
27367W        W43176  18.539  11.298  13.628 -0.2404 -0.0072  0.1881
27368W        W43177   9.273  17.320   0.188 -0.1398 -0.0360 -0.2317
27369W        W43178   9.805  14.636   4.544  0.4607  0.3063 -0.1722
27370W        W43179   0.208  15.586   2.392 -0.0744  0.1637 -0.0136
27371W        W43180  15.061   4.841   3.754 -0.2375  0.1737  0.1392
27372W        W43181   4.843   0.495   0.729  0.4470  0.0226  0.2658
27373W        W43182  18.576   8.543   2.741 -0.2976  0.1968  0.2865
27374W        W43183   0.726  15.039   4.352 -0.0949  0.0685 -0.1526
27375W        W43184   7.502  16.693   3.300  0.1824  0.0488  0.0411
27376W        W43185  13.102   1.419   3.335 -0.0921 -0.0757  0.1765
27377W        W43186   3.837  18.420  13.163 -0.0708  0.4033  0.2819
27378W        W43187  12.312  14.204  14.035 -0.0606  0.1977 -0.1640
27379W        W43188  14.272  13.150  12.356  0.5018 -0.0278  0.1353
27380W        W43189  16.862   2.595  11.055  0.2434 -0.1411 -0.0591
27381W        W43190  16.526   7.537  10.985 -0.2250 -0.1565 -0.0319
27382W        W43191   2.380  10.827   4.637 -0.2904  0.0694  0.0484
27383W        W43192   7.621  15.038  13.583  0.0896 -0.1304  0.0337
27384W        W43193  14.771   6.324   1.141 -0.0456  0.0298 -0.2882
27385W        W43194  15.762  14.198   1.099 -0.0926 -0.3139 -0.1646
27386W        W43195   2.754   2.637  14.076  0.0380  0.3105  0.2464
27387W        W43196   8.080  15.948   3.792  0.1216 -0.0830  0.1431
27388W        W43197   2.797  18.652   1.764  0.0676  0.0872 -0.4879
27389W        W43198   1.764  11.867  12.964  0.0757  0.0644  0.0727
27390W        W43199  11.748  13.527  10.724  0.2903 -0.2636  0.3588
27391W        W43200  14.253  15.194   1.940  0.1859  0.2599  0.0730
27392W        W43201  10.654   0.891  11.093 -0.0522 -0.1506 -0.0248
27393W        W43202   8.506  13.530  11.517  0.0944  0.2064  0.0191
27394W        W43203  14.048  14.687   1.760  0.0565 -0.0537  0.4718
27395W        W43204   6.147   0.834  15.326  0.1485  0.1476  0.1957
27396W        W43205   5.398   4.692   3.200  0.0770 -0.0792 -0.3412
27397W        W43206  16.690   1.598  14.458 -0.0933  0.0178 -0.0912
27398W        W43207  10.678   0.005   3.693  0.0340 -0.0914 -0.1106
27399W        W43208   3.443  16.255   4.542  0.1774  0.3304  0.4736
27400W        W43209   6.590  14.297  10.715 -0.0010  0.2465 -0.2690
27401W        W43210   0.280   7.109  14.611  0.0523 -0.1050  0.2149
27402W        W43211   0.819   6.160   1.508 -0.2879 -0.0041 -0.2499
27403W        W43212   3.696  14.552   0.332  0.1405  0.0951 -0.1380
27404W        W43213  15.801   4.222   2.727  0.1532 -0.1235  0.0157
27405W        W43214  13.047   2.345   3.294  0.1620  0.2819 -0.2049
27406W        W43215   6.638   8.839  11.882  0.2829  0.0896 -0.1683
27407W        W43216   4.509   0.341  13.742  0.0562  0.3613  0.1356
27408W        W43217  12.779   4.202  13.895 -0.0193 -0.1155 -0.2061
27409W        W43218  14.094   5.702   2.743 -0.1316 -0.0842  0.0407
27410W        W43219   6.628  16.999  10.769 -0.1714 -0.1526  0.2533
27411W        W43220   5.937   2.236   1.818  0.0684 -0.5494  0.5977
27412W        W43221  16.889   5.424  10.635 -0.0732 -0.1422  0.2055
27413W        W43222   6.698  16.364  11.896 -0.2645  0.1604  0.2426
27414W        W43223   6.171  10.114  10.693 -0.0173  0.1268  0.2497
27415W        W43224   3.341  10.159   3.073 -0.2465 -0.1502 -0.1180
27416W        W43225   8.899  12.855  12.426 -0.0248 -0.1067  0.2297
27417W        W43226  11.193  10.380  11.636  0.0913  0.0839  0.0258
27418W        W43227  12.549  11.127  13.304  0.1463 -0.0798 -0.0806
27419W        W43228   7.429   8.466  11.386 -0.4652  0.0645 -0.1025
27420W        W43229  13.829   8.855  13.537  0.0631 -0.0717 -0.1698
27421W        W43230   7.834   5.870   2.231 -0.2293  0.3098 -0.4822
27422W        W43231  16.282   0.081  14.043 -0.1644  0.1263  0.3409
27423W        W43232  16.852  13.189  14.366  0.1520  0.0759 -0.0496
27424W        W43233   6.641  12.536  10.710 -0.2791  0.1885  0.3437
27425W        W43234  14.225   1.307  12.447  0.0690 -0.0143 -0.2993
27426W        W43235   7.374   6.191  11.056  0.1654 -0.1045 -0.0138
27427W        W43236  14.308   1.890  11.517 -0.0817 -0.0213  0.0697
27428W        W43237   2.248  12.066  11.893  0.1561 -0.6104  0.4046
27429W        W43238   9.897   2.485   3.442 -0.1520 -0.0222 -0.2965
27430W        W43239  15.189   2.114  12.300  0.1371  0.0879  0.2226
27431W        W43240   5.232  10.087   1.509  0.1933  0.1840  0.0461
27432W        W43241  16.641  17.003   1.215  0.1302  0.1366  0.0346
27433W        W43242  11.926   6.161   4.030  0.0627  0.1687 -0.1120
27434W        W43243  12.520  10.532  11.146 -0.3658 -0.1168  0.1725
27435W        W43244  17.632  11.626   3.954  0.2444  0.0742  0.2716
27436W        W43245  16.180  10.253   0.574 -0.2300  0.2114  0.0204
27437W        W43246   0.684  11.637   5.068  0.0500  0.1266  0.0643
27438W        W43247   6.055   0.196  12.628 -0.1960  0.0483 -0.0021
27439W        W43248   7.953   0.430   0.253 -0.3293 -0.0213  0.1399
27440W        W43249  17.207  17.995   1.917 -0.2699 -0.4125 -0.1145
27441W        W43250   4.450   8.046   3.366 -0.0452  0.2250 -0.1684
27442W        W43251  10.251   8.538   3.132 -0.1976  0.1398  0.1282
27443W        W43252  10.192   7.980   6.471  0.2358 -0.0120 -0.1607
27444W        W43253   5.826  16.323  11.058  0.3001 -0.0530 -0.0247
27445W        W43254  11.126  11.686   2.904  0.3086 -0.0285 -0.2696
27446W        W43255   6.884  11.685  12.553 -0.1043  0.3893  0.2536
27447W        W43256   1.784   1.633  14.338  0.0800  0.3965  0.0406
27448W        W43257  13.487  13.187   3.838 -0.2260 -0.0214 -0.0946
27449W        W43258  14.785  14.181  12.061  0.1429  0.0554  0.1471
27450W        W43259  13.675   4.959   2.491  0.0085 -0.3748  0.1125
27451W        W43260   0.903   5.711  15.514 -0.1266 -0.0638 -0.3255
27452W        W43261   7.967   2.372  15.262  0.2458  0.2085  0.0047
27453W        W43262   4.866  16.550   5.544  0.2166  0.3669  0.2782
27454W        W43263  10.601   4.574   2.330 -0.2040 -0.0143  0.1457
27455W        W43264   6.936   1.535  11.163  0.2922 -0.0397 -0.0396
27456W        W43265   3.472   5.385  11.565 -0.2688  0.0891  0.0173
27457W        W43266  18.055   4.946   0.233  0.1082  0.2725 -0.1694
27458W        W43267  10.357  17.551   5.216 -0.1418  0.2934  0.0465
27459W        W43268  10.500  12.139  12.399 -0.0608  0.1644  0.0936
27460W        W43269  11.242  11.564  13.582  0.2316 -0.0464 -0.2131
27461W        W43270   8.469  15.011   4.637  0.1251 -0.0847 -0.0484
27462W        W43271   1.126   3.165  12.988 -0.0433  0.2512  0.3118
27463W        W43272   6.009   5.214   5.234 -0.1497  0.0854  0.0730
27464W        W43273   3.455   7.665  14.202  0.2316  0.0694 -0.0927
27465W        W43274  11.743   7.086   4.956 -0.1346 -0.1700 -0.0330
27466W        W43275   8.505   3.808   4.552 -0.0296 -0.2348  0.4732
27467W        W43276   2.878   8.089  12.871  0.0558 -0.0026 -0.2597
27468W        W43277   7.060  15.954   4.535  0.2646  0.0855 -0.1781
27469W        W43278  13.359  11.313  11.570 -0.2014  0.0258  0.1950
27470W        W43279  13.574  12.300   2.457  0.1518 -0.0179  0.0796
27471W        W43280  11.540  11.019   2.623 -0.1312  0.2747 -0.0060
27472W        W43281  14.019   9.204  12.671 -0.1901 -0.0131  0.0304
27473W        W43282   2.122   7.781  13.290  0.4200 -0.1335 -0.1183
27474W        W43283  10.745   5.840   4.631 -0.1514 -0.0796 -0.1625
27475W        W43284  14.746  14.793  14.319  0.3564 -0.1868  0.0445
27476W        W43285  10.654  14.320   0.595 -0.1180  0.2983 -0.2497
27477W        W43286   5.192  18.004  10.713 -0.0035  0.0086  0.1211
27478W        W43287  16.811   0.626  14.942  0.4652  0.1646  0.1884
27479W        W43288  12.222  14.111   3.543 -0.2651 -0.1209 -0.0280
27480W        W43289   2.702   0.329   0.941 -0.4622 -0.0879  0.0494
27481W        W43290   0.765  16.629   0.382 -0.0387  0.0690  0.0688
27482W        W43291   6.065  10.803  13.098  0.2995  0.0647 -0.1577
27483W        W43292  10.584  13.458   1.844  0.0741 -0.2590  0.2323
27484W        W43293   4.835  11.559   1.555  0.2744 -0.4260  0.1236
27485W        W43294  14.358   6.763  10.000 -0.0257 -0.0792 -0.0294
27486W        W43295  11.612   9.366   4.189 -0.2365 -0.2309  0.0759
27487W        W43296  13.852  17.954  12.370 -0.0200  0.0250 -0.2564
27488W        W43297   3.309   1.863   3.821  0.0132  0.0535 -0.0558
27489W        W43298  13.380   6.749   0.172 -0.2419  0.1283 -0.0155
27490W        W43299   4.014  12.429   5.651 -0.2614  0.0043 -0.0031
27491W        W43300  14.117  12.644   0.422 -0.0434 -0.4706  0.2469
27492W        W43301   8.259  18.092  13.834 -0.0169 -0.1544 -0.2345
27493W        W43302  10.343  14.055  15.092 -0.0682  0.1048 -0.2225
27494W        W43303  12.852   7.406   4.264  0.2794 -0.0400 -0.3405
27495W        W43304  11.441  15.062   4.005  0.0709 -0.2584  0.1764
27496W        W43305   2.369   7.896   0.475 -0.3231  0.0815 -0.4216
27497W        W43306   4.886   7.144  11.347 -0.0661  0.0328 -0.0051
27498W        W43307   3.609   3.510   2.326  0.0441  0.5195 -0.2978
27499W        W43308  18.634   4.488   3.754 -0.0939 -0.1100  0.0852
27500W        W43309  18.233   2.311   0.355 -0.2101  0.2075  0.2386
27501W        W43310  14.680  15.196   2.370  0.0607 -0.0282  0.0708
27502W        W43311   7.343   6.124  12.639  0.0240  0.1326 -0.1198
27503W        W43312  18.104  12.146  12.112 -0.0428 -0.1563 -0.2458
27504W        W43313   6.501   8.219  13.240  0.1078  0.0609 -0.2393
27505W        W43314  14.086  10.490   3.176  0.0832  0.1100  0.1886
27506W        W43315   4.520   5.267  12.064  0.2784  0.0982 -0.2306
27507W        W43316  17.009   2.262  10.241 -0.1007 -0.1936  0.3441
27508W        W43317  14.751  18.291   5.787 -0.0995  0.1404 -0.2078
27509W        W43318  14.637  11.625  11.379  0.0717 -0.0825  0.0061
27510W        W43319  10.962   4.939   5.400  0.2074 -0.0583 -0.0451
27511W        W43320  12.423   1.441   2.150 -0.0188  0.0535  0.0438
27512W        W43321   5.076   0.652   3.773 -0.1214 -0.1701  0.2503
27513W        W43322   6.284   6.856  13.015 -0.2824  0.0585 -0.1823
27514W        W43323  17.254  16.972  12.013 -0.0731 -0.1024 -0.2267
27515W        W43324   4.464   9.688  14.017  0.2301  0.2299 -0.2985
27516W        W43325  15.976   5.004   3.989 -0.0080 -0.0023 -0.0855
27517W        W43326   6.617   2.600   3.773  0.2250 -0.3941  0.1962
27518W        W43327  15.494   8.085   9.545 -0.2812 -0.3576 -0.0607
27519W        W43328   6.774  10.418  15.524  0.1780  0.1594 -0.0656
27520W        W43329   0.666  15.446   1.608 -0.4206 -0.0981 -0.1279
27521W        W43330   7.413   5.716  11.247 -0.2233  0.0826  0.1278
27522W        W43331   7.145  14.911   3.298  0.3459  0.1705 -0.0609
27523W        W43332   5.858   8.418  13.844  0.1853  0.1526 -0.4996
27524W        W43333   7.799  12.187  11.459 -0.3682  0.0804  0.0219
27525W        W43334  17.321   4.449  12.648 -0.2425 -0.2072  0.1612
27526W        W43335   3.535   9.542  14.569  0.1352 -0.1401 -0.3180
27527W        W43336  10.262  17.710   1.567 -0.0593  0.0143  0.1991
27528W        W43337   0.870   4.170   3.777 -0.0482  0.2412  0.0260
27529W        W43338   0.669  16.466  11.994  0.0904 -0.0647 -0.1912
27530W        W43339   4.276   4.978  13.283  0.1076  0.0595 -0.3537
27531W        W43340   3.151  14.663   4.860 -0.1203 -0.0226 -0.0440
27532W        W43341  15.796   7.186  15.599  0.2858 -0.2216 -0.0569
27533W        W43342  13.759  17.363   4.581  0.0861  0.4439  0.0010
27534W        W43343   6.395  12.823   0.575 -0.0347  0.1809  0.4018
27535W        W43344  10.798   7.279  14.839 -0.3462 -0.0205 -0.0401
27536W        W43345   7.515  13.545  11.365  0.0267  0.0540 -0.3215
27537W        W43346   3.447   8.436  15.376 -0.1161  0.0583 -0.1117
27538W        W43347  14.311   9.183  13.096  0.0303 -0.2143 -0.4175
27539W        W43348   4.123   2.171  14.713 -0.0537 -0.2443 -0.1412
27540W        W43349   9.947   3.154  15.099  0.1369  0.1057  0.1004
27541W        W43350  13.014   1.830   1.429  0.0746  0.3273  0.0000
27542W        W43351  10.061  15.818  13.987  0.2659  0.0483  0.0204
27543W        W43352   0.148  12.912  10.603 -0.2981  0.2389 -0.0500
27544W        W43353   9.098   3.484   1.931 -0.1927 -0.3210 -0.0146
27545W        W43354   8.968   1.752   2.523 -0.0444 -0.1389 -0.2283
27546W        W43355  10.718  17.700   0.417  0.0469  0.1943  0.1886
27547W        W43356  15.517  12.347  12.014  0.2823  0.0392 -0.2635
27548W        W43357  12.084   1.220   2.475 -0.0999 -0.0237  0.2148
27549W        W43358   5.439   6.248  15.476 -0.0007  0.0469  0.3381
27550W        W43359  16.355  14.396   5.490 -0.1387 -0.2435  0.1944
27551W        W43360  10.293  12.813  14.002  0.0525 -0.0607  0.0707
27552W        W43361  12.637  15.172  14.913 -0.0834  0.1846  0.2653
27553W        W43362  18.248   6.573   0.529  0.0711  0.1590 -0.1688
27554W        W43363   5.358  16.487   3.839 -0.2119  0.3623 -0.2744
27555W        W43364  16.915  10.629  10.832 -0.1232 -0.0740 -0.0588
27556W        W43365  12.819   0.209  11.649  0.1773 -0.0462 -0.1074
27557W        W43366   8.044  12.185   5.353  0.2322  0.3290  0.0472
27558W        W43367   7.480   8.672   2.859  0.2996  0.3048  0.3486
27559W        W43368   7.936   3.200   4.129  0.1611  0.0206 -0.0913
27560W        W43369   6.859   8.287   1.168 -0.0303 -0.2621 -0.2657
27561W        W43370  10.469   1.123  11.803  0.1728  0.3411  0.2822
27562W        W43371  12.233   5.705   3.082 -0.1210  0.0020  0.2002
27563W        W43372   0.957   5.363  13.234  0.1615 -0.2822 -0.0546
27564W        W43373  13.324  10.572   1.226 -0.4465 -0.0168 -0.0127
27565W        W43374  17.187   4.178   1.663 -0.2568 -0.1548 -0.2395
27566W        W43375  16.849   2.309  14.945  0.3750 -0.1777  0.0786
27567W        W43376  15.891   5.111   1.468  0.0837  0.0517 -0.5350
27568W        W43377   0.345   4.446   0.780  0.3716  0.0618 -0.2578
27569W        W43378   0.516   4.767   3.262  0.0284 -0.1024  0.0535
27570W        W43379   3.088  10.237   2.587  0.3282  0.0346  0.1328
27571W        W43380  16.145   4.394  14.026  0.1219  0.1825 -0.0553
27572W        W43381   1.436  16.075  14.292  0.1402 -0.2499  0.2169
27573W        W43382   2.606   5.549   1.696 -0.2062  0.1320  0.2543
27574W        W43383  16.027   4.665   2.533 -0.3913 -0.1914  0.3833
27575W        W43384   4.331  12.421   0.773  0.2523  0.0678 -0.2799
27576W        W43385   9.885  10.601  11.263 -0.3528 -0.1834 -0.1176
27577W        W43386  16.614  13.092  11.366 -0.0686  0.1961 -0.2140
27578W        W43387   6.028   6.298   1.332 -0.2690  0.2998 -0.0349
27579W        W43388   1.781  15.278   5.574  0.1405 -0.2486 -0.2747
27580W        W43389   2.257  13.478  11.270  0.0690  0.0499  0.1692
27581W        W43390   5.867   3.686  12.468 -0.2171 -0.0947  0.1166
27582W        W43391  17.326   2.088   3.903 -0.1248  0.4756  0.0513
27583W        W43392  15.741   6.880  14.507 -0.2028  0.0212 -0.1100
27584W        W43393   5.779   0.182   3.065  0.1265  0.3111  0.1799
27585W        W43394  10.609   4.949  14.582  0.3311  0.0710  0.1717
27586W        W43395   9.762   8.489   0.731  0.3927  0.1877  0.1279
27587W        W43396  17.259  12.059   2.094  0.1916 -0.0022 -0.3213
27588W        W43397  11.089  12.841   1.644  0.1114 -0.3684 -0.2298
27589W        W43398  10.072   5.537   0.003 -0.1582 -0.4370  0.2434
27590W        W43399   3.872  16.845  11.351  0.0733  0.1938  0.0871
27591W        W43400  16.954  16.085   1.515 -0.1257  0.4112  0.2870
27592W        W43401  15.067   4.082  10.745 -0.1103  0.1468  0.0433
27593W        W43402  14.607  14.390   1.759  0.0559 -0.1575 -0.0372
27594W        W43403  17.057  15.741  13.515  0.4598 -0.2683 -0.2153
27595W        W43404   1.469   6.615   0.909 -0.1162  0.1395  0.0533
27596W        W43405  18.110   4.714   1.566  0.0323  0.3504 -0.2181
27597W        W43406  18.521  15.969  11.907  0.0574 -0.1350  0.0214
27598W        W43407   9.731   9.786   4.518  0.0876 -0.0296 -0.0446
27599W        W43408  12.025   8.521   0.269 -0.4305 -0.0065 -0.1188
27600W        W43409   0.562  15.800  11.287 -0.3757 -0.3250  0.1448
27601W        W43410   8.718  10.953   2.883 -0.0086 -0.3795 -0.1128
27602W        W43411   8.900   0.471  11.183  0.0323  0.1229  0.2415
27603W        W43412   3.479   0.136   1.725  0.1823  0.1540  0.1189
27604W        W43413  11.593  18.273   3.030 -0.1214  0.0034  0.0127
27605W        W43414  13.399   5.887   0.291  0.1851 -0.1568 -0.0748
27606W        W43415   7.706   0.503   9.990 -0.0125 -0.0028 -0.0625
27607W        W43416   9.890   9.141  13.762  0.2872  0.3682 -0.1663
27608W        W43417   4.675   8.386  11.412  0.2533 -0.0783 -0.1349
27609W        W43418  13.609   7.068  10.636  0.0294 -0.1972  0.1543
27610W        W43419  10.671   6.352  13.355  0.2177 -0.0402 -0.0698
27611W        W43420   6.608  16.912  13.131  0.2621 -0.0589 -0.0550
27612W        W43421   9.280  17.977   4.959 -0.1591  0.1414 -0.0122
27613W        W43422  14.461  12.367   3.385  0.0180 -0.0120  0.0513
27614W        W43423  15.857  12.355   4.118 -0.1546  0.1363 -0.3949
27615W        W43424   3.556  15.871  13.101  0.3023 -0.1359  0.3476
27616W        W43425  16.509  16.857   2.914 -0.0981 -0.2030  0.3507
27617W        W43426  15.989  16.953   4.797  0.1945  0.0840  0.4284
27618W        W43427  11.751  13.031  10.843 -0.1177  0.0198 -0.0844
27619W        W43428   4.352   7.393  13.471 -0.2617 -0.1325  0.1600
27620W        W43429   2.412   4.543   4.039 -0.3551 -0.1457 -0.2168
27621W        W43430   8.471   6.731  10.583 -0.0142  0.2161  0.0777
27622W        W43431   4.538  16.154  13.823 -0.1828  0.0906  0.0296
27623W        W43432  17.675   6.267   3.849  0.1041 -0.1789 -0.1915
27624W        W43433   0.602   2.097   0.049  0.1421 -0.3926 -0.0110
27625W        W43434   1.535   9.395   1.046  0.1698  0.0686  0.2568
27626W        W43435   2.373   9.868   1.828 -0.2715  0.2515  0.4896
27627W        W43436  15.296  14.358  10.691  0.0053  0.0686  0.0479
27628W        W43437   7.633  12.681   4.839 -0.1268  0.0230  0.1978
27629W        W43438  17.323   9.412   4.052  0.1938 -0.0739  0.1557
27630W        W43439   5.200   3.429   0.780 -0.4077  0.0822  0.2803
27631W        W43440   5.412  15.611   0.181  0.1780 -0.1292  0.0315
27632W        W43441  11.310  14.654  13.489  0.0426  0.1790 -0.0958
27633W        W43442   7.135   7.404  15.175 -0.1931  0.1656 -0.3440
27634W        W43443   2.392   9.243   0.654  0.0440  0.3634  0.1008
27635W        W43444   8.184   5.262  10.981 -0.2905  0.1996  0.1483
27636W        W43445  18.468   8.837  11.018  0.0650  0.1713  0.0855
27637W        W43446  16.888  16.628  12.192  0.0495  0.5510 -0.1144
27638W        W43447  18.099   5.550   4.532 -0.1968  0.1195 -0.2292
27639W        W43448  16.377   5.677  12.732 -0.1528  0.1025  0.0876
27640W        W43449   2.563  15.484   0.059  0.1506  0.0835  0.0147
27641W        W43450   2.807   9.917   1.599 -0.0753  0.0636  0.0098
27642W        W43451  14.784  11.600   1.198 -0.3562  0.0752  0.1174
27643W        W43452   6.419  14.783   5.384  0.0722 -0.2088  0.3399
27644W        W43453  14.289   6.432   2.177 -0.0484 -0.4146  0.0972
27645W        W43454   8.234   7.373   0.321  0.0143 -0.1100  0.2450
27646W        W43455  18.589   9.079   0.823  0.1671  0.1350 -0.0399
27647W        W43456   4.255  14.198   3.168 -0.0045 -0.2253 -0.0613
27648W        W43457   9.561  15.631   3.665 -0.2661  0.3136  0.1531
27649W        W43458   2.454   8.938  12.576 -0.1237  0.0576 -0.0007
27650W        W43459  13.770   2.604   3.208 -0.0889 -0.2109  0.0299
27651W        W43460   8.348  15.056   1.744  0.2895  0.1584 -0.3662
27652W        W43461  11.123  16.582   3.749 -0.0713 -0.2813 -0.0368
27653W        W43462   5.196  12.581  11.901  0.0330  0.1821 -0.1420
27654W        W43463   1.021   3.235  10.649  0.2682  0.2273 -0.4635
27655W        W43464  13.068   7.309  15.109  0.0276 -0.2482  0.0147
27656W        W43465  13.580  14.627  11.136 -0.2728  0.1392 -0.0775
27657W        W43466  13.026   2.874   5.096  0.0468  0.1687  0.1976
27658W        W43467   8.603   3.017  13.743 -0.3087 -0.0070 -0.2505
27659W        W43468  17.064   5.817  10.986  0.1063  0.1069 -0.0882
27660W        W43469   1.813  16.918  11.985 -0.1143 -0.0441  0.0529
27661W        W43470  14.703   3.349   5.252  0.2476  0.0305  0.0007
27662W        W43471  17.798   5.644  13.375  0.1390 -0.1212 -0.0990
27663W        W43472   7.388  13.250  12.959 -0.0315 -0.0632  0.2211
27664W        W43473   3.377  16.596  12.707 -0.2823  0.0460  0.1652
27665W        W43474   3.957   2.344   2.551  0.0629 -0.2038 -0.0802
27666W        W43475  14.035   3.703  14.134  0.0504 -0.1156  0.3235
27667W        W43476   5.058   3.060  12.079 -0.4850  0.0721  0.0803
27668W        W43477   6.921   0.215   5.573  0.2261 -0.0108 -0.0695
27669W        W43478   6.644  18.519   0.188 -0.1761 -0.1025 -0.0943
27670W        W43479  12.315  15.768   5.586 -0.0493  0.3117  0.0030
27671W        W43480   9.529   3.552  11.724  0.4399  0.0405  0.0677
27672W        W43481  15.615   8.401   3.012 -0.0384 -0.2002 -0.1086
27673W        W43482  10.243  15.643   5.628  0.4008  0.1132 -0.0138
27674W        W43483  14.182  18.647  13.974 -0.0025 -0.1844 -0.0931
27675W        W43484   4.751   2.445   4.014 -0.3857 -0.1319 -0.0323
27676W        W43485  12.508   8.355   1.952 -0.3750 -0.2173 -0.1973
27677W        W43486   0.935  10.734  14.811 -0.1699 -0.0675  0.1455
27678W        W43487   4.640   9.927  11.868 -0.3006  0.3784  0.1274
27679W        W43488   3.776   9.402  15.259  0.1682  0.1302  0.0964
27680W        W43489   0.738   8.617   4.314 -0.1444  0.2093 -0.0089
27681W        W43490  10.006   7.693  14.645  0.0061  0.2994 -0.2874
27682W        W43491  16.878  18.618   3.315 -0.0153 -0.2643  0.0489
27683W        W43492   3.076   3.209  12.430 -0.4680 -0.3155  0.2532
27684W        W43493  16.275  13.542   3.915  0.1131 -0.1434  0.2969
27685W        W43494   5.673  10.628  12.638 -0.0780  0.0570  0.0926
27686W        W43495  18.502   2.548   0.917  0.1633  0.0187  0.0814
27687W        W43496  15.270   0.812   0.386  0.2313  0.0995  0.0944
27688W        W43497   0.724  16.681  14.710 -0.0673 -0.3487  0.2943
27689W        W43498   1.297  10.615   3.826 -0.2652  0.2893 -0.1250
27690W        W43499  10.198   1.774  14.037  0.4665 -0.1830  0.2612
27691W        W43500   6.836   0.870  13.511  0.0064  0.2659  0.1791
27692W        W43501  12.221   9.338  12.716  0.0830 -0.0553  0.2686
27693W        W43502  18.544   2.072   0.623 -0.0059 -0.0398  0.1152
27694W        W43503  16.393  10.057   4.719 -0.1775  0.3598 -0.0562
27695W        W43504   9.922   0.685  15.347 -0.1267 -0.0616 -0.0766
27696W        W43505  13.768  10.973   4.496 -0.1754 -0.0119  0.3512
27697W        W43506   9.168   3.306  11.853 -0.1322  0.1606  0.2238
27698W        W43507  13.139  13.941   5.400  0.1492  0.4935  0.0487
27699W        W43508  13.228  11.415  12.546  0.0959  0.0328 -0.0898
27700W        W43509   0.877  10.727  13.403 -0.2133 -0.0042  0.2718
27701W        W43510   1.660  17.506  14.695  0.5182 -0.0231  0.0246
27702W        W43511   8.140   3.443   2.080  0.1090  0.2598  0.0178
27703W        W43512  15.117   4.214   0.981 -0.1426 -0.0782  0.1612
27704W        W43513  11.680  15.202  15.391  0.0439 -0.4752  0.1462
27705W        W43514  11.757   4.395   2.810 -0.0318 -0.0510 -0.1069
27706W        W43515   6.275   4.789   1.059  0.0791  0.3235 -0.4471
27707W        W43516   8.622  15.075   5.859 -0.1019 -0.1322  0.1583
27708W        W43517   1.308  15.928   0.393  0.0477 -0.2157  0.0016
27709W        W43518   0.160   5.977  13.853 -0.0754  0.2388 -0.1622
27710W        W43519  17.823  14.767  13.547  0.3603 -0.1259 -0.1661
27711W        W43520   6.194  16.833   5.712  0.0232  0.1112 -0.2461
27712W        W43521  14.294   8.366   0.926  0.0539 -0.0813 -0.3020
27713W        W43522  16.822  16.696   3.848  0.0872 -0.1517  0.1337
27714W        W43523  10.373   3.654  15.109  0.3254  0.2414 -0.0773
27715W        W43524  17.650   0.766  12.844 -0.0694  0.0204  0.1112
27716W        W43525  15.694  16.372   5.662 -0.3208 -0.3254  0.1907
27717W        W43526   6.128   7.263  13.343 -0.0398  0.0361  0.0874
27718W        W43527   5.218  10.782   2.562  0.2567 -0.2023 -0.0344
27719W        W43528  17.622  16.702   1.657 -0.1330  0.2361 -0.0901
27720W        W43529   5.530  17.248  15.203 -0.0675 -0.0165 -0.1436
27721W        W43530  15.782   0.268  11.454 -0.1813 -0.0932  0.0609
27722W        W43531  16.741   6.164   1.391  0.3982  0.2450  0.1068
27723W        W43532  10.369  17.836  11.358 -0.1393  0.1180 -0.2155
27724W        W43533   8.580   6.889   0.577 -0.2854  0.3223 -0.0084
27725W        W43534   0.675  18.355  11.698 -0.2110 -0.0176  0.0611
27726W        W43535   5.141  18.185  12.847  0.1985  0.3254  0.1240
27727W        W43536   2.020   5.473   3.885 -0.2202 -0.0851  0.0631
27728W        W43537  13.451  11.301   2.109 -0.1480  0.0761 -0.1414
27729W        W43538  14.948   1.720  12.108 -0.2073 -0.1477 -0.0252
27730W        W43539   2.426  17.800  14.851 -0.5104  0.1450  0.0544
27731W        W43540  15.432  10.253  15.074  0.0681 -0.1286  0.1479
27732W        W43541  16.385   9.417  13.932  0.0813  0.0084  0.1598
27733W        W43542  10.931   7.829  15.165  0.2912 -0.0412 -0.0930
27734W        W43543  14.477   4.304  11.473  0.0317 -0.3469 -0.1651
27735W        W43544   5.433   8.668   2.142  0.0723  0.0828 -0.1292
27736W        W43545   9.778   9.526  11.734  0.1666 -0.1501  0.4311
27737W        W43546  14.300  13.042  11.064  0.0867 -0.2704  0.0748
27738W        W43547   6.345   5.037   1.924 -0.5869  0.2195  0.3105
27739W        W43548   0.603  13.674   2.547 -0.0006  0.2328 -0.0411
27740W        W43549   6.893   7.815  15.078 -0.0808  0.0862  0.0389
27741W        W43550  12.746   9.678   5.390  0.4493  0.0779  0.2043
27742W        W43551  16.529  14.604  10.505  0.4326 -0.1223  0.0929
27743W        W43552   3.829  17.629   1.672 -0.0666 -0.1126 -0.2672
27744W        W43553   4.735  13.672  12.206 -0.1788 -0.1522 -0.1538
27745W        W43554   2.450   6.989   4.175  0.1100  0.1517 -0.0162
27746W        W43555   4.294  17.794   1.580  0.0252  0.1556 -0.1653
27747W        W43556   9.096   4.665   3.400 -0.0254 -0.0019  0.0851
27748W        W43557   5.531   5.709  14.699 -0.0224  0.2069  0.0817
27749W        W43558  16.629  13.128  15.254 -0.2799  0.0314  0.3262
27750W        W43559   4.838  10.978  13.090  0.3463  0.1463 -0.1783
27751W        W43560  15.979   3.804  12.347  0.3378  0.2374  0.1162
27752W        W43561  17.334   3.251  13.079 -0.1330  0.1511 -0.0757
27753W        W43562  18.062   5.770  12.049  0.2142  0.0218 -0.1548
27754W        W43563   5.252   4.777   1.079  0.0486 -0.1627 -0.2882
27755W        W43564   7.426  17.317  14.513 -0.3494  0.2107 -0.0436
27756W        W43565  15.478   7.583   0.620 -0.1084  0.3801 -0.0246
27757W        W43566   2.866  10.622   5.549 -0.0093  0.1012 -0.1771
27758W        W43567   1.245  13.048   5.306  0.0497  0.1339  0.0124
27759W        W43568  14.861  12.657   1.278 -0.1234 -0.1935  0.2122
27760W        W43569   4.608  13.479  12.689  0.0621 -0.0942  0.2066
27761W        W43570   5.002  13.874  12.629  0.0478 -0.0934  0.0862
27762W        W43571  11.001   9.251  15.223  0.2073  0.0107  0.1134
27763W        W43572   9.973  17.218   4.999  0.1482 -0.1583 -0.0881
27764W        W43573   1.078   1.757   2.798  0.2637 -0.0400 -0.0368
27765W        W43574  13.579   7.800   4.526  0.0357 -0.1677  0.0022
27766W        W43575   0.757   9.823   3.196  0.1590  0.1298 -0.2128
27767W        W43576  14.232   9.885   2.402  0.0275 -0.0814  0.1910
27768W        W43577  10.712   4.507   0.664  0.1684  0.1767 -0.1016
27769W        W43578  17.002  13.537   1.478  0.1397 -0.1558  0.0799
27770W        W43579  14.801   2.686   3.892  0.1198  0.1545 -0.1439
27771W        W43580   5.306  17.000  10.971 -0.0002  0.0330  0.1595
27772W        W43581   7.168  10.777   3.556  0.0832 -0.2446 -0.1848
27773W        W43582   6.178  14.420  12.123 -0.0093  0.2599 -0.1536
27774W        W43583   1.418   2.154  12.553  0.0201  0.1880 -0.1580
27775W        W43584  14.475   0.084   9.953 -0.0520 -0.2303  0.0078
27776W        W43585   4.052  11.786   9.866 -0.1551  0.3053  0.2366
27777W        W43586   7.170  17.594  11.444 -0.2159  0.2940  0.1888
27778W        W43587  17.632   5.982  13.051  0.1523 -0.1500  0.0627
27779W        W43588   4.337   1.718   2.288 -0.3489  0.2049 -0.0121
27780W        W43589  17.579  16.986  11.239  0.2959  0.3140  0.0825
27781W        W43590   8.101  12.139   4.712 -0.0401 -0.2200  0.0517
27782W        W43591   2.558  14.860   0.285  0.1613  0.2977  0.0794
27783W        W43592   0.239  10.323   0.915  0.0102  0.0290 -0.0338
27784W        W43593   0.648   4.009   0.903  0.0663  0.0635  0.1490
27785W        W43594   9.558  18.285  14.471 -0.1661  0.0402 -0.1824
27786W        W43595   0.726   0.890  12.863 -0.1266 -0.1695 -0.0641
27787W        W43596  11.039  10.048   5.198 -0.1463  0.2948 -0.1138
27788W        W43597  10.370  10.329   2.358 -0.0028  0.0297  0.0716
27789W        W43598   6.906   3.369  14.938 -0.0236 -0.0332  0.0658
27790W        W43599  14.424   5.928   5.350  0.0799  0.0810  0.0162
27791W        W43600   5.778   0.356  10.464  0.0495 -0.2526 -0.1040
27792W        W43601  15.758   2.819   2.281 -0.0769  0.1416  0.0965
27793W        W43602   5.819  11.713   5.306  0.2841 -0.1183  0.1485
27794W        W43603  16.229   6.877   2.813  0.2971 -0.1752  0.1938
27795W        W43604   8.491   2.087   2.474  0.2899 -0.0278  0.2053
27796W        W43605  13.906   5.544  14.193  0.1789 -0.1385  0.1325
27797W        W43606   7.189   8.285   4.170  0.2401 -0.6349  0.3083
27798W        W43607   6.317  15.846  14.268 -0.0397 -0.0692 -0.2042
27799W        W43608  11.131   6.685   3.329 -0.0307 -0.2228 -0.1473
27800W        W43609   8.362  18.456  14.840  0.0958  0.0441 -0.0738
27801W        W43610   1.966  18.483   0.602 -0.1312 -0.0328  0.0540
27802W        W43611   2.851  17.929   4.932 -0.1346  0.0409  0.2223
27803W        W43612   4.425  16.051  13.254  0.3876  0.1069  0.0105
27804W        W43613   5.761  11.153  12.162 -0.2529  0.0664 -0.3574
27805W        W43614  18.090  12.320   1.343 -0.1438  0.0828 -0.0515
27806W        W43615   8.003  10.291  12.183  0.0837  0.2917  0.0002
27807W        W43616   6.535  13.789  13.844  0.1983  0.1349  0.1661
27808W        W43617  14.659  11.148  11.029 -0.0756  0.1824  0.0192
27809W        W43618  17.560   0.348   0.144  0.0591  0.0866 -0.0695
27810W        W43619   1.515  12.790   4.463 -0.0307  0.0659 -0.0076
27811W        W43620   7.036   1.192  10.060 -0.0176 -0.2817 -0.0505
27812W        W43621   1.218  10.996   4.638 -0.0684 -0.2319  0.0372
27813W        W43622   3.437  11.539   1.207 -0.2773 -0.2033 -0.1241
27814W        W43623   2.868  12.267  14.762 -0.1175 -0.2606  0.0232
27815W        W43624  18.349  16.367  11.563 -0.2003  0.0938  0.0819
27816W        W43625  12.130  17.807  12.710  0.0767 -0.0954  0.3595
27817W        W43626  17.370   4.068  13.882 -0.1290  0.2293 -0.1824
27818W        W43627  16.226   4.153   0.716  0.3672 -0.2406  0.0267
27819W        W43628   6.087   8.504  11.925  0.2633  0.1111  0.0816
27820W        W43629  14.086  18.607  15.434  0.4040  0.2847  0.3001
27821W        W43630  13.500  17.010   0.402  0.2737 -0.4144  0.3331
27822W        W43631  18.131   1.269   1.239 -0.2265 -0.2928  0.0201
27823W        W43632  15.985  10.078  14.864 -0.0960  0.1548  0.1271
27824W        W43633  10.534  18.373   2.358 -0.1219  0.1428 -0.0293
27825W        W43634  14.560   2.426  13.405 -0.0680 -0.0418  0.1933
27826W        W43635   9.853  13.876   4.027  0.1704  0.1245  0.2115
27827W        W43636   7.324  17.860  12.209  0.0702  0.0036 -0.0358
27828W        W43637   9.924   9.664  13.846 -0.2697 -0.1646 -0.0455
27829W        W43638  12.126  11.221   0.354 -0.1064  0.0009  0.0362
27830W        W43639   1.346   1.255   4.784  0.1924 -0.0686 -0.1686
27831W        W43640  13.831  17.891   2.136  0.2926  0.3721  0.2905
27832W        W43641   3.873  15.556   2.308  0.1379 -0.1166 -0.0590
27833W        W43642   0.163   6.069   2.813  0.0209 -0.1368  0.0378
27834W        W43643  16.005   2.580   5.275  0.1204  0.0174 -0.3737
27835W        W43644   4.501   9.721   3.370 -0.3032  0.1596 -0.2416
27836W        W43645   0.276  10.392  12.319 -0.3632  0.0852 -0.0446
27837W        W43646   8.597   2.592  10.415  0.0218  0.5469 -0.2638
27838W        W43647   0.303  13.466   2.188  0.2014 -0.0268 -0.1350
27839W        W43648   3.984  12.913   3.581  0.0331 -0.0032  0.0227
27840W        W43649   2.031   4.212  10.282 -0.2358 -0.0259  0.0886
27841W        W43650   1.061  16.298  12.464  0.1122 -0.3235  0.3019
27842W        W43651   6.672   2.642   4.418  0.0369 -0.4657 -0.0792
27843W        W43652  11.987  15.813  14.005 -0.1155  0.1654 -0.1259
27844W        W43653   9.294  13.623  13.411  0.0487  0.1433 -0.0708
27845W        W43654   2.936   1.980   1.503  0.3165 -0.2860 -0.0023
27846W        W43655  14.803   7.632  11.405  0.1372 -0.0570 -0.1531
27847W        W43656  16.996  11.468   1.307  0.1524 -0.1656 -0.0678
27848W        W43657   3.481  10.183   4.393  0.1142  0.1817  0.0276
27849W        W43658  15.924   4.175   4.778 -0.2148  0.0588 -0.1104
27850W        W43659   0.267  17.712   4.021  0.1824  0.0859 -0.0011
27851W        W43660  16.093   4.243  14.529  0.0814  0.0522  0.0292
27852W        W43661  10.592   6.111  12.243  0.2876  0.1414  0.4227
27853W        W43662   9.124   7.001   0.650 -0.4772  0.0637 -0.1678
27854W        W43663   9.951  13.279  15.254  0.0552 -0.0090 -0.2870
27855W        W43664  18.335   5.861  11.571  0.3192 -0.1092 -0.1171
27856W        W43665   3.948   2.838   0.955  0.0797 -0.1877 -0.1397
27857W        W43666  16.021   5.205  12.078  0.1579  0.0575 -0.0289
27858W        W43667  14.280  15.437  11.855 -0.0749  0.3414  0.0208
27859W        W43668  10.576  12.350  15.374  0.1461  0.2478  0.1021
27860W        W43669  18.169   3.455   0.039 -0.0056  0.0293 -0.4095
27861W        W43670  18.247  18.188  10.048 -0.2478 -0.1444  0.0289
27862W        W43671  12.932   8.606   4.273 -0.1829  0.0414 -0.1584
27863W        W43672   3.076   3.257   4.226 -0.0142 -0.2240 -0.0737
27864W        W43673   4.944  18.118   4.286  0.1989 -0.1636 -0.0421
27865W        W43674   3.483  13.324  15.133 -0.3033 -0.2537 -0.2151
27866W        W43675   7.157  12.463  13.185  0.0148 -0.1691 -0.1339
27867W        W43676   8.583  18.419  13.516  0.0422 -0.1046 -0.0261
27868W        W43677   6.085  12.158   3.252  0.1946  0.0628  0.1262
27869W        W43678  16.911   2.561   0.991  0.2591  0.1049 -0.0386
27870W        W43679   2.207   3.771   3.212 -0.0304  0.0186  0.0603
27871W        W43680  17.660   4.520   4.601  0.4447 -0.0560  0.0450
27872W        W43681   9.407  10.375   5.219 -0.0236 -0.4221  0.0328
27873W        W43682   6.673   7.032   0.476 -0.1102  0.0790  0.1053
27874W        W43683  13.471   7.204  13.394  0.0200  0.0166  0.1734
27875W        W43684  13.429   6.373   2.465  0.1043  0.0080  0.0800
27876W        W43685  16.195   2.205   4.119  0.2585  0.4588  0.0651
27877W        W43686   1.751  11.054  13.097  0.1714  0.3845 -0.1377
27878W        W43687  18.029   6.165   3.399 -0.1805  0.1957 -0.0195
27879W        W43688   7.926  18.451   4.058 -0.0525  0.2713  0.3072
27880W        W43689   6.394   2.391   0.688  0.1158  0.4867 -0.5066
27881W        W43690   1.553  10.715  14.492 -0.1248  0.1748  0.1070
27882W        W43691   2.222  16.036   4.037  0.0589  0.0751 -0.0296
27883W        W43692   9.575   3.414   3.151  0.1670  0.1793 -0.1984
27884W        W43693  15.117  11.560  14.502  0.0853 -0.0029 -0.0394
27885W        W43694  12.710  10.530  10.149 -0.1491  0.0746 -0.3567
27886W        W43695   2.043  10.572  11.970  0.4533  0.0532  0.0565
27887W        W43696   9.601   0.017  13.007  0.0934  0.0443 -0.1712
27888W        W43697   5.376  12.948   3.894 -0.3409  0.4095  0.0743
27889W        W43698   9.053  18.298  12.102  0.0340  0.3605  0.0685
27890W        W43699   3.953  14.930   5.999 -0.0322 -0.0682 -0.0851
27891W        W43700  15.961   4.623   1.385  0.3734 -0.3402 -0.0011
27892W        W43701   7.093  18.336  15.473  0.1449  0.1184 -0.0068
27893W        W43702   4.076   6.464   2.732  0.0002 -0.3650 -0.0572
27894W        W43703  15.957  14.776  14.920  0.0340  0.0814  0.1767
27895W        W43704   3.729  15.418   3.214 -0.1395  0.1401  0.1283
27896W        W43705   9.609   3.937   0.093  0.3835  0.3468  0.3747
27897W        W43706  16.327   7.249   4.641 -0.1442 -0.1378  0.0179
27898W        W43707  13.987  14.978  14.748  0.0631  0.3341  0.0547
27899W        W43708  12.765   0.638  12.657  0.0331 -0.1388 -0.0830
27900W        W43709   4.994  15.519   3.731  0.1247 -0.1668 -0.3532
27901W        W43710  18.208   9.191   3.435 -0.4205  0.5222  0.1329
27902W        W43711  17.424  18.292   4.185 -0.0960  0.0870  0.1850
27903W        W43712   1.068   4.194   2.768  0.2543 -0.3499 -0.2026
27904W        W43713   7.155   8.306  10.751 -0.1177  0.1358  0.0054
27905W        W43714  12.434  10.256   2.003 -0.2200  0.0057  0.3042
27906W        W43715   1.313   8.343  13.079 -0.0581  0.0920  0.3866
27907W        W43716  15.382  17.973   5.195  0.2701  0.0963 -0.0153
27908W        W43717   7.189   7.387  12.503 -0.2419 -0.0370  0.2134
27909W        W43718   8.554   1.841   4.300  0.0319  0.4121 -0.0443
27910W        W43719   6.767  12.023  13.700  0.0211  0.2769  0.2196
27911W        W43720  10.302   5.019   3.115  0.1862 -0.1325 -0.0930
27912W        W43721   7.330  12.037   0.708 -0.0411 -0.1734  0.1654
27913W        W43722  16.030  17.477   0.966  0.2340  0.0810  0.0868
27914W        W43723  14.074   1.934   4.892 -0.0896 -0.0148  0.0821
27915W        W43724  15.591   3.346  13.094  0.2116 -0.1115 -0.0085
27916W        W43725   0.447  15.410   4.546 -0.1953  0.2379 -0.0476
27917W        W43726   8.203   1.565  15.466 -0.0216  0.0110  0.3827
27918W        W43727  10.565  13.250  13.180  0.1568  0.1448  0.2721
27919W        W43728  12.209   1.846  11.309 -0.0492  0.0143 -0.1354
27920W        W43729   3.479  17.106  11.352  0.1647  0.1615  0.1779
27921W        W43730   2.783  14.458  14.683 -0.1361  0.0840 -0.1038
27922W        W43731  12.049   9.940   2.433 -0.1073  0.1007 -0.0773
27923W        W43732   5.357   8.128   1.444  0.1122  0.0948  0.0876
27924W        W43733   9.381  12.182   2.773  0.1590 -0.0227 -0.2812
27925W        W43734  10.041   0.034  12.776  0.0216 -0.0109 -0.1659
27926W        W43735  11.409   4.395   4.695  0.2386  0.2352 -0.1537
27927W        W43736   3.357   7.315  13.689 -0.0812  0.0757  0.2322
27928W        W43737  15.183   5.345   3.007 -0.0897 -0.3196  0.0007
27929W        W43738  16.308  12.835   0.340  0.2736 -0.2846  0.0786
27930W        W43739  11.039  17.701  12.511  0.0320 -0.0073  0.2414
27931W        W43740   2.479   1.586  13.789 -0.4324  0.0726  0.0807
27932W        W43741   7.417   1.831   0.526 -0.0513 -0.1423  0.1219
27933W        W43742   5.430   1.204   0.276  0.0961  0.4563 -0.1324
27934W        W43743   6.601   8.140   2.074  0.0310 -0.4334  0.0217
27935W        W43744  10.482   8.835  12.096 -0.1528  0.0002  0.0407
27936W        W43745  18.274   1.638   2.884  0.0109  0.0813  0.0341
27937W        W43746   8.190   4.911  10.252  0.0281  0.1668  0.1653
27938W        W43747   9.851   8.555  13.000  0.4028  0.0095 -0.0822
27939W        W43748  13.764   5.161  11.375  0.0122  0.2118  0.0206
27940W        W43749   1.027   6.775  13.556  0.0087  0.0418  0.0288
27941W        W43750   4.650  11.654   5.577  0.2342  0.1473  0.0171
27942W        W43751   3.065  10.333   1.953 -0.0914  0.0711  0.3744
27943W        W43752   5.844   0.484  13.518 -0.2929  0.0143 -0.3439
27944W        W43753  10.212  16.224   1.214  0.0422  0.0858  0.0810
27945W        W43754  15.168  10.622   4.500  0.1205  0.0753  0.2926
27946W        W43755   8.093  12.091   3.127  0.2061 -0.0101  0.2285
27947W        W43756   5.047   8.775   4.328 -0.2274  0.0345  0.1396
27948W        W43757  12.627   9.346  14.656  0.0188  0.2809  0.1114
27949W        W43758   8.272   0.182  11.898 -0.1205 -0.3456 -0.3781
27950W        W43759  12.816   4.888   5.560 -0.0502 -0.1234  0.2387
27951W        W43760   8.306   4.223   2.611  0.0729 -0.5658  0.0273
27952W        W43761  16.025   3.449   1.703 -0.1030  0.0495  0.0060
27953W        W43762  13.325  15.153   1.306 -0.2289  0.2281 -0.2454
27954W        W43763  14.884  18.645  10.750 -0.4764  0.0150  0.1160
27955W        W43764  12.778  11.301   6.431  0.0838 -0.1081  0.0176
27956W        W43765  16.410  10.278  13.231  0.1481  0.1012  0.1908
27957W        W43766   4.908  14.673  10.807 -0.1059  0.2954  0.1276
27958W        W43767   0.834  13.826  12.620  0.1884  0.2613  0.0229
27959W        W43768   9.195   1.148   4.682  0.3142  0.2115 -0.1187
27960W        W43769   2.154  14.488  10.995 -0.1791 -0.0580  0.0054
27961W        W43770   3.385   9.819  14.168  0.2545 -0.1849 -0.0632
27962W        W43771  13.520   0.730  15.411 -0.0840  0.2847 -0.1239
27963W        W43772  11.358   2.701   0.419 -0.0092 -0.2292 -0.1091
27964W        W43773  18.217   1.131  15.439 -0.2404 -0.0650 -0.3371
27965W        W43774   5.019  17.684   3.794  0.1271  0.0841  0.1510
27966W        W43775  13.026   3.785  13.696  0.2530  0.2454  0.0526
27967W        W43776  14.200   8.308   5.000 -0.0162 -0.0138  0.0228
27968W        W43777   5.030   3.874  13.404 -0.0272  0.0210  0.0752
27969W        W43778  13.150  13.964  12.517  0.1141  0.0129 -0.1622
27970W        W43779  12.830  15.478  11.449  0.1630  0.0259  0.3654
27971W        W43780   9.297  10.844  12.585  0.0312  0.0198  0.2449
27972W        W43781  14.263  11.061   4.480  0.2142  0.1148 -0.0019
27973W        W43782   8.168   4.687   2.381  0.2244  0.0215  0.1262
27974W        W43783   0.319   4.642   0.292  0.2556  0.0129 -0.2823
27975W        W43784   7.839   5.000   1.056  0.0629 -0.1385  0.1212
27976W        W43785   6.430   6.139  13.583  0.0411  0.1179 -0.2225
27977W        W43786  12.563   3.018   2.072 -0.2225  0.4262 -0.2983
27978W        W43787  17.191  14.371  14.613  0.1564  0.0619 -0.1643
27979W        W43788  14.965   0.180   3.959 -0.0159 -0.1589 -0.0438
27980W        W43789   9.413   7.479  14.587 -0.0724 -0.1892 -0.0977
27981W        W43790  11.842  16.896  14.758  0.2226  0.0071  0.0435
27982W        W43791  11.545   9.917   2.139  0.1304 -0.0210 -0.2677
27983W        W43792   8.605  16.021  10.849  0.3355  0.2991 -0.2257
27984W        W43793   8.041  17.977  12.930 -0.2485  0.2447 -0.0317
27985W        W43794  17.622  10.138   2.749 -0.0434  0.1793 -0.2652
27986W        W43795   3.039   3.715   1.567 -0.0675  0.0059 -0.1291
27987W        W43796  16.513  12.808   4.838  0.0122  0.2539  0.2864
27988W        W43797   1.622  13.833  12.048 -0.1403  0.1847  0.1890
27989W        W43798  11.731   1.052  10.985  0.0639  0.1371 -0.0820
27990W        W43799  12.203   6.966   0.699  0.0554 -0.0787 -0.0504
27991W        W43800   9.090  12.065  15.265  0.2767 -0.0086 -0.0308
27992W        W43801   5.384  15.180  11.545  0.1237  0.0998  0.0472
27993W        W43802  10.673  10.252   0.514 -0.1218  0.0370 -0.2538
27994W        W43803  13.408  12.555   3.137 -0.0347  0.1115  0.2961
27995W        W43804   5.505  18.112   3.096 -0.3964  0.1283 -0.0109
27996W        W43805   6.708  15.295  13.646  0.0744 -0.2366 -0.0436
27997W        W43806  12.079   3.124   3.332  0.5137 -0.0852 -0.2163
27998W        W43807  15.118   2.281  11.257  0.1413 -0.5012 -0.1479
27999W        W43808   0.551   5.977  13.498 -0.0824  0.0554  0.1675
28000W        W43809   7.401   2.617   2.787  0.4064 -0.1548  0.1353
28001W        W43810   5.213  15.406   4.180 -0.1184 -0.3039 -0.0974
28002W        W43811   5.589  11.547  13.868 -0.0004 -0.1435 -0.3291
28003W        W43812  12.564   4.985  13.464 -0.1768  0.3024  0.1094
28004W        W43813   6.840  10.140   4.568  0.2754  0.0194  0.0481
28005W        W43814  15.990   2.796   3.765 -0.1089  0.0031 -0.1787
28006W        W43815   4.719   5.017  13.522 -0.0745  0.0869  0.0882
28007W        W43816   6.798  15.957   0.705 -0.0227  0.1804 -0.0484
28008W        W43817   7.777  13.191   3.015 -0.0519  0.3117 -0.0474
28009W        W43818  10.531   2.093   1.201 -0.0397 -0.1535 -0.0262
28010W        W43819   2.635  17.882   2.446 -0.1050 -0.2250  0.1166
28011W        W43820  11.106   4.009  13.624 -0.0850 -0.0113  0.2176
28012W        W43821  14.590   9.136  13.720  0.0842  0.1878  0.0529
28013W        W43822  15.560  12.782  10.711  0.1987 -0.1111  0.2110
28014W        W43823   5.919   1.094   5.243 -0.0508  0.0508  0.0292
28015W        W43824   9.587  15.538   4.227 -0.1378  0.0991 -0.3101
28016W        W43825   6.437  15.423  14.635  0.1005  0.1762  0.0544
28017W        W43826   0.878   3.356  11.409 -0.0599  0.0859  0.0738
28018W        W43827   7.983  18.245  13.394  0.0014  0.2993  0.1804
28019W        W43828   2.279   7.151   3.683 -0.3199  0.0688 -0.0378
28020W        W43829  16.943  11.234  14.203 -0.0137  0.0938  0.0441
28021W        W43830   9.424  17.867   1.385 -0.4558 -0.0954  0.0924
28022W        W43831   4.388   2.402   1.634  0.2603  0.3137 -0.2003
28023W        W43832  17.425   4.782   0.891 -0.2109  0.1278 -0.1041
28024W        W43833  11.122  13.751   2.412 -0.1568  0.0128  0.4483
28025W        W43834  13.393   3.471  12.877 -0.1563 -0.1846  0.1326
28026W        W43835  11.137  11.666  12.970 -0.2318 -0.0211 -0.1062
28027W        W43836   8.648  15.996   3.346  0.0741  0.0608 -0.0405
28028W        W43837  12.996   0.285  15.020 -0.0195 -0.1747 -0.0341
28029W        W43838   6.700  11.651   2.039 -0.2422 -0.0518  0.0060
28030W        W43839   4.918   6.878   0.333  0.2244 -0.1586 -0.0205
28031W        W43840   8.429  14.331   0.545 -0.1264 -0.4513 -0.0903
28032W        W43841  15.648   7.568   3.772  0.1084  0.0478 -0.3254
28033W        W43842  10.281  17.627  14.081  0.1450 -0.2656  0.0509
28034W        W43843  16.534   1.247   3.224  0.1420 -0.0639 -0.0320
28035W        W43844   8.783  10.545  14.871  0.2971  0.1759  0.0350
28036W        W43845  11.568  13.322  15.379 -0.0226 -0.0212 -0.0013
28037W        W43846  12.768  13.095   3.276  0.1824  0.3665  0.0682
28038W        W43847   3.346  13.557   0.797  0.2205  0.1113  0.0682
28039W        W43848  12.575  10.706  13.090 -0.0639  0.0967  0.0633
28040W        W43849   4.848   3.923   2.143  0.3291 -0.2095  0.0939
28041W        W43850  11.833   0.759   1.664  0.0327 -0.0961  0.0125
28042W        W43851   3.165  14.097   2.514 -0.0899 -0.0940  0.1592
28043W        W43852  11.097   6.564  12.818 -0.2217  0.1191 -0.0794
28044W        W43853  17.131   7.034   2.846 -0.1363 -0.0312  0.0658
28045W        W43854   3.430  14.213   4.671 -0.0168 -0.2512 -0.1252
28046W        W43855   1.209  11.060  11.896 -0.0607  0.0567  0.2171
28047W        W43856   7.375   1.476   1.483  0.1840 -0.4518 -0.0057
28048W        W43857  13.617   8.980   1.475 -0.1380  0.2383  0.0813
28049W        W43858   0.408   5.257  11.797 -0.3125 -0.2420  0.0892
28050W        W43859   4.489  12.251   1.250 -0.0919 -0.0761 -0.0384
28051W        W43860   4.993  15.870  13.923 -0.0170  0.0199 -0.5487
28052W        W43861   2.376  13.203  15.072  0.0849 -0.1416  0.1829
28053W        W43862  11.416   0.130   3.063  0.0124 -0.3331  0.2252
28054W        W43863   7.916  14.160   1.290 -0.2785  0.0839  0.0311
28055W        W43864   6.228  18.032   1.328 -0.0325  0.2922 -0.0935
28056W        W43865  11.359  10.045  13.556  0.0313 -0.1138 -0.0304
28057W        W43866   8.730   7.950  11.262  0.0501 -0.1042  0.0143
28058W        W43867   3.883  16.252   2.875 -0.1032  0.3767  0.0415
28059W        W43868   6.292   2.124  14.750 -0.0544 -0.3705 -0.1534
28060W        W43869  10.913  17.842  14.274 -0.1786 -0.2647 -0.0431
28061W        W43870  10.283   3.537   1.581  0.1117  0.1980  0.2032
28062W        W43871  11.406   9.790   3.102 -0.1302 -0.1598  0.3134
28063W        W43872   6.703  11.683   1.087 -0.3767 -0.2381 -0.1138
28064W        W43873   0.650  14.173   2.264 -0.1541 -0.1400  0.0008
28065W        W43874   9.609  14.717  13.263  0.2595  0.1612  0.2486
28066W        W43875  11.317  17.716   4.392  0.1038  0.0088  0.0847
28067W        W43876  10.758   1.793  14.260 -0.1695 -0.0566 -0.0758
28068W        W43877  11.904   4.239  13.729  0.0760  0.1177  0.1734
28069W        W43878  13.775   5.846   2.380  0.0628  0.3356  0.0111
28070W        W43879  12.062  15.907  12.795  0.1489 -0.1186  0.0437
28071W        W43880   3.518   9.361   2.101 -0.1305  0.2681  0.1505
28072W        W43881   9.417  14.144  10.513  0.0075 -0.3139 -0.0292
28073W        W43882   1.629  15.772  11.079 -0.0075  0.1686  0.0008
28074W        W43883   6.678   5.512  14.875  0.1619 -0.1754  0.0135
28075W        W43884  15.545   8.272   4.610  0.3939  0.0146  0.0822
28076W        W43885  14.977   6.530  14.151 -0.2884  0.2199  0.1313
28077W        W43886  13.603  10.217   2.976  0.0077 -0.0827 -0.4191
28078W        W43887  11.753  15.985  13.229  0.0803  0.1792  0.2681
28079W        W43888  15.169   7.127   2.920 -0.1016 -0.0429  0.4927
28080W        W43889  17.025   6.372  11.553 -0.2559 -0.1870  0.2040
28081W        W43890   9.701  10.027   1.450  0.0622 -0.4780  0.1205
28082W        W43891  17.437   9.845  12.922  0.0907 -0.2549 -0.0188
28083W        W43892  17.991  17.928   4.656 -0.0522 -0.1249  0.0064
28084W        W43893  14.936   4.857   4.788  0.0581  0.2000 -0.0130
28085W        W43894   7.477   9.647   5.201 -0.0134  0.1852 -0.1218
28086W        W43895   8.752   4.817   3.061 -0.1607 -0.0211  0.0051
28087W        W43896   6.203  17.264  11.676 -0.1927  0.0517  0.1026
28088W        W43897   4.382  12.924   0.627  0.2294  0.0675  0.1012
28089W        W43898   7.412   4.300  11.374 -0.0138 -0.2354 -0.1810
28090W        W43899  17.982   0.078   2.211 -0.0547 -0.0827 -0.0353
28091W        W43900   2.338   2.100  14.781 -0.0649 -0.0613  0.2275
28092W        W43901   9.928   1.430  12.611  0.1314 -0.1280  0.2650
28093W        W43902  17.108   0.252   2.441  0.2409  0.0276  0.5572
28094W        W43903   8.953  14.388   2.101 -0.0387 -0.2088 -0.1079
28095W        W43904  12.744   0.436   3.810 -0.0857  0.2606 -0.1767
28096W        W43905   1.799  17.188   2.438 -0.1055 -0.2412 -0.1778
28097W        W43906   6.948   2.356  15.480  0.0692  0.0686  0.0396
28098W        W43907   6.900  12.057  14.524 -0.3592  0.1117  0.0370
28099W        W43908  15.351   3.637  13.904 -0.0271  0.2621 -0.1716
28100W        W43909   5.065   9.952  11.087 -0.0762  0.4233 -0.3797
28101W        W43910  14.739   7.805   1.118  0.0616  0.0939  0.1675
28102W        W43911  15.725   9.863   4.674 -0.0865 -0.0032 -0.4458
28103W        W43912   6.948   7.495   2.636 -0.4247  0.4487  0.0120
28104W        W43913  18.427   2.533  15.490  0.0983  0.3793 -0.4640
28105W        W43914   5.202   5.380   2.552  0.0590 -0.1290  0.0609
28106W        W43915  16.936  12.385   0.011  0.0896  0.4890 -0.3928
28107W        W43916  15.676  15.439   9.879  0.0619  0.1506 -0.0648
28108W        W43917  12.890  10.218  14.283  0.0327  0.0011 -0.1886
28109W        W43918  13.888   2.121  11.670  0.1331 -0.1405 -0.2484
28110W        W43919   7.193  13.000  14.592 -0.0466  0.2375 -0.1936
28111W        W43920  13.227  12.777  11.357 -0.0034  0.1827 -0.0527
28112W        W43921   7.150   9.618   3.446  0.2383  0.1880  0.3994
28113W        W43922  16.086   1.530   2.374  0.4199 -0.1322 -0.1905
28114W        W43923   6.307  11.722   5.507 -0.1153  0.2978  0.0855
28115W        W43924  17.602  15.115   0.603  0.1029 -0.0474 -0.1768
28116W        W43925   0.829   7.605  15.079 -0.3934  0.2412 -0.0379
28117W        W43926  14.468   9.306  14.213  0.1327 -0.0358  0.1763
28118W        W43927  13.031   8.293  15.224  0.2092  0.4724 -0.0677
28119W        W43928  10.427  11.140  13.916  0.1179 -0.1321  0.2286
28120W        W43929   1.647   2.111  11.068  0.4121  0.0618  0.2289
28121W        W43930  11.233   1.323  14.511 -0.2739  0.0166  0.1720
28122W        W43931   4.407  11.130  12.347  0.0385 -0.0164  0.0991
28123W        W43932   9.216  12.365  14.758 -0.0727 -0.3620  0.2319
28124W        W43933   8.118   5.415  10.493  0.1392  0.2205  0.0096
28125W        W43934   7.603  14.454  11.662  0.1165  0.0481 -0.0933
28126W        W43935   8.488  12.625   4.578 -0.2048 -0.1043 -0.2918
28127W        W43936   6.089   7.118   1.628 -0.0558  0.1867 -0.0910
28128W        W43937  15.285   2.809  12.673 -0.0093  0.1355 -0.2413
28129W        W43938  11.255   5.521  13.462 -0.1033 -0.0674 -0.1846
28130W        W43939  17.649  17.514   1.362  0.2130 -0.0174 -0.0102
28131W        W43940   8.696   3.802  13.589 -0.3389 -0.0834 -0.0662
28132W        W43941   9.275   6.446  13.970  0.0148  0.0010 -0.0168
28133W        W43942  13.852  12.028  12.224  0.1158 -0.0611  0.1584
28134W        W43943   8.525   7.968  12.687  0.0952  0.2129 -0.3151
28135W        W43944   8.502  14.566   2.819 -0.1245  0.1036  0.2986
28136W        W43945   6.115  12.790  12.382 -0.1451 -0.0495 -0.2884
28137W        W43946   5.302   3.096   4.157  0.1513 -0.0669  0.0573
28138W        W43947   7.019   1.169   1.176  0.0798  0.0296 -0.0992
28139W        W43948  12.669  17.198   1.537 -0.0720 -0.0670 -0.0144
28140W        W43949  11.472   8.638  13.624  0.1557  0.0579 -0.0324
28141W        W43950   4.561  16.822   5.800  0.2010 -0.4941 -0.0678
28142W        W43951  18.648  16.669   1.576  0.2018  0.4399 -0.1354
28143W        W43952   5.506   3.169   1.737 -0.3376 -0.1516 -0.4086
28144W        W43953   5.615  10.165  13.447  0.1602 -0.1431 -0.2170
28145W        W43954  10.134  11.087   3.358  0.1815 -0.0055 -0.3375
28146W        W43955  13.875   3.297   3.029 -0.0784  0.2559  0.3477
28147W        W43956   7.493  16.129   4.966  0.0612 -0.0239  0.0343
28148W        W43957  16.788  16.164   2.251 -0.3468  0.0009  0.0579
28149W        W43958  13.538   0.476   0.671 -0.1831 -0.0463  0.0444
28150W        W43959   4.291   9.632   4.888 -0.0765 -0.1779  0.2452
28151W        W43960   5.984   7.589  11.949  0.2378  0.1499 -0.0908
28152W        W43961   7.394   2.122  13.040  0.0167 -0.1213 -0.2371
28153W        W43962   2.452   0.691  13.402 -0.1865  0.0936 -0.0005
28154W        W43963   1.604   3.836  13.338 -0.0164  0.1448  0.0043
28155W        W43964   0.319  16.856   1.263  0.0171  0.0017 -0.0924
28156W        W43965   4.331  17.047  10.958  0.0622 -0.0404 -0.0016
28157W        W43966   7.059   9.362  13.842 -0.2809 -0.3570 -0.1775
28158W        W43967   4.632  17.252  11.925 -0.0404 -0.1324 -0.0794
28159W        W43968  12.708   7.065  13.832  0.0387 -0.1308 -0.0361
28160W        W43969   8.439   3.111   1.791  0.1925  0.3072 -0.3428
28161W        W43970  18.131  16.181  10.734 -0.2137 -0.2077  0.0216
28162W        W43971   7.358   2.688   0.670  0.1036 -0.1714  0.0715
28163W        W43972  12.188  17.290   1.521 -0.0219 -0.1138 -0.1274
28164W        W43973  14.779  15.365  14.952  0.0192  0.2013 -0.0690
28165W        W43974  18.162   3.202   0.519 -0.0858  0.2754 -0.1123
28166W        W43975   7.989  10.740   5.630 -0.0365 -0.0639  0.0127
28167W        W43976   2.197   2.831  10.834 -0.1092  0.0247  0.2918
28168W        W43977  12.571   9.607  11.828  0.1835 -0.1687 -0.1026
28169W        W43978  16.001  17.103  11.475  0.0042 -0.0323  0.0609
28170W        W43979  12.327  15.338   5.304  0.0655  0.1228 -0.1001
28171W        W43980   7.499   6.161  13.358 -0.0471 -0.0905 -0.2743
28172W        W43981   3.524   5.469  10.639  0.2279  0.3782  0.0471
28173W        W43982  11.787   6.889   2.236  0.0369  0.1195 -0.4025
28174W        W43983  18.147  13.619  15.021 -0.0988  0.1055  0.1840
28175W        W43984   5.653   5.294  13.981  0.1427 -0.0359 -0.2804
28176W        W43985  13.436   1.208   4.291  0.0095  0.2465  0.4727
28177W        W43986   8.735   3.167  11.643 -0.0024  0.1390 -0.4714
28178W        W43987   7.993   6.420   0.396 -0.1721 -0.2641 -0.2092
28179W        W43988   5.278  13.541  11.637  0.0660  0.3230  0.4420
28180W        W43989   2.376  14.510  15.345 -0.1436  0.1503  0.0722
28181W        W43990  11.457   1.848   2.721 -0.0865  0.3169  0.1513
28182W        W43991   2.934  17.947   2.984 -0.3619 -0.2909 -0.0477
28183W        W43992  10.762   9.183   0.809  0.0544 -0.1490  0.0328
28184W        W43993  17.184  15.088  13.694  0.0712  0.1123  0.0847
28185W        W43994  18.119   5.521   0.417 -0.0129  0.1361  0.0246
28186W        W43995  11.277   4.371   1.756 -0.1333  0.0775 -0.1350
28187W        W43996  16.864   0.016  12.234 -0.4125 -0.1654 -0.1134
28188W        W43997   6.386  10.808   6.141  0.0155  0.0156  0.1923
28189W        W43998  13.264  18.324  15.603  0.0230 -0.1672  0.1682
28190W        W43999   9.775   0.525  14.519 -0.0862 -0.5801  0.0982
28191W        W44000  11.126   8.253  10.724 -0.2725 -0.0578 -0.1200
28192W        W44001  15.850   2.365   2.958 -0.1679  0.1199  0.0223
28193W        W44002   2.507   0.297   4.804  0.0141  0.0377 -0.0146
28194W        W44003   6.841   5.982   2.847  0.0404  0.0835  0.1229
28195W        W44004   1.365  11.621  15.496 -0.1848  0.4296 -0.1161
28196W        W44005   1.025  17.862  13.913 -0.1138 -0.0460 -0.0601
28197W        W44006  16.884   4.383  12.989  0.1868 -0.0306  0.1170
28198W        W44007   4.667  12.216  14.664 -0.0732  0.1435 -0.1454
28199W        W44008   4.432  14.751   2.608 -0.1823 -0.2558 -0.1450
28200W        W44009  14.220   5.299   1.287  0.1928  0.0052  0.1665
28201W        W44010   8.142  15.234   4.989 -0.1495 -0.1437  0.0450
28202W        W44011  10.291   4.513   1.878 -0.0986  0.4679 -0.0257
28203W        W44012   8.032  14.243   0.099  0.1105  0.1086 -0.1043
28204W        W44013   1.114  18.328   2.167  0.0697  0.0421  0.0555
28205W        W44014   4.428  16.056   3.943  0.3056  0.0217 -0.2089
28206W        W44015   6.369   3.170   0.154  0.1675  0.1924 -0.0125
28207W        W44016  11.443   3.608  14.715 -0.2442 -0.2132  0.0101
28208W        W44017  11.775   2.189  12.436 -0.0577  0.1879  0.1537
28209W        W44018   6.913   6.304  11.943  0.1458 -0.0600  0.1037
28210W        W44019  11.827  15.893   3.938  0.6388  0.1325  0.1038
28211W        W44020   9.965  10.912  14.517 -0.0131  0.0813 -0.0367
28212W        W44021   8.886   5.401   1.553 -0.0407  0.2604 -0.0381
28213W        W44022   2.427  10.574  13.749 -0.1584 -0.1894 -0.0269
28214W        W44023  12.553  18.086   1.551 -0.0093  0.1694  0.0713
28215W        W44024  17.502  13.831   4.005  0.3339  0.3724 -0.0583
28216W        W44025  16.659   3.595   1.774 -0.0607  0.0489  0.0502
28217W        W44026  11.884   9.680   2.907 -0.1870 -0.1217  0.1102
28218W        W44027   3.725   8.639   2.907 -0.2696 -0.0157  0.2456
28219W        W44028   4.807  10.917  12.077  0.4724 -0.0693  0.0028
28220W        W44029  12.685   1.640  14.812  0.1527  0.3343  0.2199
28221W        W44030  18.658  17.430  12.678 -0.0779  0.3894  0.2486
28222W        W44031   3.137  16.492   4.203  0.0339 -0.1371 -0.0077
28223W        W44032   7.375  11.092  13.283 -0.2196 -0.0470 -0.1386
28224W        W44033   4.534   6.113   3.489  0.0703  0.0391 -0.0531
28225W        W44034   7.549   9.857   2.573 -0.2542 -0.5179 -0.0681
28226W        W44035   5.048   6.834  10.994  0.0806  0.1592 -0.2246
28227W        W44036   0.732   9.559   4.526 -0.1997  0.0971  0.0308
28228W        W44037  10.356  17.814   1.011  0.0958 -0.0033  0.3074
28229W        W44038   5.172  11.028  15.615 -0.2386 -0.0314  0.2455
28230W        W44039   5.330  16.570   2.145 -0.1753 -0.0818 -0.2729
28231W        W44040  16.530  11.309   1.191 -0.2673 -0.2135  0.1411
28232W        W44041  18.636   2.042  14.226 -0.0191 -0.1154 -0.2025
28233W        W44042   3.318  12.400  14.963  0.3588  0.0337 -0.1998
28234W        W44043  18.651  14.782   1.113  0.0801  0.0368  0.1139
28235W        W44044  15.790  11.356  12.664  0.0148  0.0702 -0.2518
28236W        W44045   8.622  11.310  14.557  0.0594 -0.3354 -0.1338
28237W        W44046   5.766  18.663  13.528 -0.3242 -0.2221 -0.2157
28238W        W44047   6.240   6.580  13.484  0.1544  0.0356 -0.2005
28239W        W44048   5.009   8.538  11.086  0.0336  0.3183  0.1016
28240W        W44049  17.431  11.523   1.023 -0.1869 -0.1495  0.2631
28241W        W44050   2.898  12.846   3.978  0.0300 -0.0444 -0.1938
28242W        W44051  12.920  10.988  15.328  0.0586 -0.1921  0.0041
28243W        W44052   8.930  16.180   3.917  0.2450  0.1485 -0.1333
28244W        W44053  14.318   1.415  11.228 -0.1437 -0.0413  0.0943
28245W        W44054   3.608   1.718  11.046  0.2016 -0.1548 -0.3398
28246W        W44055   4.151   8.358  14.459 -0.0963  0.0707 -0.0875
28247W        W44056  16.402  16.874  12.297 -0.2625 -0.2065 -0.0293
28248W        W44057   4.337  16.678   9.639  0.2185 -0.1609 -0.0862
28249W        W44058   5.870  10.532   3.484 -0.1844 -0.0499 -0.1331
28250W        W44059   9.946   1.290  15.141  0.1944  0.2300 -0.0854
28251W        W44060  11.586   2.069  15.519 -0.1710 -0.0536 -0.0500
28252W        W44061   4.801  16.765   2.922 -0.1555  0.0001 -0.3027
28253W        W44062   1.028  17.366  13.065  0.0044 -0.0605  0.1550
28254W        W44063  14.036  14.786   3.795 -0.0796 -0.2981 -0.0997
28255W        W44064   6.327  17.043   3.929  0.0737  0.0917 -0.1928
28256W        W44065  10.593  11.015   2.141 -0.1546  0.2705 -0.0135
28257W        W44066   7.718   6.856   1.297 -0.0646 -0.1164 -0.1146
28258W        W44067   7.993  16.463   0.575  0.0326 -0.1706 -0.2658
28259W        W44068   0.184   2.051  12.680  0.1127 -0.1315  0.1709
28260W        W44069   5.357  13.449   3.715 -0.3201 -0.1212  0.3295
28261W        W44070   5.929   4.645  13.877  0.2494  0.3037 -0.0446
28262W        W44071   9.333   3.148  15.031  0.0171 -0.3058  0.0306
28263W        W44072  10.662  11.997  10.554 -0.2251  0.1828 -0.3980
28264W        W44073  15.227   4.280   1.894  0.0175  0.3351  0.1238
28265W        W44074   8.721   2.686  11.827 -0.1752  0.2024 -0.1825
28266W        W44075  13.403   5.221  13.157  0.3288 -0.0196 -0.0286
28267W        W44076  13.842  10.241  12.600  0.3642  0.0897 -0.0927
28268W        W44077   0.950   1.822   3.675  0.1716  0.3199 -0.0810
28269W        W44078  18.158  12.118   3.347 -0.0493 -0.0458 -0.1087
28270W        W44079  12.027  10.628  13.709 -0.0935 -0.0297 -0.1710
28271W        W44080  16.502   3.784  13.914  0.0116 -0.2196  0.0444
28272W        W44081   1.746  13.043  12.675  0.2558  0.0431  0.0560
28273W        W44082  15.819   3.038   5.088  0.1224  0.1784 -0.1885
28274W        W44083   8.774   5.678   4.878 -0.2657  0.0009  0.0536
28275W        W44084  17.800   6.866  15.409 -0.1060  0.0004  0.1152
28276W        W44085  11.102  14.198   3.019 -0.2194  0.0257 -0.1541
28277W        W44086  10.238   9.718   2.013  0.0723  0.3132 -0.0428
28278W        W44087   9.980   1.312   3.988  0.0465 -0.0437  0.0001
28279W        W44088  10.596   4.507  11.615 -0.2865 -0.2300 -0.0683
28280W        W44089   1.678   4.066  14.584  0.2216 -0.3408 -0.3140
28281W        W44090  12.197   1.813   4.297  0.1110 -0.1307 -0.1150
28282W        W44091   2.979   3.416   2.412 -0.2714 -0.0391 -0.1369
28283W        W44092  10.458   5.003  11.326  0.1119 -0.5333  0.2413
28284W        W44093   1.448  11.019  10.013  0.0895 -0.0202  0.0138
28285W        W44094   6.346   7.212   4.832 -0.0758  0.1767  0.2906
28286W        W44095   6.718   1.117   5.678 -0.1275 -0.2229  0.0733
28287W        W44096  16.409   6.407  13.972 -0.3325 -0.0215  0.0801
28288W        W44097  15.343  13.185   0.472  0.1710  0.0240  0.1038
28289W        W44098   7.626  11.061  12.372 -0.3272  0.1156 -0.1490
28290W        W44099   5.910  14.206   2.810 -0.2780  0.1877 -0.1284
28291W        W44100   3.109   8.942  11.010 -0.2321  0.1778 -0.2465
28292W        W44101   3.114  10.068   4.664 -0.0851 -0.2302 -0.3787
28293W        W44102   3.932   2.172  12.361 -0.3882  0.1581  0.0457
28294W        W44103   0.937  13.239   2.664 -0.0120  0.0819  0.2025
28295W        W44104   6.894  17.596   3.615 -0.2130 -0.1843  0.2594
28296W        W44105   9.921  16.547  11.754  0.2414 -0.0169  0.1705
28297W        W44106   8.767  14.935  15.554  0.1590 -0.1203 -0.0966
28298W        W44107  13.370   6.040  11.322 -0.1125 -0.4143 -0.0320
28299W        W44108   6.786  17.393   5.288  0.3699  0.2251 -0.2156
28300W        W44109   3.444   2.215  11.280  0.1250 -0.1521  0.1002
28301W        W44110  14.560  16.435  12.034 -0.0888  0.3821 -0.1039
28302W        W44111  17.153   8.891   5.598  0.1421  0.2028  0.0303
28303W        W44112   3.550   7.384   3.975  0.1559 -0.0447  0.2210
28304W        W44113  10.800  14.863   2.661 -0.0913 -0.1158 -0.0744
28305W        W44114   6.356  12.586   1.077  0.0324  0.0693  0.0132
28306W        W44115  16.310  14.131  12.574  0.1202  0.1409 -0.0359
28307W        W44116   6.037  18.173  13.434  0.0952 -0.0502  0.0337
28308W        W44117  11.201  16.030  11.670 -0.0926 -0.2992 -0.5411
28309W        W44118   1.423  13.676   4.055  0.2159  0.0117 -0.0625
28310W        W44119  13.899  17.891   1.639  0.1951 -0.0703  0.1701
28311W        W44120   8.862   1.507   5.429  0.0453 -0.1551 -0.3923
28312W        W44121  15.699   2.139  15.609  0.1313 -0.0536  0.0984
28313W        W44122   9.222   3.893  11.922 -0.0231  0.0761 -0.2224
28314W        W44123   6.753   6.702  12.277  0.2601 -0.4490 -0.0507
28315W        W44124   7.120  11.163  15.000 -0.2497 -0.1186 -0.2506
28316W        W44125  17.963   3.140   4.244 -0.0570 -0.2006  0.2043
28317W        W44126  11.821   5.744  11.959  0.2635  0.0607 -0.1217
28318W        W44127  10.328   3.299  15.522  0.0468 -0.0983  0.1183
28319W        W44128   6.108  16.586  12.624 -0.0783  0.1371  0.1358
28320W        W44129  10.886   5.820  14.791  0.1618  0.0452  0.0248
28321W        W44130   6.332  16.335   2.511 -0.1969 -0.0718  0.3771
28322W        W44131   7.836   1.520  14.605 -0.0016 -0.0744  0.3133
28323W        W44132   1.882  10.929  15.512  0.0574 -0.3127  0.1804
28324W        W44133  10.391   1.646   1.630 -0.1254  0.0956 -0.2160
28325W        W44134  10.990   5.941  15.340  0.0519 -0.1405 -0.0255
28326W        W44135   8.335   3.515  12.082  0.0028 -0.0222 -0.0751
28327W        W44136   7.209   4.791   4.475  0.0275  0.0848 -0.0961
28328W        W44137   2.150   6.569  11.568  0.0680  0.0760  0.2758
28329W        W44138  13.598   2.722   2.626  0.2026 -0.2024  0.1697
28330W        W44139   8.581  11.640   1.298 -0.0243  0.0370  0.5044
28331W        W44140  16.459   1.363   0.439 -0.0721  0.1346  0.2014
28332W        W44141   4.201  12.124   4.027 -0.1725 -0.3301  0.1578
28333W        W44142   5.788  13.645   1.727  0.2077 -0.0560 -0.0585
28334W        W44143   7.361   5.170  15.142  0.1553  0.0954  0.2746
28335W        W44144  17.695  12.458  12.847 -0.1301  0.1494 -0.3151
28336W        W44145  18.134   1.055  13.625 -0.1653  0.2176 -0.1112
28337W        W44146   2.179  12.445  11.535 -0.0977 -0.1871 -0.3259
28338W        W44147   5.497  13.757   2.189 -0.2632 -0.3493  0.0536
28339W        W44148  10.031   4.597   4.399 -0.2907 -0.0430 -0.0254
28340W        W44149   3.258   1.452  11.872 -0.3372 -0.4956  0.0924
28341W        W44150  14.101  13.944   4.739 -0.2365  0.0405  0.4640
28342W        W44151  12.999  12.659  12.600 -0.3814  0.2458 -0.0558
28343W        W44152   5.810  14.999  10.523 -0.1222  0.0257 -0.2011
28344W        W44153   4.142  10.537  12.809 -0.0755  0.0390 -0.0653
28345W        W44154  14.193  11.407  14.292 -0.3280 -0.1324 -0.2411
28346W        W44155   1.491   0.151   5.670  0.0797 -0.2260 -0.1342
28347W        W44156   3.416  16.019  14.849  0.1528  0.0721  0.0027
28348W        W44157   9.204  10.217  11.361 -0.3810  0.0580  0.1445
28349W        W44158  17.240  16.855   5.079 -0.1245  0.1167 -0.1530
28350W        W44159   3.199   5.474  12.407 -0.3180 -0.1101  0.1787
28351W        W44160   4.544  11.999   1.665 -0.0006  0.0789  0.0514
28352W        W44161   2.117   4.867   4.266 -0.1541 -0.0782  0.3195
28353W        W44162   2.059  13.722  14.545  0.1453 -0.1334 -0.2203
28354W        W44163   0.496   6.008   2.395  0.1672  0.1598  0.0428
28355W        W44164  14.121  12.046   4.325 -0.1073  0.0422  0.1380
28356W        W44165   4.196  14.508  11.543  0.0354 -0.1044 -0.0839
28357W        W44166  10.716   5.598  12.658 -0.2748 -0.0860  0.2075
28358W        W44167   1.281   9.337   0.243  0.1220  0.0134 -0.1836
28359W        W44168   4.085   3.412   2.964 -0.1000 -0.0322  0.0040
28360W        W44169   7.668  15.170  15.474  0.2055  0.2607 -0.0817
28361W        W44170  12.350  10.345  13.493  0.2079 -0.2253  0.0507
28362W        W44171   6.198   5.096   0.092 -0.5748  0.1401 -0.0947
28363W        W44172   1.655   4.353   3.516 -0.1800 -0.1893 -0.3300
28364W        W44173  18.386   8.381  11.156 -0.3317  0.3367  0.3202
28365W        W44174  17.761   5.086  13.239  0.1144  0.1627 -0.1088
28366W        W44175  17.274   8.255   0.156  0.2172 -0.0799 -0.0730
28367W        W44176   5.601  14.185   3.506  0.0154 -0.3263 -0.0093
28368W        W44177  16.237   4.883  14.820  0.0018 -0.2134 -0.0079
28369W        W44178   7.947  14.522  13.000  0.4270 -0.0387  0.2082
28370W        W44179  15.964  12.606   3.709  0.0798 -0.1394 -0.3812
28371W        W44180  17.839   0.704   2.965  0.0023  0.2672 -0.1608
28372W        W44181   1.690   1.168   1.146 -0.3191 -0.3230 -0.0899
28373W        W44182   1.361   4.059   1.823 -0.1821 -0.1527 -0.0663
28374W        W44183   0.315   5.880   1.545 -0.1118 -0.2181  0.0432
28375W        W44184   0.347   7.243  13.006  0.1496  0.1557  0.0972
28376W        W44185   1.181   9.529   3.721 -0.0098  0.0980 -0.0333
28377W        W44186   5.699  11.531  10.869  0.0882 -0.1036  0.1035
28378W        W44187  10.240  13.604  13.419 -0.1472  0.1826 -0.2138
28379W        W44188  15.654  10.587  13.946  0.1268 -0.0485  0.0877
28380W        W44189   7.629  11.877   5.307 -0.0739 -0.3099 -0.0608
28381W        W44190  12.163  13.430  14.729  0.0471  0.1105  0.1105
28382W        W44191   8.825   3.167  12.783 -0.1915  0.2708 -0.1119
28383W        W44192  12.441   9.785   2.142 -0.1414 -0.0709 -0.0538
28384W        W44193   8.829   0.781   0.395  0.1791  0.2737 -0.1814
28385W        W44194  14.523  10.782   3.091 -0.1886  0.2738 -0.1860
28386W        W44195   8.225   4.109  10.639 -0.0655  0.2300 -0.1534
28387W        W44196   5.819  11.873   4.419  0.0987 -0.0391  0.2081
28388W        W44197   1.740   1.796  14.876  0.0559 -0.0184 -0.0739
28389W        W44198   2.977  16.275  15.470 -0.4002 -0.0585  0.0015
28390W        W44199  18.310   2.908   3.423 -0.1350 -0.0773 -0.1741
28391W        W44200   3.067  11.202  13.000 -0.2381 -0.1592 -0.0079
28392W        W44201   1.409  18.326   3.413 -0.0550 -0.1360 -0.0565
28393W        W44202   9.725   6.200  14.123 -0.1189  0.3387 -0.0304
28394W        W44203   8.692   6.742  13.061  0.2141  0.0621 -0.3005
28395W        W44204  14.096   8.707  12.600  0.2060  0.0079  0.2396
28396W        W44205  12.565   9.252  11.488 -0.0330  0.0163 -0.1330
28397W        W44206  13.060   4.993   1.698  0.1642 -0.1884  0.0608
28398W        W44207  17.592   7.318  13.019 -0.0005  0.1895  0.3629
28399W        W44208   0.591  10.721   0.905 -0.1048 -0.1281 -0.0140
28400W        W44209  18.196  17.692  11.839  0.2057  0.0549  0.3271
28401W        W44210   4.062   6.002   1.689 -0.2388 -0.2002 -0.1029
28402W        W44211  12.695   1.145   2.443  0.0952 -0.2462 -0.0571
28403W        W44212   3.091   5.582   1.725  0.1939  0.1193 -0.0890
28404W        W44213  15.290   7.524  15.582 -0.1270  0.0074  0.0728
28405W        W44214  16.773   7.007  10.707  0.1992  0.0047  0.2302
28406W        W44215   3.819  15.314  11.809 -0.0626 -0.2679  0.0816
28407W        W44216  11.488   6.579   5.110  0.1226 -0.2605 -0.2588
28408W        W44217  17.571  13.583   3.471 -0.1289  0.2689  0.1895
28409W        W44218   4.085   9.141   2.413  0.4597  0.1415 -0.0091
28410W        W44219  17.805  15.545  11.670  0.1271  0.1101  0.1933
28411W        W44220   2.128  11.686   1.054  0.5100  0.2394 -0.5413
28412W        W44221   7.620  15.528  13.319  0.0892  0.0499  0.0810
28413W        W44222   8.631  13.320  12.360  0.0957 -0.2091  0.1744
28414W        W44223   0.144   5.485   0.380 -0.1178 -0.0733  0.0057
28415W        W44224  15.795   7.074  12.140  0.1970 -0.2631  0.2112
28416W        W44225  11.204  15.077   3.460  0.1856  0.2469 -0.1504
28417W        W44226  12.888   5.337  11.577  0.1076  0.2054  0.5837
28418W        W44227  10.380   7.094   4.589  0.1366  0.1456  0.2859
28419W        W44228   8.054  12.651  14.946 -0.1423  0.3051 -0.5213
28420W        W44229   7.553  10.066  12.386  0.1151 -0.2162  0.0415
28421W        W44230   7.576  16.773   0.349 -0.0519  0.0911 -0.3453
28422W        W44231  14.117   7.389  10.668 -0.1457 -0.0894  0.1583
28423W        W44232  10.417   5.884  10.765  0.0486 -0.1291 -0.0504
28424W        W44233   6.320  12.360  11.566 -0.0025  0.0484 -0.2260
28425W        W44234   9.643  17.291   4.090  0.0693  0.2676  0.1795
28426W        W44235  17.010  16.294  15.100 -0.0166 -0.0517  0.1527
28427W        W44236  15.800  14.322  13.374 -0.1061 -0.0728  0.0868
28428W        W44237  12.554  13.888  13.582  0.0356  0.3949 -0.1525
28429W        W44238   5.213   5.608  12.506 -0.0023  0.1277 -0.1639
28430W        W44239   7.529   4.450   3.264 -0.2851  0.2684  0.0398
28431W        W44240   3.339   5.430   4.124  0.0524  0.0124  0.1572
28432W        W44241   4.864   4.670   0.780  0.0120  0.2498 -0.0802
28433W        W44242   8.167   0.975   3.265  0.2152  0.2404  0.1384
28434W        W44243   2.645   9.687   0.096 -0.0939  0.0878 -0.0688
28435W        W44244   2.292   6.758  12.712  0.0384 -0.0977  0.0208
28436W        W44245  11.230   1.235   0.539  0.0968 -0.5233  0.0725
28437W        W44246  14.147  11.911   1.947 -0.2075  0.0087 -0.2572
28438W        W44247  10.690   2.290   0.806 -0.1500 -0.2741  0.2099
28439W        W44248  17.978   0.977   3.374  0.2322  0.1029  0.0964
28440W        W44249   8.625   5.602  11.538 -0.1274 -0.3881  0.3184
28441W        W44250   6.680  15.949  14.660  0.0364 -0.0905  0.1099
28442W        W44251   1.936   4.201   1.134  0.0621 -0.0484  0.1422
28443W        W44252   3.241  16.778   2.021 -0.1321 -0.3882  0.0496
28444W        W44253   6.839  16.242   1.877 -0.1311  0.1290  0.2158
28445W        W44254   1.201   6.938  15.307  0.0648 -0.0452 -0.0181
28446W        W44255   5.973   5.100   0.923 -0.0566 -0.0922  0.0920
28447W        W44256  18.561  16.195   4.179  0.0186 -0.3656 -0.0028
28448W        W44257  11.535  10.092   2.705 -0.0508 -0.0425 -0.1701
28449W        W44258  17.106  16.384   5.546 -0.1254  0.4203  0.0357
28450W        W44259   1.557  15.603   1.582  0.0268  0.0443 -0.0412
28451W        W44260   6.127   1.824  12.119 -0.1985  0.1731  0.2245
28452W        W44261   0.454   5.502   5.010 -0.0694  0.0170  0.0896
28453W        W44262  11.203   2.516   3.858 -0.1758  0.2566 -0.1324
28454W        W44263   7.813   3.331   4.891 -0.1499 -0.0283 -0.2491
28455W        W44264  12.358  18.647  13.714 -0.0789 -0.1048  0.1354
28456W        W44265   9.731   6.920  10.829 -0.0671 -0.3099 -0.2682
28457W        W44266  18.389   6.035   3.820  0.0771 -0.0686 -0.1754
28458W        W44267   0.257   9.202  13.131  0.2276 -0.3292  0.1595
28459W        W44268  11.079  15.207   5.325 -0.2283  0.1135 -0.1617
28460W        W44269   1.216   4.991  14.323  0.1743 -0.1258 -0.0263
28461W        W44270   2.139   0.225   2.940  0.0086  0.2298  0.1136
28462W        W44271  16.748  12.006  11.192  0.0178  0.1064 -0.0629
28463W        W44272   7.949   8.497  14.414  0.2953 -0.0500  0.2249
28464W        W44273   8.644  11.296   3.237 -0.2398 -0.3929 -0.1314
28465W        W44274  16.406  15.159   2.341 -0.0768  0.0976 -0.1664
28466W        W44275  16.278   9.917  14.196 -0.1459 -0.2353  0.2696
28467W        W44276   3.963   7.460   3.738 -0.2135 -0.1940 -0.0697
28468W        W44277   8.940   8.618   1.431  0.0242  0.1573  0.1370
28469W        W44278  14.474  14.554   3.646 -0.0185  0.0814  0.1323
28470W        W44279  10.557  14.380  12.115  0.1943 -0.0409 -0.0669
28471W        W44280  10.900  18.268  12.551 -0.3337  0.0376  0.0799
28472W        W44281   2.436   3.006   0.786 -0.0009 -0.0573 -0.2873
28473W        W44282   7.066  16.504  12.879 -0.2913  0.0942 -0.0701
28474W        W44283  11.463  13.445   1.008  0.0275  0.0876 -0.0227
28475W        W44284   9.447   6.715   0.942 -0.0293 -0.2035 -0.1545
28476W        W44285  17.719   3.792  14.052 -0.0348 -0.0762  0.0204
28477W        W44286  11.147  18.591   3.913  0.2100 -0.1162  0.0544
28478W        W44287   6.693   5.984  13.182 -0.1266  0.1304  0.2683
28479W        W44288  15.263  12.753  14.044  0.1501  0.0692 -0.0621
28480W        W44289   2.814   9.538   5.206 -0.2939  0.1084 -0.2356
28481W        W44290   4.036   1.288   2.818 -0.3007 -0.1622 -0.0640
28482W        W44291  10.702   3.250   0.324  0.0349  0.2258 -0.0357
28483W        W44292  13.187   4.017   0.280  0.0096 -0.1137  0.2079
28484W        W44293   0.859   1.315   5.207 -0.0785  0.1917 -0.1398
28485W        W44294  14.872   3.471  11.537  0.0625 -0.2059 -0.0275
28486W        W44295  10.562   9.290  13.253 -0.1656  0.0083  0.0677
28487W        W44296   8.032   2.019  14.284 -0.2129  0.2435  0.0872
28488W        W44297  14.708   1.522  11.719  0.0198 -0.1089 -0.1414
28489W        W44298   2.921  12.496   2.736 -0.0018 -0.2361  0.1810
28490W        W44299  10.504   3.844  12.488  0.1696  0.3250  0.0431
28491W        W44300  14.524  11.400  13.407 -0.3251 -0.1470  0.0099
28492W        W44301  12.510  13.710   2.457 -0.2679 -0.2573  0.1249
28493W        W44302  18.328  14.405  10.734 -0.3211 -0.0843  0.0667
28494W        W44303  16.145  10.805  10.549  0.0576  0.1336  0.4064
28495W        W44304   8.657  16.167  14.001 -0.1536  0.0082 -0.1928
28496W        W44305   7.346  17.237   1.996 -0.1421 -0.2981 -0.1648
28497W        W44306  11.678   3.141  13.983 -0.0746 -0.0326 -0.0438
28498W        W44307   9.291   1.966   0.596  0.0871  0.1351  0.0213
28499W        W44308   3.025   1.392   0.805  0.1265  0.2727 -0.0628
28500W        W44309  14.869   7.259   9.741  0.2866 -0.0109 -0.0734
28501W        W44310  14.249  16.989   5.763 -0.1911  0.0294  0.2092
28502W        W44311   3.559  10.346   0.514  0.3927 -0.1239 -0.3358
28503W        W44312  11.699  15.591   1.379  0.1603 -0.0185 -0.0151
28504W        W44313   7.267   1.519   4.994 -0.0086 -0.0842 -0.0547
28505W        W44314  10.091   1.433   5.033  0.0479 -0.1425  0.0395
28506W        W44315  10.474   8.989   0.481 -0.0651  0.1086 -0.1041
28507W        W44316  14.978   0.462   3.316 -0.1952 -0.1086 -0.2026
28508W        W44317  17.586  17.255  13.132  0.2660  0.2316 -0.4923
28509W        W44318  13.846  14.946  13.125  0.2221  0.0236 -0.0992
28510W        W44319   0.527   5.516  10.968 -0.3659 -0.0813 -0.1881
28511W        W44320   2.053   5.693  13.410  0.1962  0.1334 -0.4342
28512W        W44321  12.114  14.824   1.563 -0.1189  0.0208  0.0790
28513W        W44322   0.093   5.319  10.839  0.1371  0.3502  0.2919
28514W        W44323   5.241   6.391   3.781 -0.0293 -0.0965  0.0586
28515W        W44324  15.826   4.263   1.738 -0.2861  0.2073 -0.3429
28516W        W44325   1.522   1.628  13.615 -0.2745 -0.1499  0.0833
28517W        W44326   7.299  14.510   4.310  0.0647 -0.2213 -0.3023
28518W        W44327  12.453  18.575   5.447  0.0153 -0.1251 -0.0202
28519W        W44328  17.605   2.332   3.211 -0.0464  0.4442 -0.1865
28520W        W44329   2.170  11.839   4.239  0.0824 -0.2551 -0.5619
28521W        W44330  18.077   8.560  11.611 -0.0445 -0.0126 -0.1148
28522W        W44331   9.943   1.215  11.458 -0.0906  0.3166 -0.0991
28523W        W44332   0.503  17.419  13.223  0.0576  0.0861  0.1729
28524W        W44333   8.169  15.919   5.613  0.0330 -0.2954  0.0352
28525W        W44334   7.254  18.188  12.692  0.0038 -0.0100 -0.1712
28526W        W44335   4.820   4.614  13.889  0.0360 -0.0877  0.1225
28527W        W44336  16.071   4.065   3.892  0.2449  0.2568 -0.0259
28528W        W44337  13.378   2.120  11.701 -0.1321 -0.0454  0.0256
28529W        W44338  14.098   3.194  13.954  0.0866  0.0531  0.0132
28530W        W44339   1.981   4.668   1.188  0.2840 -0.1126  0.4073
28531W        W44340   9.015   4.951  14.994  0.2839 -0.3401  0.0633
28532W        W44341   6.437   1.048   2.827 -0.2526 -0.0927  0.2094
28533W        W44342   9.395  12.320   1.274  0.0305 -0.0358  0.2447
28534W        W44343   3.809  10.073   4.824 -0.0969  0.2513 -0.0539
28535W        W44344   5.967  18.381  13.926  0.0108 -0.2492  0.1951
28536W        W44345   2.023   5.417   0.856  0.0676 -0.0866 -0.0136
28537W        W44346  11.749   0.277  14.452  0.3069  0.0245  0.0486
28538W        W44347   7.025  12.013  13.222  0.0216  0.0184 -0.1583
28539W        W44348   0.007  17.424  13.210  0.0159  0.3270 -0.2516
28540W        W44349  14.169  10.195   2.003  0.1187 -0.0754 -0.0265
28541W        W44350   1.981  16.382   4.466 -0.1786  0.2202 -0.0947
28542W        W44351   5.849   4.878   3.215 -0.0009 -0.1127  0.0212
28543W        W44352   3.123  17.916  10.871  0.2322  0.0930  0.0263
28544W        W44353  10.623  11.249   5.160  0.1605  0.2946 -0.0524
28545W        W44354  13.849  14.525   4.162  0.4501 -0.1758  0.2189
28546W        W44355   6.605   0.955  15.091  0.2400 -0.1969  0.0702
28547W        W44356  12.148   6.302   5.499  0.2705  0.2122 -0.1864
28548W        W44357   7.656   5.103   0.620  0.0917  0.1233  0.2323
28549W        W44358   7.583   2.951  12.565 -0.2476  0.0100 -0.2435
28550W        W44359   4.387  12.648  10.948 -0.4724  0.3023  0.0496
28551W        W44360   1.306   3.339   4.135 -0.2253  0.1713  0.4984
28552W        W44361  12.374  16.866   3.949  0.0919 -0.0319 -0.0889
28553W        W44362   6.486  11.687   0.145  0.1784 -0.2156 -0.0838
28554W        W44363  17.075  12.933  12.327 -0.0242 -0.2890 -0.2655
28555W        W44364   2.357  17.610   3.006 -0.1237 -0.2734 -0.0126
28556W        W44365  13.713   1.571   1.931  0.0582 -0.0042 -0.0731
28557W        W44366  15.168  11.140  15.315 -0.1440 -0.1938 -0.2723
28558W        W44367   8.599   6.095  13.146  0.0161 -0.1990 -0.0791
28559W        W44368   3.451  16.493   2.441 -0.3028  0.1941  0.0338
28560W        W44369  16.230   0.379   3.798 -0.1015  0.0986 -0.1454
28561W        W44370  10.844   6.299   3.290  0.0595  0.1219 -0.2923
28562W        W44371   5.948   0.145   2.094 -0.2284  0.0416 -0.0816
28563W        W44372   8.595  12.798  11.726  0.1553 -0.0596 -0.3899
28564W        W44373   4.711  13.212  11.426  0.1020  0.2321 -0.4553
28565W        W44374  17.819  15.278  12.917  0.1080  0.0353  0.0421
28566W        W44375  15.075   3.841   0.288 -0.0830  0.1401 -0.1053
28567W        W44376  15.474  10.777  15.164  0.3541 -0.1834  0.3390
28568W        W44377   4.725   9.206   4.089  0.3437  0.0442 -0.0839
28569W        W44378  15.736  16.763  14.803  0.0849  0.0943 -0.5077
28570W        W44379  17.687   5.765   0.622 -0.0203 -0.1030 -0.0365
28571W        W44380  11.328  15.082  11.927  0.3097  0.0645  0.1791
28572W        W44381   6.909  12.899  10.594 -0.0010  0.1628 -0.1392
28573W        W44382  18.473   0.697   3.380 -0.1387  0.1396 -0.1196
28574W        W44383   6.297   5.575   0.640 -0.0178  0.0595  0.1123
28575W        W44384   9.461  10.391   3.189 -0.4235 -0.1912 -0.2168
28576W        W44385  14.678   0.063   2.224 -0.0828 -0.0357 -0.0982
28577W        W44386   1.405  16.313   9.601 -0.0516 -0.2175  0.2711
28578W        W44387  16.214  16.014  13.165 -0.1551 -0.4108 -0.1219
28579W        W44388   1.560  11.352  11.599  0.1499  0.1568 -0.1292
28580W        W44389   2.314   9.385  15.531  0.1532 -0.1144  0.0736
28581W        W44390   2.585   2.904  13.063 -0.0346 -0.3129 -0.1744
28582W        W44391  12.803   4.280  11.306  0.1130  0.1647 -0.1324
28583W        W44392  11.122  16.097  13.354  0.0389 -0.0985  0.1402
28584W        W44393  12.120  15.058   4.694  0.1809  0.0068 -0.0381
28585W        W44394   4.707   3.379  10.724 -0.3609 -0.0409  0.0529
28586W        W44395   7.997  18.654  15.589  0.0467  0.2230 -0.2881
28587W        W44396  15.438  12.716  15.076 -0.2259  0.2183 -0.1447
28588W        W44397  16.241   1.946  13.228  0.2403 -0.2496  0.3486
28589W        W44398  18.434  14.157   2.491 -0.1563  0.1119 -0.2529
28590W        W44399  12.514   5.674  11.427 -0.1003  0.2153  0.2815
28591W        W44400   7.627  10.687  13.188 -0.0719  0.4405  0.1389
28592W        W44401   4.280   9.589   2.958 -0.1694 -0.0774  0.0260
28593W        W44402   7.911   2.737   3.840  0.0117  0.2112 -0.0994
28594W        W44403  16.502  17.739   2.629  0.0261  0.3596 -0.1635
28595W        W44404  11.143   0.052   1.798  0.0879  0.1869 -0.1195
28596W        W44405  12.401   9.604   6.184 -0.0339 -0.1061  0.1908
28597W        W44406   4.394   4.314  11.894  0.2933  0.0763 -0.1556
28598W        W44407  17.619  12.306  15.464 -0.0903  0.0767 -0.3552
28599W        W44408  14.694  11.133  12.378  0.1122  0.0535  0.3849
28600W        W44409   5.879  11.531   4.821  0.2420  0.1844  0.1135
28601W        W44410  13.317  18.508   3.500  0.2753 -0.0068  0.0615
28602W        W44411  18.470  12.048   0.990  0.0789 -0.1623 -0.1182
28603W        W44412  10.165   3.637  11.279  0.0992  0.2839 -0.1971
28604W        W44413   8.562  13.677   3.424  0.1576  0.1180  0.0395
28605W        W44414   3.489   0.225   4.384  0.1368  0.0747 -0.3663
28606W        W44415   6.698  13.604   5.668 -0.3518 -0.1674  0.3504
28607W        W44416  15.170   5.571  12.890  0.0865 -0.0639 -0.0344
28608W        W44417   5.821  17.493   1.104  0.1271  0.0197  0.0168
28609W        W44418  17.753  16.795  14.884 -0.1467 -0.1153 -0.0599
28610W        W44419  12.956  18.445  12.739 -0.0709  0.0544 -0.1357
28611W        W44420  18.035  17.002   2.745  0.1340  0.0659  0.4953
28612W        W44421   5.989  15.788   1.618 -0.0258 -0.0106 -0.0777
28613W        W44422  17.141  11.658  14.975  0.1143  0.1007  0.1489
28614W        W44423  17.501   8.441   1.328 -0.0434  0.1453 -0.0719
28615W        W44424  11.497   0.715   4.992 -0.3894  0.3644  0.1521
28616W        W44425  13.187   6.743   4.867 -0.1175  0.1750  0.0868
28617W        W44426  15.842   9.355   3.811  0.2705 -0.1686  0.3281
28618W        W44427   1.274   9.832  14.940 -0.0606  0.0566  0.0492
28619W        W44428   2.429   8.792   9.863 -0.1179  0.1963  0.1224
28620W        W44429   7.726   9.818   1.533 -0.0002  0.1854  0.0007
28621W        W44430   7.942  16.041  14.749  0.1959  0.1131  0.1836
28622W        W44431   8.409  14.645   0.039 -0.0405  0.1280  0.2094
28623W        W44432  12.250   9.414   0.096 -0.0424 -0.1465 -0.3682
28624W        W44433  11.537   8.318   3.783  0.0239  0.1785 -0.3750
28625W        W44434   1.071  16.340  13.821  0.4011 -0.1984  0.0654
28626W        W44435   8.377  13.318  12.817  0.3781 -0.1515 -0.0331
28627W        W44436   8.918   0.560  12.696 -0.0543 -0.0361  0.2319
28628W        W44437   6.250  17.495   4.415 -0.0571 -0.1099  0.0567
28629W        W44438   4.905  14.464   2.418 -0.2008  0.0236  0.2574
28630W        W44439  14.160   5.771   1.501  0.0542 -0.1056 -0.1725
28631W        W44440  15.352   8.379   1.665  0.0312 -0.0362  0.0637
28632W        W44441  17.554  16.176  11.548 -0.0833 -0.0839 -0.0416
28633W        W44442  16.930   5.946   8.988  0.0883  0.4235 -0.2256
28634W        W44443  18.074   7.154  13.038 -0.2952  0.1007  0.0508
28635W        W44444   6.166  14.305   5.368  0.0902  0.0298 -0.2836
28636W        W44445   3.760   7.284   4.599  0.1421  0.0899  0.0090
28637W        W44446  16.081   3.157  10.756  0.2781  0.0391  0.0963
28638W        W44447  15.572  16.170  11.533 -0.1096  0.3051  0.0832
28639W        W44448   0.596   1.983   4.079  0.0769  0.0778 -0.0551
28640W        W44449   9.720   1.112  12.914  0.0136 -0.1172  0.0183
28641W        W44450  10.295  17.849  14.567 -0.0173 -0.3856  0.0459
28642W        W44451   1.685  14.828   3.502 -0.5145 -0.1146 -0.1813
28643W        W44452  11.410  16.463  11.933  0.1442  0.2123 -0.2685
28644W        W44453  17.675   6.408   1.105 -0.2219 -0.2093 -0.2052
28645W        W44454   2.348   7.043   1.878 -0.1880 -0.1980 -0.2284
28646W        W44455   6.049  11.873   6.143  0.0065  0.0510  0.0938
28647W        W44456  11.700   0.949   2.385 -0.1068  0.1707 -0.0954
28648W        W44457   1.008   9.304  12.869  0.1244  0.4196 -0.0208
28649W        W44458   6.371  11.140  14.273 -0.0927  0.1598 -0.3759
28650W        W44459   9.958  10.129   2.769 -0.1623 -0.0745 -0.0032
28651W        W44460  16.077  14.567   1.418  0.0505  0.1061  0.0829
28652W        W44461  13.462  17.463   3.768 -0.1458 -0.3300  0.4016
28653W        W44462  12.362   6.946  11.457 -0.1124 -0.3571 -0.1275
28654W        W44463   7.039  11.225   0.354  0.3188  0.1988 -0.0586
28655W        W44464  11.345  15.221  12.906  0.2587 -0.0404  0.0878
28656W        W44465  13.489  15.901   0.898  0.0739  0.0566  0.1171
28657W        W44466  11.388  15.566   2.339  0.1518 -0.2030  0.0227
28658W        W44467   3.484   4.493  14.698 -0.1469 -0.0215 -0.2864
28659W        W44468   2.111   5.412   1.707 -0.2047 -0.2317  0.1440
28660W        W44469  17.996  16.990   4.348  0.3104  0.3160 -0.1052
28661W        W44470  15.501   5.669   3.941 -0.1695 -0.1130 -0.3363
28662W        W44471  16.135  16.415  10.500 -0.0289 -0.0956 -0.0288
28663W        W44472   6.398   9.439   4.416  0.3095  0.2202 -0.2865
28664W        W44473   7.064  17.090   5.016 -0.1152  0.1613 -0.0075
28665W        W44474  11.756  16.853   4.808  0.0208  0.0528  0.1358
28666W        W44475  10.939   7.264   1.873  0.1257 -0.1662 -0.1129
28667W        W44476   6.454  12.421  14.661  0.0352  0.2440  0.3200
28668W        W44477   6.964   9.549   0.152  0.5560  0.2574  0.1667
28669W        W44478  15.236   4.259  15.587  0.0444  0.4189  0.1035
28670W        W44479   9.632   8.070  13.075 -0.0476  0.1579 -0.0100
28671W        W44480   0.957   5.598   5.225  0.0428 -0.0464 -0.1414
28672W        W44481   8.955  13.839   5.248  0.1070  0.1146  0.1879
28673W        W44482   2.160   6.732  11.057  0.1568 -0.2193  0.0071
28674W        W44483  10.152  10.797  13.113 -0.1400  0.1839 -0.0766
28675W        W44484   1.129   2.127   4.646  0.2611 -0.0319  0.1675
28676W        W44485   0.432   6.680   2.024 -0.0183  0.0493  0.1668
28677W        W44486   9.341  17.224  11.900  0.2222  0.1069 -0.2249
28678W        W44487   7.800  10.941   4.568  0.0024  0.1712  0.0292
28679W        W44488   9.968   7.128   3.059 -0.0513  0.1155  0.0322
28680W        W44489   4.034   0.407  12.404  0.1637  0.0524 -0.0742
28681W        W44490   5.003  17.047   4.620 -0.2042  0.3092 -0.0743
28682W        W44491  15.290   9.693  14.441 -0.0891 -0.0435  0.0448
28683W        W44492  10.810   9.659  15.521 -0.2857 -0.0602 -0.0694
28684W        W44493  14.665   9.939   2.634  0.0759  0.0544 -0.1337
28685W        W44494  11.952  15.653  14.511  0.1649  0.0692 -0.0702
28686W        W44495  11.590  14.590   5.874 -0.2056 -0.0125 -0.1676
28687W        W44496   3.585   6.640  14.009 -0.0423  0.0204 -0.1025
28688W        W44497   3.765   5.405  15.414 -0.2004 -0.0742 -0.1919
28689W        W44498   4.356  15.458   5.208 -0.1789 -0.1932 -0.1499
28690W        W44499   4.454   2.238   2.517 -0.1899 -0.1342  0.2218
28691W        W44500   7.728   8.994   4.217  0.1633 -0.1254  0.1856
28692W        W44501   2.143  15.461   4.113 -0.0926  0.1260  0.2033
28693W        W44502  13.570  11.231  13.501  0.0522  0.0529 -0.2948
28694W        W44503  12.162   3.721   0.079  0.0966 -0.1957 -0.0109
28695W        W44504  18.375  10.048  13.024 -0.1452  0.4274 -0.2917
28696W        W44505   2.040   2.498  15.489  0.0189 -0.1509 -0.4132
28697W        W44506  11.427  15.810   0.430  0.1649  0.1852  0.2022
28698W        W44507  13.810   8.447   3.269 -0.4635 -0.0833  0.2090
28699W        W44508   6.392   7.253  14.564  0.1664  0.2126 -0.0185
28700W        W44509  10.845   1.941  15.111 -0.1939  0.0928  0.0170
28701W        W44510   3.825  17.295  13.634  0.0523  0.2554  0.0044
28702W        W44511   5.357  12.333  15.159 -0.0827  0.0225 -0.0608
28703W        W44512   9.355  14.487   2.805 -0.1681 -0.0369  0.0308
28704W        W44513   8.533  17.480   1.865 -0.2317 -0.0734 -0.4467
28705W        W44514   4.614  15.645  13.438 -0.2909  0.1455  0.1093
28706W        W44515  17.748   8.749  14.600  0.3042 -0.1692 -0.4337
28707W        W44516  12.653   0.135   0.959 -0.2583  0.1362  0.4855
28708W        W44517  16.408  17.417  12.592  0.3131  0.2202  0.1235
28709W        W44518  12.535   8.133  12.901 -0.2189 -0.0838  0.0072
28710W        W44519   9.225  14.005  13.831 -0.1500  0.0301 -0.0243
28711W        W44520  14.682  18.337   0.407 -0.0782  0.1017 -0.2228
28712W        W44521  12.503  11.915  13.474  0.2599 -0.0349  0.1139
28713W        W44522  12.344  13.380   4.121  0.0484 -0.1183  0.0086
28714W        W44523   5.659   0.777  13.972 -0.0898 -0.3483 -0.0195
28715W        W44524   6.585  13.830  11.698 -0.0277  0.0750  0.0875
28716W        W44525   0.035   1.213   2.057 -0.0602  0.0522 -0.6243
28717W        W44526  10.887   4.275   0.056 -0.1087  0.0770  0.0086
28718W        W44527   8.206  14.103   1.752 -0.3437  0.0166 -0.0173
28719W        W44528  16.089  13.214   3.569 -0.0106 -0.4083  0.0033
28720W        W44529  11.303  16.522   2.266  0.3123 -0.1135 -0.0656
28721W        W44530   5.403   6.600  11.951  0.0204 -0.4512 -0.0373
28722W        W44531  15.603   6.499  13.302 -0.4006  0.0403  0.1061
28723W        W44532  10.873  16.832  14.967 -0.3010 -0.0483 -0.2940
28724W        W44533  16.367   2.433  15.075  0.2223 -0.1384  0.0587
28725W        W44534   1.055  10.299   2.420  0.0503 -0.1689  0.2206
28726W        W44535   0.256   2.746  11.856  0.0151  0.2301 -0.2063
28727W        W44536   1.819   8.591   2.530 -0.0795 -0.1406  0.1023
28728W        W44537   9.848  12.727  15.208 -0.1238 -0.1611 -0.2050
28729W        W44538  15.480   3.179   4.760 -0.0297  0.1869  0.1171
28730W        W44539   1.505  11.383   4.384 -0.1747 -0.1562 -0.3985
28731W        W44540   6.862   3.580   1.716 -0.1950  0.1315 -0.0167
28732W        W44541  15.037  17.771   2.281  0.1617  0.0089 -0.2184
28733W        W44542   5.596   3.443   1.141 -0.1039 -0.0103  0.2033
28734W        W44543   7.800   3.212   1.812 -0.0381  0.1575  0.1962
28735W        W44544  15.202  10.468   0.448 -0.0688  0.0093 -0.0198
28736W        W44545  12.244   0.914   0.789  0.1839  0.2612  0.1730
28737W        W44546  11.638  15.443   1.980 -0.2068  0.2491  0.2160
28738W        W44547   8.305   0.702   1.629  0.2158 -0.3945 -0.3100
28739W        W44548  17.917   9.664   2.750  0.0000 -0.0630  0.1074
28740W        W44549  12.582   4.608   4.281  0.1734 -0.1096 -0.4224
28741W        W44550  17.878  11.805   1.084 -0.1031 -0.1092 -0.1840
28742W        W44551  17.737  17.531   4.799  0.1024  0.1382 -0.0349
28743W        W44552   8.372  13.707  13.920 -0.0019 -0.1459  0.0653
28744W        W44553  15.682   5.359  13.959 -0.0380  0.2308 -0.0293
28745W        W44554  15.020  15.968   1.747 -0.2239  0.2787  0.0713
28746W        W44555   5.027   7.891  14.883  0.0620  0.3261 -0.3442
28747W        W44556  12.700   3.680  15.513 -0.2074 -0.0785  0.0669
28748W        W44557   5.012  11.056  10.918  0.3739 -0.0935  0.1053
28749W        W44558  10.916  10.923  12.078 -0.2854  0.0147  0.0825
28750W        W44559   5.068   0.959   4.459 -0.0490  0.0815  0.1259
28751W        W44560  18.574  14.555   1.587  0.4617  0.5275  0.1848
28752W        W44561  10.640   6.214   3.725 -0.2850 -0.3744 -0.0950
28753W        W44562   6.190   4.771   3.822 -0.0581  0.1317 -0.0710
28754W        W44563  14.921   5.527  13.386 -0.0109  0.0550  0.3426
28755W        W44564   6.442  13.433  13.511 -0.2288  0.3228  0.2787
28756W        W44565  17.517  10.098  15.428 -0.1236  0.5006  0.0299
28757W        W44566  14.188   3.052  12.695  0.0689  0.1524 -0.0700
28758W        W44567  11.300  18.075   1.237 -0.3863  0.3668 -0.2807
28759W        W44568  13.374   4.203   1.449 -0.2663  0.0995 -0.0091
28760W        W44569   9.441   4.336   5.959  0.1442 -0.1046  0.0738
28761W        W44570  15.057   1.678  13.661 -0.3630 -0.2293  0.0392
28762W        W44571   8.677   6.166  14.508  0.4646  0.4384 -0.0235
28763W        W44572   4.053  13.798  11.440  0.1719  0.3158 -0.1381
28764W        W44573   5.018   9.431  15.560 -0.0045 -0.1800 -0.1836
28765W        W44574   8.413  13.004   5.081 -0.0969  0.0355 -0.0723
28766W        W44575  17.889  10.989  14.885 -0.0558 -0.0423  0.3424
28767W        W44576   2.588  13.283  13.693 -0.1349 -0.1843 -0.0217
28768W        W44577  10.791   6.348   1.646 -0.0528 -0.1657 -0.0071
28769W        W44578  10.951   6.897  14.020 -0.0478 -0.0011  0.0043
28770W        W44579   1.631  16.201   0.110  0.0834  0.1687 -0.0251
28771W        W44580  11.896   1.504   1.081 -0.0249 -0.2224  0.0738
28772W        W44581   1.087   2.988   0.604  0.0748  0.2543 -0.2187
28773W        W44582   2.143  11.753   2.432 -0.2586 -0.1891 -0.1082
28774W        W44583  16.486  15.711  15.287 -0.0845 -0.3260  0.2453
28775W        W44584  17.718   0.024   3.723  0.2484  0.1980  0.1302
28776W        W44585   3.550  11.879   2.368 -0.2852  0.0809  0.2145
28777W        W44586  13.634  10.602   0.454 -0.3995 -0.1167  0.1289
28778W        W44587   0.639  18.578   5.780  0.3433 -0.2916 -0.2295
28779W        W44588  12.652   5.667   2.031  0.1733  0.3957 -0.2059
28780W        W44589   7.222  14.471   1.814 -0.1528  0.0572 -0.0914
28781W        W44590   2.943  17.018  13.490  0.1463  0.0461  0.1367
28782W        W44591  13.569   0.576   2.305 -0.1633  0.1508 -0.0425
28783W        W44592   0.983   2.618  12.629 -0.1641  0.0600 -0.0334
28784W        W44593   7.681   2.890  13.456 -0.0783  0.1364 -0.0287
28785W        W44594   7.934   3.931  14.519  0.0622 -0.1736  0.2357
28786W        W44595   7.606   1.457   2.569  0.1338 -0.2313 -0.5425
28787W        W44596  16.312  11.107   0.229  0.0609  0.0034 -0.0205
28788W        W44597  10.054  11.035   0.342 -0.0587  0.1069 -0.1455
28789W        W44598  18.036  11.747  12.463  0.2274  0.2067  0.0403
28790W        W44599   4.884  12.050  15.086  0.1702 -0.3002  0.0890
28791W        W44600  12.133  17.308  14.636 -0.0606 -0.2103 -0.2209
28792W        W44601   4.035   9.565   2.084  0.0263  0.3056 -0.1877
28793W        W44602   0.165   8.741   9.322  0.1205 -0.2440  0.0007
28794W        W44603   2.843   7.845   1.075 -0.0371 -0.1345 -0.0493
28795W        W44604   0.050  17.655   2.463  0.1384  0.3077  0.1732
28796W        W44605   6.682  12.168   3.715 -0.0598  0.2527  0.2128
28797W        W44606   1.576   3.992   2.967 -0.0306 -0.2610 -0.0751
28798W        W44607   5.364   2.747  14.806 -0.1703 -0.0257 -0.2354
28799W        W44608  12.222  15.224  14.599 -0.0601  0.4115 -0.0866
28800W        W44609  11.215   0.138   4.378  0.0421  0.0571  0.3626
28801W        W44610   3.723   6.603   2.246 -0.0382 -0.0348  0.0045
28802W        W44611  17.232  11.999  12.201  0.0834  0.0924  0.0202
28803W        W44612  17.636   5.600   3.116 -0.4532 -0.0003  0.1233
28804W        W44613   0.104   6.933   2.551  0.1344 -0.1295  0.2236
28805W        W44614  18.090   1.583  11.581 -0.0778  0.0964 -0.2131
28806W        W44615   3.784  11.441  14.501  0.2683  0.0024 -0.0143
28807W        W44616  16.864  10.800   2.689  0.2035  0.0359  0.3063
28808W        W44617  18.279  13.889   0.291  0.3366  0.2420  0.0060
28809W        W44618  18.321  13.442  10.140  0.0240 -0.1862 -0.0244
28810W        W44619  13.720   1.123   1.143 -0.0927  0.0131  0.1138
28811W        W44620   4.660   4.552  13.306 -0.2496 -0.1104 -0.0997
28812W        W44621   4.137   4.001   0.686  0.0395  0.0520 -0.2239
28813W        W44622   2.614  17.305   1.735  0.4564  0.4938 -0.1639
28814W        W44623  15.474   9.521   0.826 -0.0841  0.2209  0.0707
28815W        W44624   9.982  18.366   4.863  0.1087  0.1176 -0.2590
28816W        W44625   2.342   8.963  14.918 -0.2459  0.0297 -0.0826
28817W        W44626  10.841   8.569   3.061  0.0673  0.1027 -0.3243
28818W        W44627  10.054   3.830   2.224  0.1103  0.1356 -0.1291
28819W        W44628   8.808   4.304   4.018 -0.1127  0.0714  0.3935
28820W        W44629  16.205   8.552  12.540  0.2822  0.0870  0.0748
28821W        W44630   5.664  18.006   2.025  0.0181 -0.5230 -0.3388
28822W        W44631   3.435   2.919   1.092  0.1119  0.3232 -0.0458
28823W        W44632   6.426  14.859  12.993  0.2164 -0.1949 -0.1016
28824W        W44633   7.420  15.691   4.783 -0.2823  0.1703 -0.1640
28825W        W44634  11.223   6.860   5.925  0.1701 -0.0027 -0.1120
28826W        W44635  10.029  17.746   4.863  0.1220  0.1413  0.1819
28827W        W44636  16.930   1.075  15.484 -0.2076  0.2758 -0.1011
28828W        W44637   0.303   3.813  14.905 -0.0837  0.1769  0.4035
28829W        W44638   5.588   0.994   4.430  0.0921  0.3004 -0.0764
28830W        W44639  10.214  12.460   0.271 -0.0757 -0.1647 -0.0211
28831W        W44640   1.255   0.065  13.590 -0.1402  0.2552  0.2845
28832W        W44641   2.385   9.195  14.467 -0.3075 -0.3480  0.0599
28833W        W44642  13.151  16.191   3.556  0.0229  0.0455 -0.1056
28834W        W44643  16.026   1.245  11.542 -0.0985  0.0376  0.0605
28835W        W44644  10.879  10.389   2.390 -0.0087  0.0233 -0.1877
28836W        W44645  14.598  15.604  11.487  0.1748  0.1084 -0.0713
28837W        W44646   9.698   1.705   2.962 -0.0641  0.1418  0.0708
28838W        W44647   5.600   7.305  13.055  0.0744  0.2795 -0.2870
28839W        W44648   3.730  17.342   3.379 -0.2458  0.1229  0.1907
28840W        W44649   9.725   6.525  12.640  0.0863 -0.1833 -0.0303
28841W        W44650  11.198   1.619  11.691 -0.3032 -0.1240 -0.1107
28842W        W44651  18.476   2.456  14.601  0.3027 -0.1797 -0.2443
28843W        W44652   0.972  11.650  11.740 -0.1477  0.0995 -0.2260
28844W        W44653  15.668  15.088   3.827 -0.1721 -0.1382 -0.2368
28845W        W44654   1.892  14.275  15.375  0.2589 -0.0703  0.4739
28846W        W44655   4.298   1.708  13.279 -0.1330  0.0836  0.1375
28847W        W44656  17.239  14.598  15.434  0.2145 -0.1077  0.3223
28848W        W44657   5.515   0.120   4.805 -0.0000 -0.0784 -0.1879
28849W        W44658  11.115   9.446  14.750 -0.1483  0.0561  0.0804
28850W        W44659   6.189   6.943   4.235 -0.3963  0.1774  0.1808
28851W        W44660  10.606  11.731   0.817 -0.1070  0.0892 -0.0126
28852W        W44661  16.830   0.434  11.417  0.1416  0.2846  0.1624
28853W        W44662  13.927   6.422  13.155  0.2315  0.0811  0.0638
28854W        W44663   4.827  14.692  12.240  0.1223 -0.1805  0.0296
28855W        W44664  14.174  10.459  13.148 -0.3459  0.4095  0.0546
28856W        W44665  10.785   7.925   4.262 -0.2086 -0.1106  0.2546
28857W        W44666  11.503  15.566   4.835 -0.4341 -0.2457 -0.0299
28858W        W44667  12.387   6.446  11.590 -0.0513 -0.1450 -0.1225
28859W        W44668   9.413  17.949  11.085  0.0392  0.1528  0.0843
28860W        W44669  11.617  11.259  11.815  0.1177 -0.1818 -0.2663
28861W        W44670  12.136  12.263   1.955 -0.3393  0.0080 -0.0601
28862W        W44671  13.499   6.387   1.072 -0.0391 -0.2738  0.1977
28863W        W44672   7.049   4.764  12.920  0.1526  0.2356  0.1327
28864W        W44673  11.760  17.196   0.082  0.1833 -0.0746  0.1647
28865W        W44674   6.088   1.157   1.115 -0.1744  0.2654  0.2223
28866W        W44675   9.981  18.173   0.944  0.2170  0.0606 -0.1467
28867W        W44676   4.088  13.617   2.542 -0.1489  0.2203 -0.0464
28868W        W44677   3.737  16.818  15.341  0.1106 -0.0212 -0.1224
28869W        W44678   2.610  14.641   4.948  0.0398  0.3595 -0.0385
28870W        W44679  17.615   8.070   0.555  0.0461  0.0299  0.1103
28871W        W44680  17.209   5.134  12.639  0.0693  0.2307  0.2759
28872W        W44681   4.423   1.938  11.171 -0.0989 -0.1727 -0.0253
28873W        W44682   8.068  15.562  15.096 -0.0633 -0.0160 -0.5261
28874W        W44683  16.429  12.882  13.227  0.0070  0.1789 -0.0505
28875W        W44684  18.645   0.239   4.545  0.1620  0.0113 -0.0930
28876W        W44685  15.059   2.602   2.648  0.0403 -0.1725 -0.2192
28877W        W44686  12.645  14.542   1.642 -0.2683  0.0535 -0.1491
28878W        W44687  12.607  10.022   0.921  0.0678 -0.2251 -0.2400
28879W        W44688   6.461   4.100   4.969 -0.0404 -0.0068  0.0886
28880W        W44689  10.606  15.524   5.239  0.0507 -0.0984  0.3547
28881W        W44690   3.727   1.539   4.529 -0.1028  0.3648 -0.0836
28882W        W44691   7.004  13.314  11.269 -0.0098  0.2040 -0.2828
28883W        W44692   2.804  10.675  14.564  0.0057 -0.2118  0.2798
28884W        W44693  15.278   7.569  11.589 -0.2041 -0.1505 -0.2248
28885W        W44694  16.400   9.558  14.818 -0.1651 -0.1448 -0.0086
28886W        W44695   0.399  14.701  11.237  0.3512  0.0135 -0.0863
28887W        W44696  17.070   7.938  15.428  0.6123  0.2855 -0.0733
28888W        W44697   1.000  13.011  12.042 -0.1158 -0.2132  0.4042
28889W        W44698   4.515   6.013   0.575  0.1735  0.4529 -0.3250
28890W        W44699   7.555  15.965   4.382  0.0261 -0.2346  0.0385
28891W        W44700  13.839   8.593  11.206 -0.0317  0.0825 -0.1113
28892W        W44701  10.534  18.058   3.661  0.0454 -0.2105  0.0478
28893W        W44702   7.988  10.537   2.562 -0.0811  0.1627 -0.0246
28894W        W44703  13.733   5.108   0.924  0.0083  0.0708  0.3788
28895W        W44704   4.415   8.859   1.083 -0.0975  0.0242 -0.2197
28896W        W44705   5.796  11.215   1.271 -0.1343 -0.0349 -0.1229
28897W        W44706  12.828   6.608   2.324  0.1300  0.0279  0.2535
28898W        W44707  17.954   2.273   2.664  0.2084  0.2061  0.2749
28899W        W44708  14.919  17.313   0.095  0.3661  0.2148 -0.0523
28900W        W44709  17.144  16.131  10.579  0.1133 -0.1445 -0.0356
28901W        W44710  13.635   1.205  15.192  0.0880 -0.1131  0.1965
28902W        W44711  18.140  11.932   2.577  0.1558  0.1396 -0.1515
28903W        W44712  16.292   5.272   3.472 -0.0671 -0.1482  0.0120
28904W        W44713  14.135  16.315   2.660 -0.1034 -0.0035  0.2021
28905W        W44714  15.817   5.837  15.549 -0.0693 -0.2095  0.1580
28906W        W44715  18.440  15.568  13.410  0.0858  0.3717  0.2150
28907W        W44716   7.221  12.896   1.580  0.2718 -0.1290 -0.2046
28908W        W44717   2.621  16.881   4.824  0.0941 -0.2493 -0.0962
28909W        W44718   9.825   2.229   0.802 -0.1945  0.1064 -0.1134
28910W        W44719  14.368  16.740   1.402  0.2558 -0.1916 -0.1894
28911W        W44720  14.550  17.645   0.066 -0.0347 -0.2682  0.0177
28912W        W44721  10.638  18.209  15.409  0.2077 -0.1457  0.0860
28913W        W44722   5.917  14.822   0.556 -0.2070 -0.1329 -0.0888
28914W        W44723   6.532   6.544  10.974  0.0532  0.3616  0.0119
28915W        W44724   0.093  10.242   2.034  0.3524 -0.0118 -0.3160
28916W        W44725  18.343  12.066   4.226 -0.1393 -0.3749  0.3352
28917W        W44726   4.709   6.633  13.940 -0.0614 -0.2004 -0.3524
28918W        W44727   4.343   6.321  10.705  0.2591 -0.0455  0.0671
28919W        W44728  17.666   4.906   3.963  0.1378  0.2406 -0.1278
28920W        W44729   6.881  12.366   5.679 -0.1033 -0.1243 -0.1187
28921W        W44730  12.236  15.456   3.060 -0.2761  0.2325 -0.1150
28922W        W44731  15.794   8.769  12.282 -0.1019  0.0430  0.1302
28923W        W44732  17.725   0.673  11.668  0.0055 -0.1148 -0.0600
28924W        W44733  15.272   8.740   2.210  0.0033  0.0851  0.1322
28925W        W44734  17.747  12.701  10.612 -0.0939  0.1410 -0.1382
28926W        W44735   1.823   9.936   3.225  0.2853 -0.1131  0.4152
28927W        W44736  11.580   0.057  11.379  0.0725 -0.1445 -0.1584
28928W        W44737  17.891  17.805  13.796  0.2729  0.1057 -0.1475
28929W        W44738  11.923   9.430   4.916 -0.2910  0.0167 -0.2880
28930W        W44739   6.289   8.355  14.173 -0.1065 -0.1305 -0.0656
28931W        W44740   8.922   8.880  15.296  0.1952 -0.1169  0.1002
28932W        W44741   9.950   8.919   0.474  0.0840 -0.0378  0.0161
28933W        W44742  12.793  14.161  12.876 -0.2766  0.0827  0.1447
28934W        W44743  13.948  14.329  13.378  0.1887 -0.0632  0.1007
28935W        W44744  10.418   2.420   3.509 -0.0384 -0.0097  0.1461
28936W        W44745  11.091   4.356  12.392  0.1516  0.2729  0.1903
28937W        W44746  18.422  16.444  11.057  0.0933 -0.1202  0.4594
28938W        W44747   6.251  17.499  13.127 -0.2639 -0.1137  0.1206
28939W        W44748  13.430   9.502  13.410 -0.1029 -0.2765 -0.0213
28940W        W44749  11.509   9.426   0.815 -0.2001 -0.1269  0.1851
28941W        W44750  14.338   2.364  15.439  0.1291 -0.1513 -0.1433
28942W        W44751   5.976  18.020   5.257  0.2130  0.0750  0.2728
28943W        W44752   5.202   6.284   2.257 -0.0375 -0.2112  0.0367
28944W        W44753  11.396  13.788  15.111  0.3418  0.1609  0.1782
28945W        W44754  16.576  13.656   2.268  0.0544 -0.0649 -0.1100
28946W        W44755   9.632   8.757  14.010 -0.1549  0.1958  0.1921
28947W        W44756  10.628   1.666  14.754  0.2776  0.0401 -0.1008
28948W        W44757  11.585   5.535   2.857 -0.0833  0.3597 -0.1275
28949W        W44758   9.347  12.717   0.448 -0.0620 -0.3146 -0.0216
28950W        W44759   2.840   7.164   0.272  0.1120  0.1590 -0.0554
28951W        W44760  12.996   9.273   2.959  0.1519 -0.0650  0.0129
28952W        W44761  10.458  14.542  14.782  0.0134  0.0057 -0.1491
28953W        W44762  10.897  13.741  15.130  0.1244  0.2466 -0.0888
28954W        W44763   2.575   4.458  12.829  0.1188 -0.0017  0.1711
28955W        W44764   9.791   4.768  14.373 -0.0567 -0.2731  0.3500
28956W        W44765  12.961  11.720   0.147 -0.0707 -0.0044 -0.1621
28957W        W44766   1.910   8.512  14.530  0.4128  0.0115  0.0746
28958W        W44767  17.718  16.912  12.744 -0.2007  0.0128  0.0620
28959W        W44768  10.620  12.381  14.818 -0.2450 -0.1977 -0.1607
28960W        W44769   8.127  15.860   1.374  0.0275  0.0310 -0.0232
28961W        W44770  10.481   8.957  13.734  0.1062 -0.0923  0.0821
28962W        W44771   6.688  17.813   4.396 -0.0087  0.1290 -0.0022
28963W        W44772  11.431  16.183   1.131  0.1137 -0.2875  0.2827
28964W        W44773  10.334   9.951   0.218  0.0436 -0.0798  0.1015
28965W        W44774   0.890  16.616  13.398  0.1687  0.0183 -0.1151
28966W        W44775   4.798  14.001   2.373 -0.1787 -0.3289  0.0644
28967W        W44776  17.279   1.239  12.207 -0.0561 -0.3567 -0.0919
28968W        W44777   1.978  12.464  14.259  0.1494 -0.2532 -0.1284
28969W        W44778  18.191  12.060  12.923 -0.1616  0.5330  0.1719
28970W        W44779  15.156   2.900  15.517  0.0754  0.0842  0.0294
28971W        W44780  18.648  12.855  13.819 -0.0439 -0.0600 -0.1509
28972W        W44781   1.016   1.654   0.888  0.0096 -0.1488  0.0176
28973W        W44782  13.277   3.629   3.571 -0.1293 -0.0659  0.1402
28974W        W44783   3.505   7.897  15.007 -0.1386 -0.4353 -0.2458
28975W        W44784   4.474   6.426   3.101 -0.1438  0.0262  0.2184
28976W        W44785   0.513   7.843  10.974 -0.0596 -0.1517 -0.1350
28977W        W44786  16.758  14.884  12.308 -0.1854  0.0252 -0.0981
28978W        W44787   7.159   0.415  13.368  0.1493 -0.2269  0.1314
28979W        W44788  10.617  14.172   4.613 -0.0312  0.1263 -0.0646
28980W        W44789  15.027  13.787   5.515  0.0332 -0.1515 -0.1464
28981W        W44790  13.399   5.893   4.593  0.1827 -0.0433 -0.1083
28982W        W44791   4.293  16.192  12.591  0.4137 -0.0555  0.0990
28983W        W44792   3.814  11.887   5.406 -0.1712  0.3644 -0.1773
28984W        W44793   4.910  11.871   4.800  0.2186 -0.2791 -0.0392
28985W        W44794   3.601   3.919   3.842 -0.1462 -0.0495  0.2410
28986W        W44795  15.303   2.896  11.382 -0.2099 -0.0295 -0.0424
28987W        W44796   5.093   9.733   1.107 -0.2731  0.1058  0.0575
28988W        W44797   1.234  18.389  11.450 -0.0588  0.0049 -0.0061
28989W        W44798   3.498  14.100  12.184 -0.0134  0.0446 -0.0797
28990W        W44799   7.174  11.161  15.457  0.2649 -0.0293  0.0203
28991W        W44800   9.249  15.635   2.188 -0.0191 -0.0000 -0.1454
28992W        W44801  15.153  10.067   2.672  0.0706  0.2969  0.2433
28993W        W44802  17.818   3.488  13.696  0.1504 -0.0915  0.3945
28994W        W44803   5.557   1.333   1.107  0.3900 -0.1712 -0.1874
28995W        W44804   0.045   6.470   3.832  0.0262  0.2321 -0.1720
28996W        W44805   8.029  11.765   0.102 -0.0779  0.0180  0.2200
28997W        W44806  11.667  16.129  14.235 -0.1996  0.0409  0.0244
28998W        W44807  17.490   5.555  10.968  0.0963  0.1408  0.1023
28999W        W44808   0.775   5.204  14.686  0.0068  0.1776  0.1967
29000W        W44809   4.165  11.942   3.180 -0.3692  0.1038 -0.0622
29001W        W44810  15.793  10.840   4.957 -0.0489  0.2730 -0.3233
29002W        W44811   2.762  17.288  12.144  0.5046  0.0053  0.3712
29003W        W44812  15.382  12.718   2.231 -0.2118  0.0145  0.0856
29004W        W44813   4.683  12.542   2.251  0.1348 -0.2462  0.0251
29005W        W44814  14.823  17.228  13.255 -0.0363 -0.1538 -0.0002
29006W        W44815  16.972   4.554  15.054 -0.1972  0.0098  0.0114
29007W        W44816  17.245  11.651  14.445 -0.0615 -0.1053 -0.0241
29008W        W44817  13.699   9.243  13.840  0.1357  0.1165 -0.3466
29009W        W44818   1.862  13.335  11.845  0.2605 -0.1585  0.0540
29010W        W44819   1.206   5.504   1.053 -0.1277  0.2402  0.1308
29011W        W44820   2.983  15.263   0.456  0.0371 -0.0319 -0.0877
29012W        W44821   2.543   2.144   4.146 -0.3159  0.4358 -0.0998
29013W        W44822   1.353   4.041  11.263  0.0064 -0.0235 -0.2503
29014W        W44823  10.222   5.496   9.892 -0.4573 -0.1400  0.0599
29015W        W44824   5.922   4.865   4.890 -0.0287  0.1959 -0.0032
29016W        W44825  14.699   3.642   2.484 -0.2999 -0.2588  0.0313
29017W        W44826  12.736  14.844   6.012  0.1291  0.3226  0.0137
29018W        W44827  11.421   9.096  13.821  0.2211 -0.2517  0.0290
29019W        W44828   9.314   9.927  13.235  0.1119 -0.1126 -0.1093
29020W        W44829  11.125  13.739  14.586  0.0052 -0.0535 -0.0782
29021W        W44830  15.639   1.034  10.847 -0.0175 -0.0996 -0.1458
29022W        W44831   3.983  16.145  10.716  0.0475 -0.1940 -0.0517
29023W        W44832  12.339  14.604   4.744  0.0324  0.2868 -0.0916
29024W        W44833   4.736  10.635  11.031  0.2187 -0.0187  0.2359
29025W        W44834  13.488   4.684  13.487  0.1892  0.1470 -0.0471
29026W        W44835   0.181  18.433   1.300 -0.2585 -0.0110  0.1313
29027W        W44836   4.968   7.008   2.492  0.1997  0.2834  0.0711
29028W        W44837   2.662  13.383   2.953  0.1595 -0.1674  0.0141
29029W        W44838  18.560   6.630   2.840  0.1636 -0.3349  0.2820
29030W        W44839  15.637  18.280   4.210 -0.1814 -0.1885 -0.1300
29031W        W44840  11.925  11.449   2.867 -0.2634 -0.1060  0.4086
29032W        W44841  10.201  15.420  10.464 -0.3367 -0.1734  0.1000
29033W        W44842   0.122   4.749  10.959  0.0070  0.0273  0.1201
29034W        W44843   3.456   6.356  10.500  0.1021  0.0461 -0.0749
29035W        W44844   5.517  12.627   4.221 -0.2416  0.0168 -0.0397
29036W        W44845  11.962  10.903   4.048 -0.0572  0.1065 -0.1348
29037W        W44846  12.665   6.702  12.501 -0.3350  0.1889  0.1456
29038W        W44847   2.165  11.383   3.270 -0.1352  0.0627 -0.4791
29039W        W44848  14.590  13.203   4.156 -0.0220 -0.4260  0.0627
29040W        W44849   8.773   7.327   0.300  0.1667  0.0423  0.1340
29041W        W44850  10.946   6.079  12.677 -0.2079 -0.2171 -0.0945
29042W        W44851   3.105  18.163   3.551 -0.2487 -0.3067 -0.1921
29043W        W44852  11.245  14.856  14.475 -0.1344 -0.0478 -0.2418
29044W        W44853  16.854  18.604  15.253  0.0090  0.0830  0.2272
29045W        W44854  10.158   3.932  14.691 -0.0694  0.0279 -0.2974
29046W        W44855   8.590  15.332  14.161  0.2242  0.0438 -0.0435
29047W        W44856   4.828  13.059  14.814  0.0030 -0.1440 -0.2096
29048W        W44857   4.194   9.265  12.347  0.2173 -0.0970  0.0524
29049W        W44858  11.684  17.454  14.839  0.1461 -0.1178 -0.0664
29050W        W44859   9.174  16.938   1.151 -0.1386  0.2496 -0.2233
29051W        W44860  17.755  11.043   2.314 -0.0745  0.1925  0.1245
29052W        W44861   7.650   8.114   4.023 -0.2460 -0.1505  0.2256
29053W        W44862  16.824   2.025   3.749  0.2188 -0.0254 -0.3803
29054W        W44863   6.062   0.690  12.244  0.1460 -0.1817  0.1789
29055W        W44864  13.530   4.798   5.502  0.0570 -0.4300  0.0844
29056W        W44865   3.297   3.826   0.236  0.1960 -0.2143  0.0290
29057W        W44866   1.160   6.653  14.005 -0.0149  0.0315 -0.1094
29058W        W44867  11.398   7.816   0.353  0.0772 -0.0642  0.3572
29059W        W44868   9.339  12.705  14.308  0.0791 -0.2116  0.0574
29060W        W44869   3.019  14.661   4.060  0.3174  0.2137 -0.2089
29061W        W44870   4.052  15.522   6.042  0.0555  0.1435 -0.2090
29062W        W44871   8.542  17.254   5.922 -0.0172  0.1203 -0.1259
29063W        W44872   2.078  15.998   1.547  0.1668  0.0117  0.2625
29064W        W44873   1.302  10.103   3.873 -0.2773  0.2398  0.0236
29065W        W44874  17.510  14.831   0.216  0.3889 -0.2209  0.0235
29066W        W44875   8.409  18.278   3.929 -0.2146  0.0560  0.2214
29067W        W44876   1.785   0.057   1.737  0.0348  0.4036  0.1679
29068W        W44877  14.891   9.058  14.593  0.1427  0.0197  0.0402
29069W        W44878   5.848   3.931   1.789  0.0639 -0.0928  0.0546
29070W        W44879   5.866   6.382  11.446  0.0682  0.0001 -0.0500
29071W        W44880   7.348   3.371   1.870  0.1026 -0.2712 -0.0844
29072W        W44881  17.625   1.829   3.384  0.0011 -0.0394 -0.2722
29073W        W44882  18.451  12.797  12.625 -0.0152 -0.0467  0.1461
29074W        W44883   3.726  18.469  13.641  0.1309  0.2095 -0.2030
29075W        W44884  11.069  17.358  12.924  0.3010  0.0521  0.1121
29076W        W44885   0.990   3.579  12.261 -0.1367  0.0531 -0.0380
29077W        W44886   3.514  15.890  13.925 -0.1431  0.4556 -0.4039
29078W        W44887   5.767  10.565   0.818 -0.2063 -0.0105  0.0520
29079W        W44888   1.334   5.563   1.943  0.0663 -0.0294 -0.0125
29080W        W44889   8.753   3.387   3.963  0.1133  0.2504  0.1685
29081W        W44890   9.043  17.977   0.718 -0.0865 -0.1121 -0.3980
29082W        W44891   0.250   2.343   3.999 -0.0726 -0.0205 -0.0049
29083W        W44892   8.355  10.042  13.213 -0.0091 -0.1322  0.0180
29084W        W44893   2.359   3.003  15.508 -0.1719  0.2971 -0.0932
29085W        W44894   9.499   4.318   2.081  0.1554  0.0216  0.0860
29086W        W44895   5.498  13.648  13.089 -0.4333 -0.2080  0.0026
29087W        W44896   8.292  12.482  11.426  0.0695  0.3453  0.0816
29088W        W44897  10.070  11.419   3.945 -0.0691 -0.0870  0.0306
29089W        W44898  16.076   9.021  12.675 -0.0959 -0.0719  0.3729
29090W        W44899   6.087  10.755   5.497  0.1108 -0.0063  0.4429
29091W        W44900  15.492   7.434  10.784  0.0185  0.1608  0.0987
29092W        W44901   9.564  17.150  12.803 -0.0162  0.0571 -0.1350
29093W        W44902   6.081   7.515  13.758  0.3149 -0.3568 -0.1136
29094W        W44903  16.787  14.233  12.806 -0.2617  0.1000  0.0996
29095W        W44904   0.861  14.486   1.275 -0.3748  0.0965 -0.6751
29096W        W44905  14.516   3.712  13.295 -0.0213 -0.1523 -0.0414
29097W        W44906   5.992   1.501  14.897 -0.1199  0.1907  0.0979
29098W        W44907  14.243  17.746   3.884 -0.0956  0.0613 -0.1422
29099W        W44908   1.943   8.935  14.282 -0.0111  0.4617 -0.0375
29100W        W44909   5.852   2.027  14.387 -0.0701 -0.2025 -0.0638
29101W        W44910   4.299  11.569   1.713  0.0006 -0.0554  0.2771
29102W        W44911  16.243   7.607  14.249  0.1164 -0.2117 -0.1473
29103W        W44912   3.850   2.573   3.890 -0.1172 -0.1470  0.3018
29104W        W44913  11.682   8.031   2.149  0.1584  0.0880  0.0212
29105W        W44914   3.960   4.674   1.106 -0.1016 -0.0112 -0.1064
29106W        W44915  12.201   4.534  12.147  0.0533 -0.2780  0.2862
29107W        W44916  17.347  11.136  11.629  0.1441  0.1371  0.1877
29108W        W44917  13.539   5.950   0.810  0.0673  0.3855  0.1339
29109W        W44918  16.348   8.603   2.363 -0.0323 -0.2893 -0.0055
29110W        W44919   2.632   9.669   3.922  0.0500 -0.0100  0.2454
29111W        W44920   8.936   4.635  12.685 -0.0033  0.5197  0.1567
29112W        W44921  11.251   7.641  11.249  0.3005  0.4421 -0.1720
29113W        W44922  14.958   3.911  14.077  0.0079 -0.1380 -0.0466
29114W        W44923  17.665  11.901  14.191  0.1269  0.0711  0.0236
29115W        W44924  14.606   1.778   6.060 -0.1765 -0.1006 -0.2747
29116W        W44925  15.545   9.781  14.842 -0.2552 -0.2206  0.1526
29117W        W44926  17.115   9.137   2.531  0.3958  0.1571 -0.1225
29118W        W44927  12.952   7.528   5.303  0.0097  0.2192  0.0093
29119W        W44928  15.817   7.175   2.169 -0.0006  0.0493 -0.0400
29120W        W44929   8.545   1.227  14.665  0.1569  0.0187 -0.0782
29121W        W44930   1.783   7.390  13.250 -0.0176  0.2804 -0.0501
29122W        W44931  14.465  11.908  14.982  0.0809 -0.1492 -0.0472
29123W        W44932   4.464   5.881  12.711  0.0210 -0.0272  0.2148
29124W        W44933   4.459   3.291   0.279  0.1665  0.2258 -0.2003
29125W        W44934   6.785   2.550   0.969 -0.0503 -0.3352 -0.1950
29126W        W44935   7.322   4.178  14.754 -0.1847  0.2319 -0.1113
29127W        W44936  17.736  18.295   5.014 -0.1073  0.1250  0.4818
29128W        W44937   7.446   6.128   0.872 -0.1269  0.1033 -0.3555
29129W        W44938  15.512  10.907  12.431 -0.0870 -0.1623 -0.1200
29130W        W44939  17.001  12.071   3.473 -0.2567 -0.0410 -0.5053
29131W        W44940   6.835   5.363   0.724  0.2080  0.1797  0.1539
29132W        W44941  10.503   9.165  10.686  0.0252  0.1459 -0.1590
29133W        W44942   8.999   0.287  13.939  0.1933 -0.1236  0.1086
29134W        W44943  10.903  10.395   4.219  0.0903 -0.0724  0.0534
29135W        W44944   0.222  12.313  14.967 -0.0351 -0.2876  0.0147
29136W        W44945   8.736  14.589  13.638  0.1414  0.0664 -0.4470
29137W        W44946   5.907  17.377   0.065  0.0376 -0.0860 -0.1743
29138W        W44947  11.624   2.724  12.420  0.3136  0.1241  0.2051
29139W        W44948  13.389  17.908   4.750 -0.0922  0.0065 -0.0789
29140W        W44949   8.408  11.301  14.993  0.0202 -0.1928 -0.2850
29141W        W44950   0.496   6.498   0.164 -0.2317  0.0217 -0.0144
29142W        W44951   7.223  16.361   1.154 -0.4657  0.0782  0.0249
29143W        W44952   3.080  14.144   4.097 -0.0275 -0.1807  0.2162
29144W        W44953   5.488  15.637  13.962  0.1698  0.1987 -0.1425
29145W        W44954   3.158  14.591   1.077 -0.1941  0.4440  0.3459
29146W        W44955   1.938  16.050  13.144  0.1084  0.2286  0.1639
29147W        W44956   2.683  15.520   0.850 -0.0260  0.0093  0.1678
29148W        W44957   6.521  10.449   1.489 -0.0259 -0.1622 -0.1008
29149W        W44958   9.196   2.500   1.343  0.0295 -0.0436  0.1003
29150W        W44959   0.283   1.509  11.776 -0.1608  0.1931  0.0448
29151W        W44960   1.280  11.194   3.955  0.1123  0.1122 -0.0528
29152W        W44961  13.772   4.546   0.145 -0.0717  0.1938 -0.0565
29153W        W44962  11.242   0.522  13.449  0.2555  0.0798  0.3794
29154W        W44963  14.525  13.776   2.068  0.0597 -0.0110  0.1907
29155W        W44964  15.110   8.295   3.008 -0.0887  0.2073 -0.0249
29156W        W44965  16.111   2.778   1.083 -0.0904 -0.1635  0.0404
29157W        W44966   7.351   0.749  11.537 -0.0586 -0.1944  0.0576
29158W        W44967   3.979   5.910   0.601 -0.1187  0.2033 -0.1457
29159W        W44968   2.048  12.941  13.180  0.0100 -0.3015  0.0077
29160W        W44969   0.766   6.074  10.621  0.3004  0.0881  0.0895
29161W        W44970  14.123  13.581  14.342  0.1381  0.1590 -0.3032
29162W        W44971   4.829   5.836  13.078  0.0843  0.0145 -0.0265
29163W        W44972  11.508  16.449   3.387 -0.0312 -0.0292  0.1528
29164W        W44973  13.516   2.375   4.531  0.0588 -0.0521 -0.2595
29165W        W44974   6.744  14.589   4.136 -0.2174  0.0304  0.0138
29166W        W44975  13.131   6.358  12.447 -0.2210 -0.3517  0.0797
29167W        W44976  13.039  13.817  14.489  0.3084 -0.0239 -0.0947
29168W        W44977  17.541   2.329  15.288 -0.0760  0.1357 -0.0474
29169W        W44978   7.966  10.873   3.517 -0.1504  0.1787  0.0924
29170W        W44979   3.567   7.820   5.379 -0.1198 -0.1152  0.1032
29171W        W44980  18.382  11.473  12.061 -0.0949  0.2359  0.0779
29172W        W44981  10.448  13.274  14.284  0.2306  0.0867  0.0041
29173W        W44982   6.528   3.144  12.068  0.0050 -0.1321 -0.2428
29174W        W44983  11.824   7.537   0.261  0.1881 -0.0776  0.0179
29175W        W44984   3.640  14.763   4.629  0.0841 -0.1115 -0.2592
29176W        W44985  12.895  15.734  13.766  0.0092  0.3722 -0.0069
29177W        W44986  15.105   4.986  14.602  0.0406  0.2809  0.0172
29178W        W44987  10.167   1.073  15.534 -0.0347  0.1207 -0.1688
29179W        W44988  13.147   8.506  14.070  0.0485 -0.0183 -0.2154
29180W        W44989  16.783   5.076   4.110 -0.1665 -0.1291 -0.3045
29181W        W44990  14.712  11.147   4.627 -0.1596 -0.0207  0.2579
29182W        W44991   6.072  10.368   1.652  0.2806  0.1973  0.2782
29183W        W44992   2.278  10.142   0.338  0.2715 -0.1543 -0.0924
29184W        W44993  11.094   0.497   2.290  0.2744 -0.3569  0.1620
29185W        W44994   6.519   4.644  14.378  0.3703  0.0994 -0.0436
29186W        W44995   7.570  10.491   5.441 -0.2720 -0.3148  0.1343
29187W        W44996   6.513   3.681  14.905  0.2590  0.3603 -0.0692
29188W        W44997   2.946   9.580  10.011 -0.0247  0.1737  0.0797
29189W        W44998  13.515  13.011  11.707  0.0995  0.1302 -0.1741
29190W        W44999   2.012  17.581  11.550  0.0631  0.1286  0.0535
29191W        W45000   3.424   9.085  11.936  0.0561  0.0892 -0.0004
29192W        W45001  11.079   1.060   3.048  0.0002 -0.0361 -0.1982
29193W        W45002  14.883  16.360  15.127 -0.2463 -0.1551  0.3743
29194W        W45003   0.848   4.579  14.800  0.1792  0.2661 -0.1338
29195W        W45004   8.581  12.086   4.892 -0.1564  0.0416  0.1644
29196W        W45005  11.346   3.580  13.510 -0.0568  0.0825  0.2606
29197W        W45006   9.226  17.670   2.275 -0.0395 -0.1860 -0.3426
29198W        W45007   0.244   8.548   3.389  0.0906  0.1469 -0.3436
29199W        W45008   6.187   5.749   4.738  0.0851 -0.1539 -0.0930
29200W        W45009  16.574   1.944  15.365  0.1719 -0.0094 -0.1478
29201W        W45010  10.586   1.738  11.044 -0.1386 -0.0656 -0.0915
29202W        W45011   9.797  12.893  11.121 -0.5045 -0.3518  0.4493
29203W        W45012   8.789   7.656  11.695 -0.1004  0.0108 -0.2002
29204W        W45013  15.242  18.602  12.963 -0.1671 -0.0839 -0.1313
29205W        W45014  16.509   2.549  13.868  0.1634 -0.0970 -0.2819
29206W        W45015   3.430  15.015  13.575 -0.1140 -0.0779  0.1376
29207W        W45016  13.220   1.306  12.718 -0.0829 -0.4285  0.0641
29208W        W45017   5.891   7.429   5.018 -0.0420  0.3148 -0.0043
29209W        W45018   7.303  17.952   2.751  0.3421  0.2264 -0.0415
29210W        W45019   2.004  18.406   3.658  0.1734 -0.0857 -0.2058
29211W        W45020   0.564   2.486   0.878 -0.1620  0.0407 -0.0185
29212W        W45021  13.173  13.671  15.435  0.3203  0.2186 -0.2668
29213W        W45022   7.715  14.287   1.778 -0.0873 -0.1438 -0.2599
29214W        W45023   4.987  17.196   9.835 -0.3312 -0.0907  0.0151
29215W        W45024  13.547  16.243  15.334  0.0144  0.5607 -0.0704
29216W        W45025   8.008   3.511  14.806  0.2242 -0.0975  0.0415
29217W        W45026  15.274  17.113   1.607  0.0502 -0.1547 -0.0293
29218W        W45027   4.969  14.186   2.861  0.2276  0.1311  0.1133
29219W        W45028   6.299  17.503   1.231  0.2077  0.1337 -0.1434
29220W        W45029   2.603   2.035  14.010  0.3014  0.0959  0.1117
29221W        W45030   2.795   2.835  15.183 -0.1081 -0.1339  0.1063
29222W        W45031   5.952   8.830  14.219 -0.1964  0.0095 -0.1920
29223W        W45032  16.122   3.015   1.993 -0.0292 -0.2039 -0.0711
29224W        W45033   8.735   9.421   9.869 -0.2154  0.0768 -0.4188
29225W        W45034   6.097   0.155  14.660 -0.1089 -0.2039 -0.1543
29226W        W45035  17.597  14.712   2.028 -0.1444 -0.4409 -0.2023
29227W        W45036   9.412   5.032   3.791  0.2360 -0.0649 -0.1200
29228W        W45037   9.997  14.681   2.286  0.0654 -0.0977  0.0973
29229W        W45038   6.844   0.509  12.539  0.1218  0.0476 -0.1833
29230W        W45039  15.554   8.860  11.160  0.3535 -0.0642  0.2604
29231W        W45040  15.651   6.669  11.248 -0.0513 -0.1322 -0.2146
29232W        W45041   4.192  18.195  11.322 -0.1205  0.1392  0.3328
29233W        W45042   4.369   2.747  12.617 -0.0688 -0.0141  0.0065
29234W        W45043   1.716   1.736   4.076 -0.0022  0.1977  0.1560
29235W        W45044  15.473   5.830  10.639 -0.1169 -0.1012 -0.0150
29236W        W45045  14.273  15.920   4.608  0.1699  0.1644  0.0347
29237W        W45046   4.596  11.141   1.421  0.0721 -0.0259 -0.4795
29238W        W45047   8.806   6.036   0.830  0.0272  0.0563 -0.0608
29239W        W45048   9.899  14.095   2.120 -0.0708  0.1450 -0.1029
29240W        W45049   3.678   9.373   0.817  0.0418  0.0097 -0.2295
29241W        W45050   9.374  11.307   3.904  0.0283 -0.0476 -0.0184
29242W        W45051  13.222  14.644   4.243 -0.0985  0.0644  0.0491
29243W        W45052  15.410   3.455   3.019 -0.1005  0.1117 -0.0339
29244W        W45053   6.231   7.904   1.804 -0.0159 -0.4394 -0.0741
29245W        W45054  11.849  16.872  13.028 -0.3836 -0.0733 -0.0949
29246W        W45055   0.106   0.299   3.535  0.2155 -0.2337 -0.1755
29247W        W45056   1.928   0.098  13.993 -0.0709 -0.0361  0.1909
29248W        W45057   3.850   4.627  14.039  0.0856  0.1141 -0.1338
29249W        W45058   0.534   8.183  11.708  0.0739  0.2484  0.1102
29250W        W45059  12.232   4.282   1.022 -0.0589  0.3854 -0.3406
29251W        W45060   7.140   4.889  11.944 -0.1025 -0.0505 -0.1431
29252W        W45061  10.264  17.739   5.677 -0.0700 -0.1513 -0.5002
29253W        W45062   7.075   0.995  14.816  0.1408 -0.2681  0.1681
29254W        W45063  11.712   6.927  13.270 -0.2227 -0.0975  0.2843
29255W        W45064   8.931  11.124  13.335  0.0522 -0.2644 -0.6006
29256W        W45065   6.913   8.709  15.475  0.0167 -0.2781  0.0804
29257W        W45066   1.029  16.885  10.591 -0.2094 -0.0447  0.2066
29258W        W45067   6.903   7.313   4.712  0.1956  0.1829 -0.0572
29259W        W45068  17.853   9.405  12.203  0.1105  0.0345  0.4238
29260W        W45069   3.036  14.319  10.568 -0.1869 -0.3896 -0.0733
29261W        W45070   3.042   2.455  11.982  0.0604  0.1228 -0.1495
29262W        W45071  16.915   6.826  12.692 -0.1047 -0.1102  0.0508
29263W        W45072  14.311   0.277  13.217  0.0544 -0.0895  0.2884
29264W        W45073   1.914  18.370   4.760  0.5124 -0.0779  0.3125
29265W        W45074   5.761  16.254  13.165 -0.0878  0.0020  0.2657
29266W        W45075  12.316  17.053  15.061 -0.4251 -0.0310 -0.0721
29267W        W45076   3.794   4.451   3.978 -0.0124 -0.2626  0.1035
29268W        W45077   4.044  18.587  12.356 -0.1849 -0.0081 -0.0513
29269W        W45078   5.382  10.254  15.324  0.0261 -0.1524  0.1855
29270W        W45079  10.900   4.066   0.634  0.1853  0.0478  0.0920
29271W        W45080   9.343   2.755  14.124 -0.0360 -0.0683 -0.1632
29272W        W45081   1.132   9.630  11.234  0.3151  0.0224  0.3515
29273W        W45082   6.307   9.319  11.056  0.1296  0.0631  0.0960
29274W        W45083   8.923  10.666  12.301  0.3818  0.2762 -0.1764
29275W        W45084   4.713   3.087   4.747 -0.2263  0.1397 -0.0159
29276W        W45085   5.176   8.404   0.961  0.0266 -0.0417  0.1781
29277W        W45086  13.754   3.427   3.664  0.0643 -0.0828  0.2932
29278W        W45087  15.160   0.801  15.393  0.0179  0.0791 -0.1539
29279W        W45088  12.960  12.906   3.781  0.0418  0.2408  0.0082
29280W        W45089   4.013  11.333  15.252 -0.1084  0.0038  0.2700
29281W        W45090   8.190   4.974   3.857  0.1564  0.2393 -0.4314
29282W        W45091  13.880   1.230  12.138  0.4228  0.0804  0.0607
29283W        W45092  14.406  14.271   5.043 -0.2256  0.0450  0.2438
29284W        W45093   9.975   4.200  10.838 -0.0313 -0.1046 -0.1082
29285W        W45094   2.574   3.119   4.475  0.3348 -0.2133  0.0940
29286W        W45095  16.729   2.089  11.248 -0.1402 -0.1610 -0.3383
29287W        W45096   7.158  14.149   2.917  0.1036 -0.1711  0.3045
29288W        W45097  10.759   9.590   2.299  0.0813  0.0090  0.1933
29289W        W45098  11.612   6.868   1.343 -0.0612  0.1298  0.0284
29290W        W45099   9.885   2.988   0.016  0.0993 -0.0306  0.3804
29291W        W45100   5.119   5.904   4.674  0.0640  0.2237 -0.0898
29292W        W45101  18.004   7.849   4.476 -0.2113  0.0170 -0.1725
29293W        W45102  11.060  10.789   0.316  0.1196 -0.0587 -0.1063
29294W        W45103  17.300  10.661  13.559 -0.1359 -0.0659 -0.1627
29295W        W45104  13.250   2.515  12.130  0.0507  0.0452  0.0847
29296W        W45105  17.847  16.133  14.212  0.0297 -0.1618 -0.3422
29297W        W45106  16.851  14.791  11.366 -0.0295  0.0418 -0.1179
29298W        W45107   4.244   4.289  13.348 -0.4046  0.0523  0.0198
29299W        W45108   5.980   9.687   3.057  0.1635  0.0274 -0.4302
29300W        W45109  13.504   5.434   2.212 -0.1253 -0.0176  0.2605
29301W        W45110   9.647   4.706   2.491 -0.0062 -0.4503 -0.0587
29302W        W45111  15.421   4.348   9.804  0.0128 -0.3664 -0.1324
29303W        W45112   7.152   9.750  15.019 -0.2760 -0.0337  0.3399
29304W        W45113   5.939   7.963  14.186  0.0222  0.1295  0.1312
29305W        W45114   5.215   9.985  14.802 -0.1587 -0.1925  0.1736
29306W        W45115   8.228   3.131   4.580 -0.0276 -0.1362 -0.0166
29307W        W45116   4.025   0.942   4.345 -0.2738 -0.0083 -0.1057
29308W        W45117  17.072   2.117  15.331  0.2192  0.2125  0.1362
29309W        W45118  18.190   1.288   5.958  0.0529  0.0304  0.1424
29310W        W45119  10.682   8.125   0.885  0.0921 -0.0440 -0.1715
29311W        W45120  13.355  16.640   1.601  0.1713  0.2217  0.1796
29312W        W45121  10.300  12.208  14.103  0.1144 -0.0696  0.0292
29313W        W45122   8.657  13.641  11.967 -0.5504 -0.2783  0.1482
29314W        W45123   9.543   9.320  13.484  0.0452 -0.3614  0.1241
29315W        W45124   0.171  17.297   5.933 -0.0436 -0.3046  0.2420
29316W        W45125   1.628   9.601  10.251  0.0765 -0.1659  0.0489
29317W        W45126  16.044   8.632  14.902  0.1223 -0.1850 -0.1822
29318W        W45127   4.382  13.671  15.306 -0.0559  0.1741  0.0287
29319W        W45128  17.020   5.449  12.074  0.2596 -0.1311 -0.0103
29320W        W45129   9.202  16.686   3.174  0.1488 -0.4565 -0.1489
29321W        W45130  15.882  13.165  10.657  0.2026 -0.1887  0.2104
29322W        W45131  16.628   7.807   2.022  0.0969 -0.1126  0.4066
29323W        W45132   6.207   8.501   3.246  0.2781  0.1425 -0.0815
29324W        W45133  15.105   3.331   0.325 -0.1958 -0.0924 -0.1021
29325W        W45134  11.342   3.790  13.035  0.1994  0.1462  0.2434
29326W        W45135  14.635   8.635  14.742 -0.0814 -0.1058  0.0315
29327W        W45136   4.581   9.701   4.449  0.3338 -0.0157 -0.2286
29328W        W45137   8.514   3.569   5.515 -0.1500  0.1966  0.0965
29329W        W45138  10.939   2.249   5.525  0.1699  0.0265  0.0319
29330W        W45139   2.258   1.907  11.812  0.0980 -0.2698 -0.1994
29331W        W45140  14.783  10.001   3.628 -0.0650  0.1385  0.0952
29332W        W45141   8.012  11.415  12.354  0.2449  0.4369 -0.4184
29333W        W45142  10.704   6.648  11.529 -0.1817 -0.2347 -0.1217
29334W        W45143   6.662   4.083   0.385  0.3924 -0.0844 -0.1672
29335W        W45144  11.354   0.785   3.856  0.1089 -0.1788 -0.0066
29336W        W45145   5.733  13.025   5.098 -0.1352  0.3660 -0.2259
29337W        W45146   4.872   2.795   3.384  0.0966 -0.1733 -0.3483
29338W        W45147   0.105   9.952  12.528 -0.2799 -0.0103  0.0756
29339W        W45148   1.716  12.714  11.252  0.0990 -0.1410 -0.0088
29340W        W45149  18.595   2.826  14.906 -0.0856  0.1823 -0.0789
29341W        W45150  10.062  17.702  12.208 -0.0936  0.0057 -0.1153
29342W        W45151  14.501  17.316   4.706 -0.0139  0.1306  0.2303
29343W        W45152  15.300  11.867  13.427  0.1742  0.0711 -0.3717
29344W        W45153  13.811  10.018   0.797 -0.3033  0.0569  0.0437
29345W        W45154  16.515  16.446  14.103  0.2516  0.1725 -0.0698
29346W        W45155  11.869  16.733   3.730 -0.2357 -0.0918 -0.0573
29347W        W45156   5.973   2.941   3.151 -0.1707  0.0545 -0.1459
29348W        W45157   3.677   0.955  12.439  0.0713  0.3807  0.0782
29349W        W45158  14.481  16.221  11.088  0.0945 -0.0277  0.0506
29350W        W45159   6.298  16.332   0.922  0.0836 -0.0058  0.2246
29351W        W45160  16.363   3.636   3.157 -0.2527 -0.0904  0.1819
29352W        W45161  17.781   5.700   2.210 -0.1298  0.1174 -0.1468
29353W        W45162  11.329   2.395   3.321 -0.0756  0.0619  0.0296
29354W        W45163  17.650   8.678   4.328 -0.3075  0.0839 -0.1138
29355W        W45164   0.994   0.684   1.995 -0.1721  0.0497  0.4375
29356W        W45165  12.677   1.872  13.916  0.0587 -0.2103  0.2807
29357W        W45166  17.510  16.131   4.263  0.0180  0.0973  0.0508
29358W        W45167   4.720   3.459  11.183 -0.2012 -0.0231  0.1139
29359W        W45168  12.071  11.787  14.738 -0.0935  0.2203 -0.0491
29360W        W45169   3.746  13.247   0.057  0.1887 -0.1411  0.0232
29361W        W45170  11.289  12.018   2.104  0.1699  0.1479 -0.0205
29362W        W45171  13.240  14.222   2.779  0.0049 -0.0072  0.3037
29363W        W45172  14.451  12.985   2.045 -0.1710 -0.5347  0.0217
29364W        W45173   6.927   5.720  15.300 -0.0050  0.2730  0.3017
29365W        W45174   2.054   8.101   2.378 -0.1523  0.0443 -0.2292
29366W        W45175   6.443   9.426   2.868  0.4568 -0.1153  0.2727
29367W        W45176   4.895  15.672   0.074  0.2593 -0.0158  0.0778
29368W        W45177   3.568   3.099   4.580  0.1351  0.1236 -0.3464
29369W        W45178   6.293  10.407   3.256 -0.1640  0.0197 -0.0144
29370W        W45179   2.347   8.963  13.991  0.1930  0.3409  0.0614
29371W        W45180   5.120   8.622  11.624 -0.0360 -0.0338  0.1726
29372W        W45181   3.716   1.137   1.823  0.2244  0.3042 -0.0801
29373W        W45182  14.269  18.008  12.100 -0.0243 -0.2253 -0.1236
29374W        W45183  17.515  16.589   3.287 -0.1975  0.2394 -0.1012
29375W        W45184  16.106  13.673  15.604 -0.2263 -0.0892 -0.1579
29376W        W45185   2.351   5.478  13.765 -0.2815  0.3645  0.0205
29377W        W45186   5.432  14.621   4.621  0.1021  0.0031 -0.0914
29378W        W45187   7.271   6.256   5.370 -0.0268 -0.1891  0.2275
29379W        W45188   3.184  16.222  10.796  0.1025  0.1437  0.1431
29380W        W45189  11.062  12.127  13.612  0.1521  0.0068  0.0454
29381W        W45190   7.812   7.333   5.961 -0.0689  0.1351  0.0026
29382W        W45191   7.255  16.754   2.211  0.0188  0.1196 -0.3013
29383W        W45192  13.574  14.408   4.572 -0.1831 -0.1227  0.1008
29384W        W45193  11.233   4.035   4.318 -0.0429 -0.0312 -0.1489
29385W        W45194  14.180   2.943  11.392 -0.0467 -0.0480 -0.4928
29386W        W45195   9.362  17.952  12.034 -0.0782 -0.2089 -0.2934
29387W        W45196   2.980   3.830  10.108 -0.1626  0.2289 -0.1638
29388W        W45197  15.408   5.435   2.211  0.0197 -0.1013 -0.1651
29389W        W45198  15.946  14.470  12.521  0.0383 -0.0861  0.1053
29390W        W45199  10.505   8.208   2.791 -0.1659  0.1844 -0.1182
29391W        W45200  10.937   7.842   0.115 -0.2793  0.2342 -0.0612
29392W        W45201  15.910  13.036   0.480 -0.0042 -0.0749 -0.0418
29393W        W45202  10.119   1.968   5.152 -0.0654 -0.0542  0.0944
29394W        W45203   7.005   9.947  15.492 -0.0064 -0.0147  0.0880
29395W        W45204  12.206  15.980  15.296  0.3524  0.0922  0.1008
29396W        W45205  18.481   8.750   2.228 -0.3513  0.3071 -0.1178
29397W        W45206  12.346   3.254   2.417  0.1402 -0.4765 -0.0981
29398W        W45207   4.880   5.990   3.829 -0.0435  0.1292  0.2642
29399W        W45208   9.661   2.811  14.888 -0.1157  0.0792  0.1618
29400W        W45209  16.178  12.606  14.279  0.0982 -0.1693  0.2362
29401W        W45210   7.835  12.464  12.897  0.0229  0.0213  0.1749
29402W        W45211  17.932  13.118   1.463 -0.1405  0.1550  0.0070
29403W        W45212  14.256  15.802   1.362  0.0767 -0.0189 -0.2099
29404W        W45213   2.337   7.552  12.602  0.0166  0.0089 -0.1111
29405W        W45214  18.482  13.175   2.289  0.3998  0.2148 -0.2138
29406W        W45215   6.197  16.233  15.099  0.2270  0.2679 -0.2341
29407W        W45216   9.141  17.854  15.525  0.2602 -0.2505  0.5725
29408W        W45217  11.971  12.567   5.570 -0.1656  0.0736  0.2975
29409W        W45218  10.098   9.613  15.018 -0.0562 -0.1647 -0.1664
29410W        W45219   8.420  17.065  15.122  0.0338  0.1246 -0.1661
29411W        W45220   5.157   8.578   3.226 -0.3274 -0.1432 -0.0907
29412W        W45221   5.922   6.095  12.775 -0.2204 -0.1397 -0.1825
29413W        W45222  17.180  15.161   1.861 -0.2256  0.0840 -0.0913
29414W        W45223   5.421   9.537  14.202  0.0233 -0.2369 -0.1062
29415W        W45224  14.457  10.861  13.304 -0.2569  0.1293  0.1166
29416W        W45225   5.844   6.968  11.306  0.1082  0.1956 -0.1259
29417W        W45226   4.219  11.448  11.272  0.2641 -0.0180 -0.4103
29418W        W45227  16.935   6.479   0.448 -0.2893 -0.3109  0.1146
29419W        W45228  12.944   4.868   1.191 -0.4013  0.1627  0.1214
29420W        W45229  11.245   2.262  12.432  0.1383  0.1851 -0.0595
29421W        W45230   3.266   2.051  15.283  0.1000  0.1027 -0.4696
29422W        W45231  17.592  14.212  15.429 -0.2353  0.3245 -0.1410
29423W        W45232   9.887  17.606   0.803 -0.0634  0.0442 -0.2207
29424W        W45233   2.266   3.053   4.923  0.0919 -0.3567 -0.1638
29425W        W45234  10.227   6.008   3.914  0.0050  0.3261  0.3213
29426W        W45235   5.393   8.703  15.079 -0.0842 -0.0533 -0.0309
29427W        W45236   2.936  15.040   2.159  0.1559 -0.0936 -0.1022
29428W        W45237  12.376   4.073  11.554 -0.0881 -0.0839 -0.1128
29429W        W45238  15.569   6.695   4.252 -0.1263  0.0862 -0.1081
29430W        W45239  15.649  10.331   5.086 -0.1720  0.1604  0.1153
29431W        W45240  12.437  13.221  10.208  0.3186 -0.1494 -0.1810
29432W        W45241   2.080   5.143  14.064  0.0655  0.2821  0.1131
29433W        W45242   9.282   8.026  13.480 -0.2568 -0.3755 -0.1418
29434W        W45243  16.195  13.419  11.405 -0.1226 -0.2151  0.4458
29435W        W45244  15.376   6.147   4.166 -0.0608  0.1735  0.0221
29436W        W45245   8.637  15.653  12.808 -0.4075  0.1129  0.0975
29437W        W45246   1.575   1.024  10.193 -0.0792  0.1444  0.0521
29438W        W45247   9.901   3.479   5.755 -0.1255  0.0175  0.1980
29439W        W45248   3.114  10.575   0.351 -0.0533 -0.3903  0.0449
29440W        W45249  16.132   3.067   2.490  0.1407 -0.0389  0.2788
29441W        W45250  12.179  11.707   3.256  0.0649 -0.1658  0.1190
29442W        W45251   4.037   0.797   2.120  0.4335 -0.0201 -0.1293
29443W        W45252  16.190   9.006   3.676  0.2234  0.0930  0.1466
29444W        W45253   2.342  16.571   4.081  0.2404 -0.2912 -0.0330
29445W        W45254   0.787  13.064   5.464 -0.1241 -0.3522 -0.1999
29446W        W45255  14.434  15.946   0.910 -0.3752  0.0517  0.1286
29447W        W45256  13.766   1.193  11.632 -0.0920 -0.1685 -0.2605
29448W        W45257  18.579   6.216  11.974 -0.1841 -0.0398 -0.1410
29449W        W45258  13.633  17.509   2.486 -0.0271  0.0636  0.0310
29450W        W45259  12.598  16.327   3.598 -0.0488  0.3361 -0.0192
29451W        W45260   9.894   5.935  10.711 -0.0087  0.1601 -0.0045
29452W        W45261   0.458  15.041   1.310  0.1177 -0.1108  0.1517
29453W        W45262   9.004   2.790  11.456 -0.0482  0.2451  0.0540
29454W        W45263   6.613  13.624  13.019  0.2726  0.0910  0.0543
29455W        W45264   3.134   7.321  15.441 -0.0209 -0.1811  0.0726
29456W        W45265  12.746   6.510  15.070  0.1463 -0.0703 -0.4164
29457W        W45266   9.928   1.478   1.336  0.2196  0.0269  0.1129
29458W        W45267  10.470  13.261   4.832  0.2185  0.3086 -0.3905
29459W        W45268   2.993  10.168  14.174 -0.0046  0.1301  0.1131
29460W        W45269  13.076  17.784   9.937  0.3468 -0.1433 -0.0533
29461W        W45270   1.336   7.352  10.711  0.1145 -0.3661  0.0128
29462W        W45271  16.819   4.142   5.163  0.0157  0.1420 -0.1276
29463W        W45272   6.548  15.714   5.441  0.1084  0.2169  0.0670
29464W        W45273  18.610   5.800  12.790  0.0853 -0.1869 -0.1858
29465W        W45274  17.845  12.959   4.162  0.0297  0.2216 -0.2364
29466W        W45275   8.438  14.114  15.468 -0.0019  0.0472 -0.0575
29467W        W45276  13.191   9.998  12.217  0.3776  0.2224  0.1477
29468W        W45277  12.567  17.608  13.007 -0.0877 -0.1234  0.1094
29469W        W45278   7.454   8.890   1.875 -0.0047  0.3254  0.1075
29470W        W45279   9.515  13.028   2.573 -0.0802  0.1005  0.0355
29471W        W45280  15.266  10.555   2.535  0.0432  0.2231  0.1654
29472W        W45281  18.599  14.092  12.411 -0.0803 -0.1656 -0.0970
29473W        W45282  17.594   7.229  15.061  0.0626  0.1009  0.1014
29474W        W45283  18.657  13.390  13.657  0.2357 -0.2801  0.4397
29475W        W45284  17.296   8.336  13.000 -0.1259 -0.0830 -0.1038
29476W        W45285  14.991  11.000   2.657  0.0522 -0.1413  0.2077
29477W        W45286  17.899  10.025   4.501 -0.2147  0.3913  0.2660
29478W        W45287   0.530   4.468  10.669  0.1599  0.0260  0.3938
29479W        W45288  15.126   4.492  14.614 -0.3586 -0.1265  0.1584
29480W        W45289  13.946  15.232   6.223 -0.1830  0.1716 -0.0575
29481W        W45290   4.739  17.210  11.381 -0.1536  0.1772  0.2048
29482W        W45291  15.900   2.463  10.222  0.0561  0.5547 -0.2581
29483W        W45292   3.405   9.321   2.634 -0.3454 -0.2261  0.2496
29484W        W45293   5.918   6.296  13.253 -0.2596 -0.1721 -0.0026
29485W        W45294  18.352   4.761  12.117 -0.0625  0.0248 -0.0819
29486W        W45295  14.701   8.608   0.678  0.3330  0.2119 -0.4750
29487W        W45296   3.771   5.635   4.433  0.0359  0.0965 -0.0603
29488W        W45297   8.697   1.644  15.548  0.0170  0.3000 -0.0404
29489W        W45298  13.001   4.097   6.013  0.1467 -0.0888 -0.1541
29490W        W45299   8.568   5.771  12.151 -0.1878  0.0942  0.5581
29491W        W45300   4.895  14.409  15.216 -0.5377 -0.1297  0.1196
29492W        W45301   6.822  14.489   3.143 -0.0283 -0.1650  0.0173
29493W        W45302   9.361   3.708  10.942  0.2578 -0.0606  0.1890
29494W        W45303  17.896   8.737   1.143  0.2980 -0.3465  0.0423
29495W        W45304  17.992   2.019   3.130 -0.0511  0.0926  0.1146
29496W        W45305  14.132  15.478   4.335 -0.3607 -0.1006 -0.0641
29497W        W45306   0.900  17.422   3.398  0.2232  0.2054  0.2272
29498W        W45307  13.301   2.980   2.184  0.1661  0.0924 -0.0162
29499W        W45308  16.248   4.512  11.786 -0.0002 -0.1259 -0.2332
29500W        W45309   8.020  14.178   3.101  0.1250 -0.2334  0.0869
29501W        W45310   1.580   3.993  11.721 -0.0719  0.1191 -0.0311
29502W        W45311   5.760   7.419  15.412  0.0444 -0.0722  0.1710
29503W        W45312   9.485   8.113   1.525 -0.2510 -0.1762 -0.1426
29504W        W45313  17.874  18.241   0.088  0.0097  0.0073  0.2627
29505W        W45314   9.897  15.146   1.989  0.2394 -0.0133  0.0928
29506W        W45315  12.385   5.318   2.420  0.0824 -0.2204  0.1087
29507W        W45316  14.106  14.350  13.860 -0.3896 -0.0876 -0.0460
29508W        W45317  10.119   4.763   2.686 -0.0970 -0.2083  0.2074
29509W        W45318  14.872   8.780  11.694  0.0366  0.2130 -0.4069
29510W        W45319   4.962  11.249   2.449  0.0281 -0.0931  0.0727
29511W        W45320  13.742   0.153   2.049 -0.0892  0.1534  0.0410
29512W        W45321   4.323  12.110  12.348 -0.0859  0.0301 -0.1618
29513W        W45322   1.721  13.446  12.365 -0.1998 -0.0405 -0.2186
29514W        W45323  15.425   2.288  13.826  0.0019 -0.0947 -0.2449
29515W        W45324  11.795  13.103   2.707  0.0039  0.0936  0.2065
29516W        W45325   7.616  16.507  11.710  0.1538 -0.0329 -0.0011
29517W        W45326   0.877   1.202   2.901 -0.1346 -0.3042  0.2710
29518W        W45327  11.371  18.117  12.508  0.0504 -0.0076 -0.0121
29519W        W45328   2.409   9.354  12.090  0.1027  0.2323 -0.0485
29520W        W45329   5.125  12.441   0.356  0.3623  0.1862  0.1889
29521W        W45330  12.054  10.999   2.716  0.0668  0.0318  0.0286
29522W        W45331  15.834  15.155  10.497 -0.0225 -0.1339 -0.1401
29523W        W45332   8.501   4.307   3.127  0.0098 -0.2002 -0.1036
29524W        W45333   3.369   4.223   4.266 -0.0772 -0.1574 -0.0070
29525W        W45334   3.284  13.742   4.954  0.1545  0.1494 -0.1142
29526W        W45335   9.328   9.022   1.453 -0.0132 -0.5117  0.0018
29527W        W45336   9.389  15.317  12.643 -0.3604  0.1410 -0.0241
29528W        W45337  17.694  15.452   4.776 -0.0857  0.2354  0.0509
29529W        W45338  15.839   2.853  14.236  0.2607 -0.2731  0.1379
29530W        W45339   3.489  18.121  11.262 -0.1576 -0.2382 -0.1580
29531W        W45340   9.504   3.871   5.040  0.2019  0.1883 -0.1024
29532W        W45341   4.196   8.806  10.626 -0.0563  0.1846  0.0005
29533W        W45342  11.185  18.046   0.332 -0.3884  0.0308 -0.0960
29534W        W45343  15.517   1.326  13.822 -0.2195  0.0701 -0.2202
29535W        W45344   8.524  18.439  12.198 -0.2013  0.1321  0.3331
29536W        W45345  12.531  11.149  12.787 -0.0721  0.1832 -0.3950
29537W        W45346  15.569  13.304   2.789 -0.1567  0.3346  0.0047
29538W        W45347   0.121  15.807   2.770 -0.1263 -0.1046 -0.2851
29539W        W45348  13.905  10.862  13.293 -0.1241 -0.2199  0.1987
29540W        W45349  16.796  15.365  14.978 -0.0807 -0.3004  0.0566
29541W        W45350  14.153  17.084   4.311  0.2370 -0.2058 -0.1381
29542W        W45351  16.791   0.997   5.534 -0.0816 -0.1265 -0.2054
29543W        W45352   8.866  11.129  11.828 -0.0152  0.2004 -0.0428
29544W        W45353   1.284   7.698  14.955 -0.0544 -0.1802 -0.1920
29545W        W45354   0.121   5.813   2.043 -0.2371 -0.1080  0.1283
29546W        W45355  16.183   1.505   5.262 -0.2818  0.0939  0.3016
29547W        W45356   8.190  15.786   2.336  0.0326  0.3826  0.0861
29548W        W45357  10.387   3.536   4.175 -0.1041  0.1749  0.2194
29549W        W45358   4.771   4.632  10.694 -0.0260  0.0900 -0.0863
29550W        W45359   6.060  11.433   3.719 -0.1352 -0.5090  0.0787
29551W        W45360  10.563  18.053   1.844 -0.0871  0.1403  0.2340
29552W        W45361   0.547   2.336   1.805 -0.2127 -0.1211 -0.1155
29553W        W45362   0.766  14.984  11.364 -0.0219 -0.1437  0.2323
29554W        W45363  16.395  15.608   4.854  0.2088 -0.0709 -0.0891
29555W        W45364   4.045   2.536  14.280 -0.1291 -0.1811  0.1156
29556W        W45365  17.710   4.437   4.132  0.0625 -0.0457 -0.0830
29557W        W45366  14.066   4.710   4.593 -0.0127 -0.1045 -0.1832
29558W        W45367   5.576  14.861  14.704  0.0097  0.4945  0.1196
29559W        W45368   7.075   6.893  12.592  0.1951  0.0794  0.2965
29560W        W45369   1.210  14.138  11.735  0.1304  0.1104  0.0661
29561W        W45370   5.453  18.223   2.461 -0.1491 -0.0948 -0.2951
29562W        W45371  17.503   5.671   2.610 -0.1931  0.0531  0.2718
29563W        W45372   4.644  13.613   4.896 -0.0912  0.2360  0.1880
29564W        W45373  18.110  13.530   3.225  0.2414  0.0125 -0.3475
29565W        W45374   4.950   0.713  12.319  0.4391  0.4404  0.2066
29566W        W45375   4.291   9.630  11.662 -0.2030 -0.3493 -0.0861
29567W        W45376   1.216  10.242   0.489  0.2448 -0.2773 -0.0274
29568W        W45377   5.910   4.967  15.274 -0.3695  0.3387 -0.2135
29569W        W45378   5.869   7.013   5.993 -0.1000 -0.0079 -0.2179
29570W        W45379   4.389  16.756  11.331  0.0745  0.1753  0.3263
29571W        W45380  16.172   3.612  15.426  0.2404  0.0308  0.1357
29572W        W45381   9.673   0.805   3.119 -0.3240  0.3546 -0.0999
29573W        W45382   9.056   0.994  14.035 -0.0770  0.2259  0.0162
29574W        W45383  15.334   9.184   2.899  0.3533  0.2527 -0.0665
29575W        W45384  13.958   6.286   2.524 -0.0704  0.1040  0.0190
29576W        W45385  18.044  10.458   2.738  0.0330  0.3052 -0.2033
29577W        W45386  13.553  14.976  15.044  0.1279 -0.2403  0.0137
29578W        W45387   4.793   5.401  12.796 -0.0909  0.0038 -0.2055
29579W        W45388   1.916   6.022  11.527 -0.2282 -0.3537  0.5039
29580W        W45389   0.342   4.879   1.802  0.2751 -0.2192 -0.2170
29581W        W45390  16.088  13.741  11.816  0.3315 -0.1249  0.1037
29582W        W45391   3.784   9.365  11.751 -0.2476  0.0784  0.1252
29583W        W45392  11.694   4.492   5.583  0.0669  0.0870 -0.0357
29584W        W45393  16.747   9.451  11.092 -0.0297 -0.2063 -0.0889
29585W        W45394   8.137   6.249   2.531 -0.1836 -0.0913  0.4114
29586W        W45395  13.066   5.447  11.086  0.0397 -0.1888  0.1557
29587W        W45396   5.710   3.821   2.915  0.1770  0.0137  0.1477
29588W        W45397   4.182  17.780  12.860 -0.1489  0.1359 -0.2182
29589W        W45398  12.183   3.581  14.529  0.1702 -0.2597  0.4137
29590W        W45399   6.307   8.652  10.524 -0.3007  0.1882  0.0657
29591W        W45400  11.406  17.572  14.070  0.0852 -0.0003 -0.1125
29592W        W45401   1.276   7.194   0.151  0.5075 -0.1147 -0.0151
29593W        W45402   6.355  12.961  14.398  0.0285 -0.0559 -0.2242
29594W        W45403   6.093  18.077  10.869  0.3818 -0.0840 -0.0166
29595W        W45404   8.977  14.768   2.429 -0.0443  0.0759 -0.0808
29596W        W45405   7.970  13.042   1.380 -0.0431  0.4014 -0.5401
29597W        W45406   4.250  17.000  11.713  0.0278 -0.0015 -0.1323
29598W        W45407   5.905  18.163   0.696  0.0027 -0.2045 -0.3389
29599W        W45408  16.539   4.844  15.246  0.3881  0.0912  0.0833
29600W        W45409   5.382  17.513   0.780  0.3160 -0.2670  0.1399
29601W        W45410  10.512   2.412  11.066  0.0662 -0.0227 -0.3785
29602W        W45411   8.765   2.204   3.957 -0.1513 -0.1550  0.2640
29603W        W45412   8.299  17.674  12.489  0.1752  0.2980 -0.0180
29604W        W45413   5.207   4.360   0.143 -0.1129  0.0367  0.0467
29605W        W45414   9.567   1.479   4.773  0.1673 -0.3068 -0.2171
29606W        W45415   0.554  15.415   0.645  0.0988  0.0755 -0.0612
29607W        W45416   2.487   2.726   2.915 -0.2484 -0.1541 -0.1363
29608W        W45417   7.135  11.615  10.872 -0.0576  0.1362  0.0748
29609W        W45418  15.013   3.208   4.379 -0.3733 -0.0718 -0.0334
29610W        W45419   5.682   9.209   2.193 -0.0047  0.3002  0.2284
29611W        W45420   2.645   2.507  14.732 -0.1598 -0.1744 -0.1470
29612W        W45421   1.621  16.936  14.623  0.2410 -0.2885 -0.5068
29613W        W45422   8.433  16.669  10.087 -0.1384 -0.0702 -0.2134
29614W        W45423  17.919   4.820   0.685  0.0799 -0.0808 -0.3017
29615W        W45424  16.500  14.782  13.679 -0.1230 -0.0185  0.1190
29616W        W45425   4.808  13.031  10.214  0.0363  0.1091  0.4281
29617W        W45426   3.152   3.721   3.723 -0.1438  0.0500 -0.1036
29618W        W45427   1.092   9.541  14.499 -0.0347  0.4475 -0.1421
29619W        W45428   2.891   4.103   0.143  0.0684  0.0292 -0.1586
29620W        W45429   0.393   8.011   4.386 -0.1199 -0.1106 -0.0764
29621W        W45430  16.302  15.926   0.351 -0.0035  0.0434  0.0264
29622W        W45431   1.249   7.875  12.978 -0.2557  0.0059  0.1851
29623W        W45432   2.095   8.475   4.206 -0.1832 -0.2335 -0.0550
29624W        W45433   0.434   9.309  10.101 -0.0234  0.1039  0.2642
29625W        W45434   9.302  12.790  12.146 -0.0802  0.1889  0.1633
29626W        W45435   4.119  12.774  11.394 -0.2099  0.0411  0.2471
29627W        W45436   0.997  11.690  10.805  0.4043 -0.2471 -0.2211
29628W        W45437   8.227  11.157   4.357 -0.1450  0.2877  0.1057
29629W        W45438   7.600  13.553   2.083 -0.0242 -0.2101 -0.1464
29630W        W45439   1.502  15.875  11.576  0.2048 -0.2343 -0.1958
29631W        W45440  13.978  11.928  12.708 -0.1133  0.1528  0.0731
29632W        W45441   3.782  16.320  13.924 -0.1812 -0.0012 -0.0851
29633W        W45442   0.527  16.033  10.612 -0.1567 -0.0029 -0.2880
29634W        W45443  11.117  17.955  12.949  0.1383 -0.0971 -0.0959
29635W        W45444  10.025  11.361  14.212  0.2009 -0.4033 -0.0187
29636W        W45445   0.473   9.519   0.276 -0.1875  0.0025 -0.1979
29637W        W45446  15.499   0.987  11.421  0.2637 -0.2654  0.2156
29638W        W45447   1.101   2.649  13.774  0.2607  0.3020  0.1470
29639W        W45448  16.406  18.331   5.197 -0.2772 -0.1360 -0.1953
29640W        W45449  13.726  14.356   1.541  0.0076  0.0181  0.0347
29641W        W45450  18.033   3.283   1.771  0.3317  0.0791 -0.2287
29642W        W45451   5.932  13.798   1.299 -0.3947 -0.2190  0.2454
29643W        W45452   9.912   6.624  11.909  0.1248 -0.1056  0.1431
29644W        W45453   1.249  17.594  14.280 -0.0544  0.0375 -0.0797
29645W        W45454  14.414   0.925   0.247  0.1809 -0.1870 -0.3417
29646W        W45455   0.982   3.074  15.188  0.0408  0.4321 -0.2227
29647W        W45456   4.089   0.186  11.290 -0.1373  0.1507  0.0394
29648W        W45457  13.967   5.349   1.819  0.1700 -0.1806  0.1372
29649W        W45458   4.260  15.094   2.117  0.0488  0.1047  0.1734
29650W        W45459   1.009   0.540  10.853  0.1755 -0.2884  0.0700
29651W        W45460  15.899   3.321  12.235  0.0575  0.0828 -0.0638
29652W        W45461   0.817  13.839  13.912  0.3099 -0.0168  0.0286
29653W        W45462   1.413  14.282  12.215  0.0599 -0.3119 -0.0894
29654W        W45463  18.244   8.050  11.570  0.2887  0.0996 -0.1326
29655W        W45464   4.827   6.445  10.507  0.2078  0.0219  0.0119
29656W        W45465  12.014   7.160   2.968  0.0622 -0.1971  0.1578
29657W        W45466   8.649  14.110  13.818 -0.3439  0.0115  0.3912
29658W        W45467  12.904   5.522   3.301 -0.0426  0.0696  0.2699
29659W        W45468  13.493  17.675  13.207  0.0426  0.1437  0.2252
29660W        W45469  14.844  14.845   4.028  0.1171 -0.1927  0.1085
29661W        W45470  14.758  14.951   0.888 -0.0727 -0.3239 -0.2298
29662W        W45471  15.970   9.002  10.890 -0.3148 -0.0509  0.2469
29663W        W45472   7.207  15.706   2.437 -0.1620 -0.1410 -0.1033
29664W        W45473   4.162   0.969   0.600  0.2054 -0.2376  0.1418
29665W        W45474   8.972  13.660   3.905  0.1893 -0.0109 -0.0550
29666W        W45475   8.350   3.483   4.947 -0.0374 -0.1349  0.3576
29667W        W45476  18.303  10.026  10.368 -0.3077 -0.1111  0.0012
29668W        W45477   9.227   4.614  13.545  0.1786 -0.1184 -0.3585
29669W        W45478  12.012   2.309  13.578  0.2012  0.3590 -0.2030
29670W        W45479  14.135   0.882  11.766  0.0163  0.1547 -0.2297
29671W        W45480  13.537  16.633  14.632  0.0094 -0.0593  0.0602
29672W        W45481  10.193   6.728   5.575 -0.1300  0.0790  0.1847
29673W        W45482   8.981  14.004  13.395 -0.2454 -0.0007 -0.1465
29674W        W45483   3.309  16.495   1.176 -0.3738  0.2445  0.1033
29675W        W45484   8.876  13.968  12.303  0.3821 -0.3421  0.4141
29676W        W45485   8.456  17.275   0.495  0.0013 -0.2413  0.1185
29677W        W45486   2.089   1.028   1.374 -0.1883  0.0760  0.1614
29678W        W45487   3.382  10.909  13.419  0.0320  0.0544  0.0173
29679W        W45488  11.560  15.983   2.624 -0.1820  0.2156  0.0076
29680W        W45489   2.461   1.418  12.586 -0.1704 -0.1151  0.1424
29681W        W45490  13.952   1.142   1.926 -0.0175  0.0680  0.0432
29682W        W45491   6.208   3.499   5.528  0.1902  0.1593  0.1549
29683W        W45492  16.535   5.316   1.587  0.2959 -0.2419 -0.1999
29684W        W45493  12.495  16.348  13.614  0.2810 -0.1712  0.4142
29685W        W45494   4.662   9.299   5.021 -0.3237 -0.1890 -0.1039
29686W        W45495   8.086   0.033  13.292 -0.2615 -0.0936 -0.0346
29687W        W45496   1.186   1.443   3.340  0.1729  0.0281 -0.0900
29688W        W45497   8.048   7.113   1.672 -0.0284  0.0478  0.0340
29689W        W45498   3.697   9.523   0.149  0.0953 -0.3163 -0.2011
29690W        W45499   9.873   3.866  15.281 -0.1184 -0.2247  0.1260
29691W        W45500   5.177   6.913   1.515  0.1003  0.0359 -0.0721
29692W        W45501  13.693  18.435   0.522 -0.4268 -0.4386 -0.1615
29693W        W45502  16.279   8.388   0.107  0.1123  0.4448  0.2170
29694W        W45503   4.705   4.220  13.685  0.3737  0.0705  0.1994
29695W        W45504  10.755   9.721  12.719  0.4412 -0.1157 -0.0402
29696W        W45505  18.363   8.575  12.007 -0.1371  0.0966  0.3542
29697W        W45506   3.112   0.438  13.481  0.0571  0.0216  0.0176
29698W        W45507   2.767   9.194  13.821 -0.4307 -0.2959 -0.1272
29699W        W45508  18.200  12.627  15.167  0.0517 -0.0151 -0.0019
29700W        W45509   3.866  13.195   1.412 -0.2214 -0.0939 -0.0738
29701W        W45510   6.165   5.292   3.113 -0.3397 -0.3068  0.3561
29702W        W45511   4.542   0.730   6.210 -0.0454 -0.1626  0.0062
29703W        W45512  15.577   5.324   0.649 -0.1931  0.3242 -0.1926
29704W        W45513   1.492  17.686  11.727 -0.2167  0.0714  0.0868
29705W        W45514   3.553  16.204   1.559 -0.0113  0.1817 -0.0787
29706W        W45515   6.671   9.530   4.870  0.1397 -0.1305 -0.0003
29707W        W45516   1.348   0.312   2.607  0.2516  0.1771  0.1119
29708W        W45517   3.153   9.690   0.147 -0.2201 -0.1112  0.1777
29709W        W45518   9.548  16.787   4.196 -0.0326  0.0143  0.1125
29710W        W45519  17.164   3.087  14.839 -0.0121  0.4355 -0.0714
29711W        W45520   0.691  16.666  12.434  0.1986 -0.1119 -0.1806
29712W        W45521  16.959   9.984   2.020 -0.5006 -0.0860 -0.1082
29713W        W45522   8.425   8.211   5.155  0.3443  0.2735  0.0984
29714W        W45523  11.560   9.629   2.576  0.1507  0.1197 -0.1099
29715W        W45524  12.838   3.111  14.629 -0.2118  0.0396 -0.3148
29716W        W45525  15.860   4.228  12.120  0.1815  0.0742  0.0807
29717W        W45526  16.039   6.670  10.342  0.0511 -0.0958 -0.2536
29718W        W45527  12.683   4.908  15.007  0.0861 -0.1315 -0.0666
29719W        W45528  15.944  15.665   3.926 -0.1960  0.0666  0.0489
29720W        W45529   4.392   8.620  15.509 -0.0456 -0.1371  0.0502
29721W        W45530  17.629  17.421   0.365 -0.0024 -0.2216  0.0489
29722W        W45531   6.882   5.735   9.883 -0.1077 -0.1595 -0.0705
29723W        W45532   3.699  15.947   4.251 -0.0327 -0.0124 -0.0774
29724W        W45533   5.079   4.881   4.897 -0.0240 -0.4518 -0.1353
29725W        W45534  10.474   8.982   4.927  0.1693 -0.0936  0.0715
29726W        W45535   8.343  14.710  12.710  0.0783 -0.3609 -0.0252
29727W        W45536  10.022  16.468   1.600  0.1656 -0.2695 -0.2025
29728W        W45537   7.952  10.431  14.469  0.2322  0.0587 -0.1926
29729W        W45538   3.052  12.177  11.907  0.2708 -0.3318  0.0594
29730W        W45539   4.693  17.427  14.588 -0.1819 -0.0379 -0.1645
29731W        W45540   4.342   7.605   4.445  0.1511  0.0784 -0.0506
29732W        W45541  17.048  14.480  12.381  0.0955  0.3832 -0.1243
29733W        W45542   3.419   5.750   0.067 -0.1433  0.4073  0.0306
29734W        W45543  15.402   0.753   4.044 -0.0038  0.0775 -0.3486
29735W        W45544   1.210  14.441  12.791  0.0673 -0.1609 -0.1185
29736W        W45545   8.725   6.466   0.331 -0.1118 -0.1904 -0.0107
29737W        W45546   4.460  16.779   0.460 -0.1102 -0.3661 -0.2674
29738W        W45547  11.627   0.520   2.055  0.0066  0.2548 -0.0618
29739W        W45548  15.410  15.702   1.030  0.1057 -0.0202 -0.2053
29740W        W45549  14.477   0.919  13.753 -0.3291 -0.1261  0.1278
29741W        W45550   7.671  10.783   1.720  0.2251  0.1543  0.1830
29742W        W45551   9.632   9.921  14.190  0.1670  0.2067  0.2707
29743W        W45552   8.867  18.144   5.289  0.1095 -0.0775  0.1421
29744W        W45553   9.189   9.343  11.756 -0.0286  0.0519 -0.1776
29745W        W45554   4.024  14.138  13.932  0.0206 -0.1875 -0.0201
29746W        W45555  11.688   6.378  15.417  0.1453  0.0373 -0.0572
29747W        W45556   2.147   9.371   2.665  0.0875 -0.1534  0.1270
29748W        W45557   4.452   8.469  12.220 -0.0989 -0.0686 -0.0320
29749W        W45558   2.621  18.193   5.587  0.1744  0.0912 -0.0888
29750W        W45559   1.082   3.080  12.296  0.2210 -0.0032  0.0089
29751W        W45560   2.754   0.300  11.861 -0.0248 -0.0899 -0.2875
29752W        W45561  18.160   0.332   4.734  0.0153 -0.0486 -0.1506
29753W        W45562  16.298   1.788   0.154  0.1709  0.0884 -0.0285
29754W        W45563   6.190   2.959  11.188  0.2294 -0.1458  0.1272
29755W        W45564   7.930  12.745  11.166 -0.0885  0.3767 -0.0933
29756W        W45565  16.900   5.258  15.446 -0.0254 -0.1949 -0.1584
29757W        W45566  13.589   4.041   4.305  0.0475  0.1874  0.0163
29758W        W45567  16.321   7.678   1.546 -0.2553  0.1159 -0.2792
29759W        W45568   3.887   7.205   9.392  0.0821 -0.0628 -0.1179
29760W        W45569  18.007   4.396  13.374  0.0343 -0.2888 -0.1404
29761W        W45570  15.917   9.685  14.490 -0.2035  0.5566  0.0012
29762W        W45571   6.949  14.570   1.339 -0.1486  0.5064  0.0386
29763W        W45572   4.797   1.456   3.767 -0.0670  0.3683 -0.1985
29764W        W45573  14.449  15.446  12.684 -0.0376 -0.1729  0.1138
29765W        W45574  14.161   8.488   2.694 -0.0285  0.3698  0.0357
29766W        W45575  18.290   9.512   0.800 -0.3940  0.3235  0.0727
29767W        W45576   8.557   0.876  14.241  0.1462  0.1002  0.1420
29768W        W45577   1.286   0.846   1.516  0.1896 -0.0955  0.2061
29769W        W45578  12.112  12.819  11.160 -0.1587 -0.1697 -0.0905
29770W        W45579  18.083   6.246  11.899 -0.1059  0.0753  0.1500
29771W        W45580  17.499  11.277   1.530 -0.2572  0.0299  0.1649
29772W        W45581  17.696   7.428   4.560  0.1934 -0.2090  0.0561
29773W        W45582   6.137  18.080  14.222 -0.3333  0.2947  0.0590
29774W        W45583  12.344   2.353   0.964 -0.1990 -0.3317  0.2784
29775W        W45584  18.485  13.768   3.509  0.2109 -0.0440 -0.1811
29776W        W45585   5.477   6.801   0.123 -0.0262 -0.0199  0.1523
29777W        W45586  15.766   7.935  11.559 -0.1947  0.2792  0.0979
29778W        W45587  17.421   1.987  12.326 -0.0902  0.0244 -0.0311
29779W        W45588   6.466   4.546  13.027 -0.3238  0.1245  0.3330
29780W        W45589   4.758   9.422  11.761 -0.1893 -0.1161 -0.2263
29781W        W45590   3.741  16.362   0.036  0.0468  0.0762 -0.1227
29782W        W45591   0.169  18.567  14.219 -0.1534  0.0996 -0.0676
29783W        W45592   4.513   9.673  13.526 -0.0523  0.0451  0.1219
29784W        W45593  18.556  15.158   3.100  0.2227 -0.0022  0.2843
29785W        W45594  15.670   4.758   4.317 -0.1205  0.0917  0.1848
29786W        W45595  14.310  13.611   0.695 -0.0703  0.0548 -0.1219
29787W        W45596   4.359   4.206  11.369  0.0525 -0.1345  0.3217
29788W        W45597  10.113  11.621  11.448 -0.1316  0.0369 -0.3153
29789W        W45598   2.187   3.764   1.385  0.2225  0.1809 -0.1209
29790W        W45599  17.196  13.109   3.482 -0.0909 -0.2279  0.0837
29791W        W45600   4.079  16.863   1.425 -0.2803  0.1503 -0.1058
29792W        W45601  12.888  10.254  10.962 -0.1320  0.4563 -0.4065
29793W        W45602   9.062  10.404  14.302  0.1019  0.0630 -0.1814
29794W        W45603  10.100  18.040   3.972 -0.1018 -0.1856 -0.0453
29795W        W45604  12.105  16.850  15.579 -0.0849  0.0727  0.2765
29796W        W45605   3.035   8.347  11.669 -0.1811  0.0721 -0.1515
29797W        W45606   9.766  12.408   0.488  0.1105  0.1786 -0.1404
29798W        W45607   7.859   4.260  12.675  0.1027 -0.3368 -0.1100
29799W        W45608  11.585  14.683   3.651 -0.2807 -0.0206  0.2077
29800W        W45609   9.655  12.523   2.605  0.0198 -0.0198 -0.1733
29801W        W45610  11.310   0.971   2.116 -0.1255  0.0379  0.0185
29802W        W45611   3.524  11.674   1.837  0.1685  0.1358 -0.0454
29803W        W45612  16.469   6.730   0.415 -0.1004 -0.0251  0.1700
29804W        W45613   9.754  14.055  12.721  0.0754  0.3808  0.1874
29805W        W45614  13.119  14.002   1.437 -0.0591  0.0760 -0.1822
29806W        W45615   4.057  11.938  10.374  0.3292  0.2377  0.0844
29807W        W45616  12.558  18.129  15.289 -0.0834  0.3709 -0.2219
29808W        W45617  14.664   4.218   4.461  0.3972  0.0302 -0.2407
29809W        W45618  11.827   3.359  14.775 -0.3264 -0.1848  0.1270
29810W        W45619  12.029   9.648   1.495  0.1370  0.1055 -0.2086
29811W        W45620  11.456   5.984   1.584  0.0078 -0.2610 -0.0616
29812W        W45621   5.225   1.690  12.104 -0.1108  0.1243 -0.2582
29813W        W45622   9.204   2.799  11.900  0.0652 -0.0443 -0.0128
29814W        W45623  16.274   1.559   1.511 -0.0328  0.2287  0.1010
29815W        W45624  14.462   0.465  11.806 -0.1582  0.0066  0.0035
29816W        W45625  14.728   5.598   3.370  0.0227  0.0295 -0.1154
29817W        W45626   2.977   3.609   4.655 -0.3216 -0.1658 -0.0195
29818W        W45627  13.377  10.461   2.580 -0.1104 -0.1414  0.3631
29819W        W45628  17.725   0.639  11.031 -0.3492  0.1736 -0.0548
29820W        W45629  16.537   1.005  15.164 -0.0756 -0.1932  0.2498
29821W        W45630   4.362   5.907   3.011 -0.2339  0.3088 -0.3165
29822W        W45631  14.492  15.557  13.678  0.1545 -0.0103 -0.1030
29823W        W45632   4.397   3.919   1.164 -0.0915 -0.0910 -0.0258
29824W        W45633  11.035  12.123   5.205 -0.0580 -0.0888  0.1906
29825W        W45634   0.233   3.942  10.602 -0.0985  0.1849  0.2489
29826W        W45635   2.191   3.730  10.306 -0.1764 -0.1637 -0.0607
29827W        W45636   0.204   6.783  10.521 -0.0350  0.0041  0.1252
29828W        W45637  16.154  14.238  11.780 -0.4515  0.0645  0.1785
29829W        W45638  11.871   0.931  11.474  0.0716 -0.0130 -0.0072
29830W        W45639  13.816   6.025  15.521 -0.0808  0.0541 -0.1092
29831W        W45640  14.578  12.238   0.960  0.0223 -0.2178  0.2080
29832W        W45641  10.297   6.481   0.227  0.0418  0.0538 -0.0411
29833W        W45642  15.130   6.548  13.458 -0.2560 -0.1948 -0.1573
29834W        W45643   2.213  17.172   4.841 -0.0111 -0.0914  0.0032
29835W        W45644  13.091  12.211   2.361  0.2750  0.1815  0.2492
29836W        W45645  14.596   0.788   4.625  0.0663  0.1372 -0.3069
29837W        W45646  10.452  16.786   3.242 -0.1911 -0.0806 -0.2714
29838W        W45647  10.181   4.922  12.376 -0.3098 -0.2092  0.2902
29839W        W45648  11.506   8.545   4.736  0.2352  0.0420 -0.0175
29840W        W45649   0.424  13.837   1.798  0.0606  0.1578 -0.2437
29841W        W45650   3.131   7.230  13.268  0.0583  0.1245  0.0021
29842W        W45651   6.807   5.223  13.633  0.0940  0.3643 -0.2118
29843W        W45652   4.500   3.786  10.539  0.1462  0.1700 -0.0107
29844W        W45653   8.350  15.577   3.468 -0.1784 -0.1506  0.1509
29845W        W45654   8.455  13.883   3.876  0.1131  0.2783 -0.1316
29846W        W45655  14.285  17.584  12.306 -0.0125  0.1440  0.0170
29847W        W45656  10.315   6.671  11.041 -0.0281 -0.0911 -0.0716
29848W        W45657   0.189  10.326  12.852 -0.1597  0.1778  0.2385
29849W        W45658  15.591  11.133   4.258 -0.5828  0.1028 -0.0954
29850W        W45659   0.332  15.768   0.238  0.1216  0.0519  0.2769
29851W        W45660   0.382   6.699   2.919  0.0851 -0.0719 -0.0845
29852W        W45661   8.296   5.989   0.396  0.2513  0.3834  0.0613
29853W        W45662  18.589   6.511   3.312  0.0982  0.0410  0.0964
29854W        W45663  16.014  18.451  14.972 -0.0743 -0.1106 -0.2085
29855W        W45664  18.507  17.335  11.563 -0.1202 -0.2341 -0.1761
29856W        W45665   3.492  12.057   1.484 -0.4097  0.0296 -0.2215
29857W        W45666  10.011   3.403  11.775  0.1625  0.1804  0.1678
29858W        W45667   5.109   8.951  12.998 -0.0621  0.0913 -0.2069
29859W        W45668  14.798   7.553   3.636 -0.1256 -0.2754  0.2093
29860W        W45669  11.865  12.771   1.364  0.2972 -0.2485  0.1460
29861W        W45670  17.022  17.730  12.334 -0.0502  0.1254  0.2367
29862W        W45671  15.508   9.490   9.737  0.3582 -0.1617 -0.0920
29863W        W45672   6.869   1.187   2.482  0.2336  0.1096  0.1807
29864W        W45673   0.688  16.961  13.046 -0.0869 -0.0191  0.0243
29865W        W45674   7.609   0.502   1.280  0.2816 -0.2461  0.3812
29866W        W45675  16.430  18.524   1.410  0.0128 -0.0270  0.0006
29867W        W45676  17.755   0.012   1.107  0.1755 -0.0591  0.1628
29868W        W45677   8.225   5.894  11.718 -0.2076 -0.0225 -0.2416
29869W        W45678   5.279  13.414   0.920  0.0304 -0.1211 -0.2558
29870W        W45679   7.972   7.288   3.808 -0.3931  0.1775 -0.0956
29871W        W45680  13.065   3.372   3.179 -0.2171  0.2759  0.0146
29872W        W45681   6.684  15.976  11.596 -0.1186  0.0114  0.1653
29873W        W45682  13.787  11.688   2.185 -0.2071 -0.1215 -0.0238
29874W        W45683   0.709   2.554   0.389  0.1015 -0.4492 -0.1756
29875W        W45684   5.385   3.538  14.135  0.0131 -0.2392 -0.0476
29876W        W45685  13.288  16.463  11.156  0.0953 -0.2378 -0.2624
29877W        W45686  18.177  12.201  10.917  0.2244 -0.0316  0.0797
29878W        W45687   6.743   3.213   3.676 -0.0695  0.1559 -0.1815
29879W        W45688  17.839   7.276  10.403 -0.3429  0.0598 -0.0356
29880W        W45689   3.346   5.540   4.812 -0.0004  0.3002  0.0536
29881W        W45690  12.437  12.635   3.616 -0.3295 -0.1607  0.0460
29882W        W45691   4.803   1.462   4.256 -0.1580  0.1710  0.0162
29883W        W45692   5.869   5.599   9.656 -0.1165 -0.0295  0.2280
29884W        W45693  14.054  16.024  12.605 -0.1068  0.4710 -0.2203
29885W        W45694  11.718   8.802  14.299 -0.0390 -0.0457 -0.2671
29886W        W45695  14.757   4.510   1.073  0.3146  0.1889 -0.3159
29887W        W45696   3.534  12.112   4.215  0.0273 -0.0290  0.2432
29888W        W45697  14.847   9.165  15.140 -0.0180 -0.2577 -0.0893
29889W        W45698   3.495  14.177  13.462 -0.2939  0.0582 -0.0056
29890W        W45699   9.235  11.792   0.903  0.1075  0.0204 -0.0934
29891W        W45700   0.593   1.360  10.832  0.1984  0.0157 -0.3645
29892W        W45701   7.110  10.276   0.767  0.2384 -0.0113  0.0176
29893W        W45702  13.369   3.846   1.870  0.2961 -0.0375 -0.3128
29894W        W45703   0.631   1.457   1.159  0.0024  0.0253 -0.0695
29895W        W45704  15.459   8.672  13.576 -0.1665  0.1180 -0.1281
29896W        W45705   5.349   3.877   0.955 -0.1000  0.0656  0.2189
29897W        W45706   0.088   7.363  10.571 -0.1212  0.1976 -0.0732
29898W        W45707  11.372   8.119  13.912 -0.0029 -0.0163 -0.4230
29899W        W45708  16.390  12.460   1.997 -0.1960 -0.2997 -0.1501
29900W        W45709   2.862  10.346   3.045 -0.2452  0.1055  0.0706
29901W        W45710  11.501  13.508  11.142  0.0778  0.0589  0.1180
29902W        W45711   1.883   0.650  13.564 -0.0978  0.0307 -0.0682
29903W        W45712  16.503  14.818  14.824 -0.0464 -0.3198 -0.0286
29904W        W45713   3.091  17.525   4.963 -0.0588 -0.1423  0.1390
29905W        W45714   2.720   6.311   2.252  0.0951  0.1618 -0.2173
29906W        W45715  12.368  16.279   1.853 -0.3466 -0.4661  0.1276
29907W        W45716   5.070   0.776   0.273 -0.0440  0.2778 -0.0562
29908W        W45717  12.278  10.293   3.435 -0.1890  0.2060 -0.1217
29909W        W45718  13.584  12.032   2.873  0.3756 -0.0784  0.1124
29910W        W45719  12.047  10.432   1.698  0.0393 -0.2929 -0.0844
29911W        W45720   5.368  16.872  13.291  0.1310  0.2702 -0.1009
29912W        W45721   0.972   4.209  11.549 -0.1400  0.1342  0.0565
29913W        W45722  14.110  11.041  12.317 -0.4044 -0.0818 -0.0565
29914W        W45723  12.384   9.067  12.319 -0.1605 -0.0848  0.1789
29915W        W45724   7.819  12.450   4.458  0.0966  0.3507  0.1640
29916W        W45725   3.265   8.053  14.513 -0.1876 -0.0335 -0.2431
29917W        W45726  11.812   1.746   0.477  0.2274 -0.3316 -0.0485
29918W        W45727   3.265  14.790  14.520  0.2914  0.0799  0.1245
29919W        W45728   2.609  15.245  14.070  0.0314 -0.2147  0.0385
29920W        W45729  10.046   1.420   4.547 -0.0802 -0.1609  0.0655
29921W        W45730   3.627  17.193   3.925  0.2896 -0.0542  0.1173
29922W        W45731  17.707   7.584   9.507 -0.0205 -0.1615 -0.3297
29923W        W45732   6.932   5.338   1.429  0.0821 -0.0778  0.0210
29924W        W45733  12.081  13.541  12.051  0.2385  0.0540 -0.2933
29925W        W45734  18.584  11.864  14.867  0.1944  0.1706 -0.3031
29926W        W45735   3.574   2.976  12.580 -0.2951 -0.3022  0.0935
29927W        W45736   2.540  12.711  10.839  0.3030  0.1031  0.0922
29928W        W45737  16.514  11.539  14.364 -0.0864 -0.1164  0.2035
29929W        W45738   8.127   5.048   1.930 -0.1175 -0.0830  0.0118
29930W        W45739  14.189   9.298   0.292 -0.1415 -0.1747  0.2583
29931W        W45740  16.809  14.986  15.291  0.0274 -0.0325  0.0306
29932W        W45741  12.267  16.661   3.396  0.1435 -0.1009 -0.1561
29933W        W45742  10.028   6.880  14.530  0.0793  0.3039 -0.1772
29934W        W45743  11.342  16.897  12.800  0.1152  0.2348  0.0141
29935W        W45744   4.865  18.176   0.607 -0.0707  0.1987  0.1390
29936W        W45745   4.052   9.500  13.743  0.0420  0.3549 -0.1456
29937W        W45746   4.385   6.971  12.045  0.1517  0.1644  0.1025
29938W        W45747  14.250   4.699   1.137  0.0838 -0.0663  0.2493
29939W        W45748   5.126   1.228  14.645 -0.3771 -0.1094 -0.2439
29940W        W45749   5.849  15.800  13.400 -0.1377 -0.0436 -0.0228
29941W        W45750  13.315   0.602  12.583  0.2147 -0.2935 -0.2216
29942W        W45751  13.012   2.694   2.626 -0.1304 -0.1500 -0.2119
29943W        W45752  13.128  17.796  14.518 -0.2340  0.2243  0.0266
29944W        W45753   6.398  13.293  14.008 -0.1098  0.0140  0.1074
29945W        W45754   3.333  10.576   2.813 -0.1848 -0.0297  0.1884
29946W        W45755  11.654  12.925   4.193  0.0439 -0.2442 -0.2063
29947W        W45756  10.830  11.416   4.682  0.3092  0.0863  0.3186
29948W        W45757  11.451   6.068   5.021 -0.3503  0.0979  0.2201
29949W        W45758  14.608   6.532   2.531  0.1669 -0.3022 -0.2724
29950W        W45759   5.733   3.760  14.795  0.1371 -0.0460 -0.0162
29951W        W45760   5.673   8.393  14.340 -0.3256 -0.0458 -0.0695
29952W        W45761  14.594   6.133   0.594  0.0417  0.1968 -0.1592
29953W        W45762   6.770   4.833   5.557  0.1815  0.0019  0.0873
29954W        W45763  18.433   3.676  15.019  0.3654  0.3429  0.0257
29955W        W45764   5.926  14.770  12.849  0.2439 -0.1128 -0.0928
29956W        W45765   7.569   0.136   2.850 -0.1774  0.2413 -0.0078
29957W        W45766  13.093  16.276  12.532  0.2665  0.3040  0.2400
29958W        W45767  15.817   4.496   3.839 -0.0075  0.1207 -0.2340
29959W        W45768  17.911   5.754  11.079 -0.4376  0.2321  0.3013
29960W        W45769   3.440   8.864   2.058 -0.2770  0.0594 -0.1374
29961W        W45770   9.501  14.005  14.375 -0.3885  0.1048  0.0644
29962W        W45771   3.962  11.849  12.105  0.1223 -0.1291  0.0464
29963W        W45772  15.559  17.894   0.876  0.2205  0.0878  0.2450
29964W        W45773  10.202  12.068   5.577  0.2899  0.1150  0.3119
29965W        W45774   3.023  17.028   1.596  0.2101  0.0214 -0.0014
29966W        W45775  10.222  15.207   1.059 -0.0581 -0.0031  0.1539
29967W        W45776   3.146  11.081   1.340  0.0008 -0.0065 -0.0231
29968W        W45777   9.807   1.630   0.870 -0.0664 -0.1276  0.1391
29969W        W45778  16.477   3.162  14.083 -0.1545  0.1408 -0.4025
29970W        W45779   1.825   6.110   0.145 -0.2099  0.0286  0.1182
29971W        W45780   4.007  13.766  12.837 -0.3323  0.0907  0.2229
29972W        W45781  18.479  16.402  12.671 -0.1762 -0.3360 -0.1874
29973W        W45782   9.722  15.241   2.827  0.2077 -0.0539 -0.2094
29974W        W45783  14.166  17.558   4.946 -0.0505 -0.2585  0.0661
29975W        W45784   7.840   1.296  12.630 -0.0328  0.1753  0.0962
29976W        W45785  17.076  15.241  11.254 -0.7319  0.0677  0.1640
29977W        W45786   8.625   0.713   0.888  0.0853  0.0559  0.0517
29978W        W45787   1.592  16.978  10.726 -0.1260 -0.0836 -0.0387
29979W        W45788  14.144  13.466   5.577 -0.5635  0.1688 -0.0915
29980W        W45789   0.534  10.083   1.669  0.0753 -0.0319  0.0414
29981W        W45790  14.832   1.603  14.133 -0.0778 -0.0647 -0.2018
29982W        W45791   8.595   8.036   6.170 -0.2773 -0.2703  0.0273
29983W        W45792  18.371  16.900  12.269 -0.1537  0.1734 -0.0174
29984W        W45793   9.650  13.547  12.535  0.1696  0.1548  0.2445
29985W        W45794  14.147  14.975  11.702  0.2156 -0.0630  0.3461
29986W        W45795   0.148   6.822  12.272 -0.0144 -0.3712  0.2234
29987W        W45796   6.749  18.084   1.185 -0.3564 -0.3706  0.2585
29988W        W45797  12.854  16.029  13.391  0.0095 -0.0819  0.1228
29989W        W45798  17.984   1.830  13.709  0.0369 -0.1564 -0.1405
29990W        W45799  10.861   6.079   2.763  0.2027 -0.0175 -0.0145
29991W        W45800   4.429   1.900   1.776  0.3972 -0.2110  0.1761
29992W        W45801  18.182   9.310  12.581 -0.1975 -0.0950  0.0567
29993W        W45802  15.512  13.901   1.606  0.2610  0.1122 -0.0421
29994W        W45803   2.250  14.092   0.677 -0.1872  0.0868  0.1828
29995W        W45804  15.588  17.574  12.364  0.2764  0.1446 -0.0155
29996W        W45805   4.478  12.082  10.176  0.3010 -0.1936  0.0040
29997W        W45806   4.163   5.741   3.440  0.1900  0.2295  0.3473
29998W        W45807  12.872   8.308  12.556 -0.2706  0.0160  0.0715
29999W        W45808  12.503   6.207   2.512  0.0646  0.1109  0.0560
30000W        W45809   5.369   6.391   5.623 -0.4721 -0.1836  0.4001
30001W        W45810  11.846   1.049  15.442  0.4496  0.1576 -0.3008
30002W        W45811  15.444  18.483  10.836 -0.2131  0.1177 -0.1666
30003W        W45812  12.401  13.103  13.250 -0.2302  0.1151 -0.0655
30004W        W45813   1.366  16.205  14.778 -0.2199  0.0186 -0.2231
30005W        W45814   7.358  13.059   4.555  0.0785 -0.4991  0.0681
30006W        W45815   6.379   3.679   1.576 -0.0737 -0.0943  0.1834
30007W        W45816  16.476  16.923  13.984  0.4594  0.2565 -0.2660
30008W        W45817   1.841   3.049  14.216  0.1057  0.1518  0.0420
30009W        W45818   2.267   9.664  12.808 -0.1207  0.2659  0.1473
30010W        W45819  11.852  16.676   0.435  0.2501  0.1880  0.1393
30011W        W45820  10.979  15.845  14.453 -0.1013  0.4907  0.0944
30012W        W45821   4.474   2.837  10.755 -0.2260  0.2019  0.1323
30013W        W45822  15.549  17.962   3.466  0.0618 -0.0016 -0.2363
30014W        W45823  15.090  16.356  11.658 -0.0613  0.2978  0.2169
30015W        W45824  13.443   0.003  10.946 -0.1100 -0.0052  0.2752
30016W        W45825  11.055  13.325  14.253  0.1852  0.0349  0.0804
30017W        W45826   0.493  18.098   1.600  0.0412  0.1226 -0.1127
30018W        W45827   0.971   2.859  11.379 -0.3946 -0.2855  0.1061
30019W        W45828   9.924  16.038   4.310  0.1091  0.1626 -0.1459
30020W        W45829   0.317   7.666  11.543 -0.1585  0.0174  0.1452
30021W        W45830  11.054   6.490   3.909  0.0520 -0.2257  0.1393
30022W        W45831   1.495   5.493   3.962  0.0308 -0.0859 -0.0873
30023W        W45832   9.929   9.974  11.967  0.1162 -0.3844  0.1408
30024W        W45833   2.022   9.899  11.473 -0.1234  0.3899 -0.1262
30025W        W45834   6.907   6.712   2.292 -0.0917  0.0976 -0.1229
30026W        W45835  10.687  12.942   1.984 -0.2817  0.1466 -0.0246
30027W        W45836   3.356  12.577   4.230  0.0831  0.1496 -0.4608
30028W        W45837   4.966  13.470  10.425  0.1321 -0.0640 -0.2274
30029W        W45838   2.462   8.679   0.776  0.0406  0.0017 -0.1179
30030W        W45839  16.761   9.669   0.679  0.0462  0.1372 -0.1341
30031W        W45840  15.744  15.117  15.225  0.2203  0.2788  0.0338
30032W        W45841  11.545  12.515   3.071 -0.0105  0.0569 -0.0791
30033W        W45842   9.568   3.180   0.374  0.0913 -0.1852  0.1377
30034W        W45843   2.261   7.453  11.828  0.1043  0.0949 -0.0310
30035W        W45844   7.693   9.593   0.522  0.0967 -0.0508  0.3402
30036W        W45845  16.533  17.502   1.172 -0.2462 -0.2632  0.2658
30037W        W45846  16.549  11.374  13.893  0.1592  0.1201  0.0571
30038W        W45847   1.620   1.748   3.071  0.1265 -0.0504  0.0892
30039W        W45848   4.124   7.891   1.927  0.3985 -0.0596 -0.0974
30040W        W45849  12.451   1.070   0.371  0.0106  0.1128 -0.2227
30041W        W45850   2.925   9.497   2.369  0.0170  0.1773  0.2161
30042W        W45851  15.056   3.328  12.775  0.2372  0.1658  0.4033
30043W        W45852   3.601  16.948   5.322  0.0430  0.0889 -0.0196
30044W        W45853  18.103  12.701  12.035 -0.4269  0.2391  0.0772
30045W        W45854  11.461   4.018  11.034  0.0018  0.1545  0.0415
30046W        W45855  12.175  13.552  13.332 -0.0125  0.0413 -0.0600
30047W        W45856   5.455   7.626   4.927  0.1421  0.4104  0.1919
30048W        W45857   1.775  17.986  10.765 -0.0089 -0.1266 -0.1098
30049W        W45858  17.880   9.911   3.622  0.1942 -0.0808  0.2209
30050W        W45859   5.330  14.518   2.951 -0.0237 -0.1703  0.0730
30051W        W45860  10.277  18.038  13.188 -0.0200 -0.3769  0.0876
30052W        W45861   3.325  14.479  11.967 -0.1741 -0.2780 -0.1205
30053W        W45862  15.202  11.149   4.584 -0.0783  0.1820 -0.1083
30054W        W45863  10.399  10.505   4.111 -0.1354  0.1602 -0.4632
30055W        W45864   0.060  16.233   2.343 -0.0082  0.0386  0.0397
30056W        W45865  10.385  15.923  14.370  0.0757 -0.1160  0.0388
30057W        W45866  17.076  13.947  12.476 -0.3109 -0.2639  0.1455
30058W        W45867   2.107   6.277  13.325 -0.0207  0.0332  0.0463
30059W        W45868   7.689   7.671  12.601  0.1268  0.0423 -0.1752
30060W        W45869  17.156   5.485   2.926 -0.1105 -0.3925  0.1067
30061W        W45870  11.498  15.156  14.097 -0.0912 -0.0050  0.2018
30062W        W45871   3.931  13.270   5.554  0.1713  0.0533  0.1681
30063W        W45872  17.616  10.521  14.918  0.0513 -0.2461 -0.3291
30064W        W45873  11.623  16.686  14.339  0.2407  0.1197  0.1433
30065W        W45874   3.563   5.176   1.780 -0.0029 -0.2412  0.1604
30066W        W45875   0.252   7.559   4.196 -0.3259 -0.1899  0.1879
30067W        W45876   7.239  18.609   1.966  0.3156 -0.1626 -0.0381
30068W        W45877   7.065   1.955   2.202  0.0134  0.2087 -0.0260
30069W        W45878  13.597  16.381   2.485  0.1145 -0.0761 -0.0702
30070W        W45879  13.758  15.580   1.427 -0.0766  0.0283 -0.2028
30071W        W45880   3.823   1.170   4.835 -0.4669  0.0556  0.0645
30072W        W45881  15.062   0.897  12.300  0.0525 -0.0440  0.2602
30073W        W45882   9.820  11.004  12.790 -0.0688  0.3139  0.1247
30074W        W45883   7.839  15.458  11.374 -0.0106  0.2072 -0.1269
30075W        W45884  14.611  15.654   0.079 -0.0145  0.3044 -0.4822
30076W        W45885  17.388   2.331  13.810  0.3882 -0.2652  0.1638
30077W        W45886   9.198   6.325  11.349  0.0019  0.3010 -0.2073
30078W        W45887  11.087   7.487   0.670  0.0660 -0.1504  0.0034
30079W        W45888   7.583   6.842  11.754 -0.0517 -0.0670 -0.0668
30080W        W45889  10.874   0.554  15.380  0.0293  0.0101  0.0378
30081W        W45890   2.799   9.682  11.925  0.0557  0.1265 -0.1531
30082W        W45891  16.668  10.262   3.837  0.0089  0.4670  0.0528
30083W        W45892   2.667   3.252  14.746 -0.2681  0.2425  0.0048
30084W        W45893   4.817   0.549  13.045 -0.5511 -0.0435  0.0043
30085W        W45894   5.464   9.803   0.689 -0.0200  0.2996 -0.0811
30086W        W45895   6.436  15.483   9.460 -0.2879 -0.1054 -0.1729
30087W        W45896  11.064  17.170  12.420 -0.2586 -0.1049  0.0069
30088W        W45897   2.052  13.240  13.782  0.0059  0.5032 -0.3141
30089W        W45898  15.100   5.248  12.426  0.1708 -0.1367  0.0160
30090W        W45899  16.288   7.119  12.320  0.1370 -0.0392  0.2310
30091W        W45900  10.665  16.062   1.076 -0.0541  0.5798  0.0559
30092W        W45901  13.485  10.914   2.442 -0.2213  0.0347  0.0210
30093W        W45902  12.479   3.778  10.230 -0.0223  0.0280  0.0518
30094W        W45903   3.354   0.312   2.358 -0.0802  0.2688 -0.2095
30095W        W45904  13.921   2.042   4.328 -0.3239 -0.0241 -0.1247
30096W        W45905   5.481  15.524   2.943  0.1820  0.0787  0.1373
30097W        W45906  10.134   1.197   0.895  0.2943  0.0831 -0.2023
30098W        W45907   6.164  13.303   4.348 -0.2125 -0.2670  0.1501
30099W        W45908   9.165   3.614  15.320 -0.0673  0.0346 -0.1708
30100W        W45909   6.589   2.569  14.595 -0.2125 -0.0096 -0.2771
30101W        W45910  11.999   5.050  11.061 -0.1573  0.0371 -0.0123
30102W        W45911  18.181   2.312   4.453  0.1084 -0.0548 -0.1732
30103W        W45912   0.051   5.897  10.217 -0.0012  0.1297  0.1644
30104W        W45913   9.276  17.941  13.229 -0.2520  0.0112  0.1473
30105W        W45914  10.570   2.180  12.558 -0.1457 -0.0896  0.0304
30106W        W45915  17.395   4.044  14.384 -0.1659  0.4739  0.0771
30107W        W45916   7.687   0.815  11.150 -0.1643 -0.0881  0.2213
30108W        W45917  12.799   9.969   1.820 -0.0638 -0.2545  0.3051
30109W        W45918  15.701  18.215  13.083 -0.0237 -0.0525 -0.0209
30110W        W45919   1.653  17.949   3.642  0.2000 -0.0343 -0.1752
30111W        W45920   0.787   8.566  13.569  0.1769  0.2198  0.0928
30112W        W45921  17.734  11.773  12.900 -0.0647 -0.1493  0.2280
30113W        W45922  14.764  16.796  14.381  0.0107  0.2330 -0.2191
30114W        W45923   4.994  16.393  13.830 -0.2208 -0.2245 -0.0722
30115W        W45924   7.590   0.563  14.144  0.0955  0.4384 -0.0404
30116W        W45925  17.385  15.052  12.853 -0.1217  0.2304 -0.2116
30117W        W45926  13.746   9.809  13.619 -0.0676 -0.0159  0.2159
30118W        W45927   9.478  13.625  11.289 -0.1330  0.2241  0.2632
30119W        W45928  11.429  15.733   0.888 -0.1175 -0.0520 -0.1031
30120W        W45929  16.652  14.403   2.998  0.1712 -0.1659 -0.1037
30121W        W45930  12.773   4.858   0.673  0.2398 -0.1285  0.2903
30122W        W45931   8.130  14.620  13.496  0.1653 -0.0486  0.2009
30123W        W45932   3.166   1.194   1.209  0.1791 -0.3320 -0.2891
30124W        W45933   8.935   6.243   3.166 -0.0106  0.0005  0.1245
30125W        W45934   6.805  13.116   1.719  0.0410  0.0462 -0.0539
30126W        W45935  18.018   4.303   1.127  0.0004 -0.1456 -0.2208
30127W        W45936  11.297  15.938   4.049  0.0068  0.2797 -0.1435
30128W        W45937  11.765  15.390   0.238  0.0583  0.2369  0.0002
30129W        W45938   5.620   3.410  10.973 -0.0070 -0.1125  0.0557
30130W        W45939   0.292   1.946  15.298  0.0929 -0.0673  0.0100
30131W        W45940  15.054   5.871   3.723  0.0610  0.1803 -0.3012
30132W        W45941  11.894   8.061   4.031  0.0576 -0.0352  0.2346
30133W        W45942   0.618  10.830  13.940 -0.1328  0.1217 -0.1048
30134W        W45943   2.196   1.811   4.009  0.0165  0.0609  0.2282
30135W        W45944   6.787   6.769   1.185 -0.0626  0.0368 -0.1412
30136W        W45945  15.692  14.503  12.904  0.0539 -0.1892  0.0033
30137W        W45946   1.154   5.024   4.174 -0.1609 -0.0883  0.2117
30138W        W45947  10.377  13.480  12.121 -0.1463  0.0544  0.1096
30139W        W45948  12.066  18.363   0.946 -0.1333 -0.0172  0.1038
30140W        W45949   5.450  11.790   3.598  0.4525  0.1718  0.1908
30141W        W45950   7.841   4.656   9.868  0.4490 -0.0331 -0.1332
30142W        W45951   1.659   3.263  11.658 -0.0467  0.1477  0.1191
30143W        W45952  10.282  18.432  14.691 -0.0999 -0.1631  0.2461
30144W        W45953  13.196  16.458  11.649 -0.1008 -0.0418 -0.1022
30145W        W45954  12.464   9.216   2.211 -0.0338 -0.0470  0.0649
30146W        W45955   4.971   4.212  14.165  0.1095 -0.1413  0.3255
30147W        W45956   6.037  13.027   3.145  0.2066 -0.1226  0.1786
30148W        W45957   4.220  16.549  13.895  0.0496  0.1511 -0.2387
30149W        W45958  10.296  14.497  11.714 -0.1265 -0.0672 -0.0105
30150W        W45959   6.915  11.705   4.116  0.0426 -0.0637  0.0479
30151W        W45960  14.727  13.098   0.921 -0.0103  0.0697 -0.2286
30152W        W45961  16.994  14.353   0.867 -0.3040  0.0802 -0.3266
30153W        W45962   5.591   9.817  13.072 -0.0761 -0.1166 -0.0213
30154W        W45963   1.217  14.785  12.337  0.0813  0.4118  0.0463
30155W        W45964  15.016  16.924   4.735  0.0334  0.0018  0.3777
30156W        W45965  18.040  15.706  10.670 -0.1396  0.0686  0.1692
30157W        W45966  15.792  10.940   3.781 -0.1279 -0.1242 -0.0539
30158W        W45967   8.033   7.105  15.510 -0.2427 -0.1799 -0.0364
30159W        W45968   9.708   7.185  14.277 -0.0334  0.2079  0.1722
30160W        W45969   5.674  17.248  13.733  0.3633 -0.2876 -0.2210
30161W        W45970   0.441  15.698  14.655 -0.0920  0.0510 -0.1407
30162W        W45971   7.121   2.047   0.173 -0.1247 -0.2159  0.0763
30163W        W45972   5.035  11.972   3.837  0.3446  0.1408 -0.0182
30164W        W45973  11.991   6.803  14.541  0.1707  0.4452 -0.0552
30165W        W45974   9.654  10.020  12.876 -0.4515  0.3203  0.1812
30166W        W45975  15.560  17.338   0.724  0.1476 -0.1425 -0.0755
30167W        W45976   7.742   3.767   1.952  0.4843  0.0663 -0.0447
30168W        W45977   5.662   5.367  15.003  0.0731  0.0412  0.0358
30169W        W45978   6.112  14.966  10.942  0.1295 -0.3557 -0.1431
30170W        W45979  10.220   1.969  11.842  0.1346 -0.0321 -0.1288
30171W        W45980   5.195  12.203   5.098 -0.1138 -0.1806 -0.0113
30172W        W45981   5.840  12.104   0.691 -0.3437 -0.1645 -0.1184
30173W        W45982   0.268   2.871  14.528 -0.2918  0.2635 -0.1952
30174W        W45983   7.193  17.108  14.082  0.0710  0.2752 -0.0989
30175W        W45984   6.080   4.303   2.088  0.0006  0.1910 -0.0130
30176W        W45985   3.118  18.363  13.575  0.2272 -0.0318 -0.1197
30177W        W45986  17.608  12.321  13.765  0.0236 -0.0501  0.0914
30178W        W45987   6.763  17.414   4.674  0.3077  0.1316  0.1369
30179W        W45988   5.268   7.098   0.666  0.0515 -0.1022  0.1656
30180W        W45989   2.270   9.646   4.346 -0.2480  0.0524 -0.1137
30181W        W45990  14.041   1.866   3.653  0.0247 -0.1247 -0.1247
30182W        W45991   5.894  16.113  11.566 -0.0333  0.0718 -0.2985
30183W        W45992   3.698  14.472  14.711 -0.0963 -0.1585  0.2213
30184W        W45993   9.382   3.616   5.515  0.2080 -0.2517  0.1071
30185W        W45994   4.356  10.062  15.468 -0.2362  0.0882  0.0343
30186W        W45995  18.513   2.533   3.748  0.0619 -0.0755  0.1242
30187W        W45996  10.328   3.383  13.879 -0.0562  0.0650 -0.2648
30188W        W45997  15.471  10.580   3.958  0.0955  0.1556  0.0029
30189W        W45998   2.679  16.737   4.401 -0.0966  0.1650  0.5887
30190W        W45999  10.700   3.516  11.551 -0.3816 -0.1478  0.0364
30191W        W46000   5.350  11.542  13.431  0.2948  0.3243 -0.0191
30192W        W46001  14.421   3.081   1.376  0.0506  0.0918  0.0667
30193W        W46002   1.886   7.197  13.696  0.0191 -0.1376 -0.1227
30194W        W46003   3.160  10.628  12.076 -0.1551 -0.3532 -0.1792
30195W        W46004   6.842   3.813   9.843 -0.1509 -0.0408  0.4304
30196W        W46005   0.560  11.720  13.123 -0.0555 -0.2231 -0.1537
30197W        W46006   9.530  18.041  10.203  0.1868  0.3675 -0.0064
30198W        W46007  13.250  13.441  13.144  0.2998  0.2261  0.1655
30199W        W46008  11.532  13.449  12.260  0.1107 -0.1896 -0.1710
30200W        W46009   3.949   1.099   1.027 -0.0258  0.0388  0.0037
30201W        W46010  15.006  12.623   2.612  0.0781 -0.3657  0.2817
30202W        W46011   1.246   3.596   2.198 -0.0425 -0.0038 -0.2205
30203W        W46012   3.354   5.494   3.614  0.0425 -0.1148  0.0095
30204W        W46013   0.121   8.514  14.071 -0.2088  0.2024 -0.0624
30205W        W46014   3.739  16.147  12.519 -0.0018  0.0279  0.1362
30206W        W46015   7.406   0.478   3.751  0.0294 -0.1792  0.3004
30207W        W46016   1.472   4.070   2.394 -0.1492  0.2358  0.2149
30208W        W46017   3.358  11.863   3.018 -0.1565 -0.1059 -0.0749
30209W        W46018  12.015   5.910  15.568  0.0252  0.1553  0.2307
30210W        W46019  13.146  15.898  12.899  0.0276  0.0124  0.0730
30211W        W46020   7.662  13.909   5.488 -0.0200 -0.0567 -0.0042
30212W        W46021  17.308   9.614  13.740  0.3517 -0.2958  0.0529
30213W        W46022   9.143   3.330   4.240 -0.4223 -0.0439  0.1962
30214W        W46023  10.286   5.362  11.638 -0.1064 -0.0885  0.0989
30215W        W46024   5.778  16.613  14.019  0.1213  0.2353  0.0742
30216W        W46025  12.419   1.930  15.161  0.0392 -0.1664 -0.2800
30217W        W46026  11.478   5.948   0.166 -0.0246 -0.5469 -0.3432
30218W        W46027   0.986   1.790   1.446  0.2739  0.3304 -0.1548
30219W        W46028   5.388   6.378   1.452 -0.3983 -0.2364  0.0965
30220W        W46029   8.113   0.322  10.980 -0.0590 -0.4462  0.4720
30221W        W46030   5.037  14.758  11.635 -0.2017 -0.0112  0.2414
30222W        W46031   3.491  17.569  10.671  0.0643  0.6182  0.0330
30223W        W46032   0.480  17.323   5.510  0.3766  0.0903 -0.2759
30224W        W46033   4.952  18.666   0.759 -0.2488  0.1651  0.3043
30225W        W46034   0.858   8.077  15.237  0.0075  0.0640 -0.0246
30226W        W46035   8.767  18.183   3.458 -0.1622 -0.3643  0.1598
30227W        W46036  16.565   2.003  14.208 -0.0257  0.1478 -0.2012
30228W        W46037   5.045  13.002   1.171  0.1778 -0.2515  0.0938
30229W        W46038  10.326  15.536  13.657 -0.3421  0.2812 -0.1703
30230W        W46039  11.764  14.190   4.436  0.1829 -0.0794  0.2567
30231W        W46040  14.904  12.521  11.403  0.0575 -0.2882 -0.0363
30232W        W46041   9.996  12.980  10.602  0.3075 -0.0141 -0.2485
30233W        W46042   2.609  18.404   1.336 -0.0338 -0.0579 -0.0122
30234W        W46043   6.921   0.897   3.058  0.2451 -0.1092 -0.2399
30235W        W46044  16.589  13.442   0.965 -0.0567  0.1982  0.0927
30236W        W46045   5.727   5.950   1.799 -0.1484 -0.2679  0.2301
30237W        W46046   2.998   8.897   1.213 -0.1904 -0.0952 -0.1407
30238W        W46047   2.090   8.598   1.114 -0.2592 -0.1553  0.1882
30239W        W46048   0.407  11.315  13.806  0.3470 -0.2376  0.1708
30240W        W46049  12.822  12.133  11.857 -0.1054 -0.0149  0.1820
30241W        W46050  12.693  13.255   1.133  0.2230  0.0666 -0.2250
30242W        W46051  12.662  10.736   5.500  0.2727  0.0436  0.2346
30243W        W46052  10.213   0.285   0.593 -0.1974  0.2540 -0.1700
30244W        W46053   2.173  17.879   2.618 -0.0867  0.0384 -0.0491
30245W        W46054   2.438  16.027  11.949 -0.1883 -0.2330 -0.0663
30246W        W46055  16.392   1.055   5.206 -0.2772 -0.2721 -0.0844
30247W        W46056  15.128  18.006   4.144  0.1339 -0.0914  0.0768
30248W        W46057  12.030  12.053  15.246  0.1252 -0.1944 -0.0043
30249W        W46058   0.731  18.285   1.155  0.0726  0.1657 -0.1067
30250W        W46059   3.605   3.495  13.564 -0.0271 -0.0399 -0.1266
30251W        W46060  13.891  16.060   0.048  0.2527  0.0030 -0.3092
30252W        W46061   9.057  11.259  14.204 -0.1787  0.0098 -0.1579
30253W        W46062  16.840   4.809  13.545  0.1219  0.4354 -0.0583
30254W        W46063   1.372   1.321   2.798 -0.0058 -0.0736 -0.1692
30255W        W46064   2.005   8.814   0.625 -0.2527  0.0502 -0.0009
30256W        W46065  15.903   3.121   1.333 -0.0233 -0.1291  0.2046
30257W        W46066  15.874   0.049  10.971 -0.2284 -0.0325 -0.2314
30258W        W46067  15.918  16.475  13.437  0.1543 -0.2142  0.0424
30259W        W46068   5.814  10.347  11.699 -0.3806 -0.0874 -0.0955
30260W        W46069  14.161  16.436   4.250  0.3152 -0.1275  0.0384
30261W        W46070  10.208  17.980   2.165  0.1618  0.0247  0.0384
30262W        W46071   0.018   4.648  15.060 -0.0574  0.1494  0.4589
30263W        W46072   4.750  13.689   2.848  0.0619 -0.1714  0.2189
30264W        W46073  12.885  18.312   1.041 -0.2011  0.1213  0.0876
30265W        W46074  11.478  12.956  15.081  0.0514  0.0698 -0.2073
30266W        W46075   7.635   6.104   4.897 -0.1727 -0.1765 -0.3351
30267W        W46076   3.531   1.105  13.750 -0.1974 -0.0386 -0.0122
30268W        W46077   6.917   3.796   4.308 -0.3695  0.2708 -0.0326
30269W        W46078   7.593  11.019  11.047 -0.3402 -0.2376 -0.2372
30270W        W46079   1.141  15.692  11.874 -0.0590  0.5085 -0.0866
30271W        W46080   1.466  11.642   0.874 -0.3224 -0.2021  0.0858
30272W        W46081   8.669   1.324  11.796  0.0297  0.0079  0.0140
30273W        W46082  11.502  11.980  13.872  0.1061  0.2169 -0.2940
30274W        W46083   1.768  15.289  12.706 -0.1739  0.0588  0.2110
30275W        W46084  13.645   8.884  12.769 -0.0154 -0.0988 -0.0004
30276W        W46085  11.756   9.793  12.041 -0.1630 -0.2672  0.2542
30277W        W46086   6.631  11.981  12.920 -0.0705  0.0993 -0.0326
30278W        W46087   3.625   6.197  13.812  0.3243 -0.2438 -0.1031
30279W        W46088  10.419  13.251  13.698 -0.3389 -0.1357  0.2971
30280W        W46089   6.770   9.963   1.541 -0.0038 -0.0372 -0.0004
30281W        W46090  11.724  17.365  11.919 -0.2091 -0.0808  0.0961
30282W        W46091  14.417  16.504  13.473  0.2147  0.4228  0.0490
30283W        W46092  14.551  17.191   1.550 -0.0668 -0.0596  0.1002
30284W        W46093   7.061  10.633   5.473  0.1082 -0.1662 -0.2573
30285W        W46094  14.177   4.752  12.426 -0.2224  0.0934  0.1739
30286W        W46095   4.761   3.596   4.426  0.1748 -0.1794 -0.0073
30287W        W46096   6.941  15.258   2.069 -0.0633  0.0464 -0.1600
30288W        W46097   3.674   1.853  12.647  0.0190  0.0211 -0.0327
30289W        W46098   0.640   9.939  13.614 -0.0921  0.0431  0.0915
30290W        W46099  18.117  15.646   3.899 -0.0091 -0.2410 -0.1191
30291W        W46100   5.835  17.567  11.380 -0.4339  0.1435 -0.1152
30292W        W46101   6.268   8.100  13.673 -0.0104 -0.1495 -0.2225
30293W        W46102  16.219  10.441   2.736  0.0264  0.1085  0.2498
30294W        W46103  15.538   4.517  12.423 -0.0133  0.0521 -0.0300
30295W        W46104  14.993   9.951  14.068 -0.1515  0.1374  0.0619
30296W        W46105   5.173   5.106  13.835 -0.1007 -0.1011 -0.0841
30297W        W46106   5.221  10.318  12.518 -0.4035 -0.0620 -0.0830
30298W        W46107  12.596  17.430  14.857 -0.1636 -0.0503  0.0976
30299W        W46108   5.125  11.116   1.437  0.0437 -0.0502  0.2505
30300W        W46109  12.938   3.187  12.850  0.0249  0.0803 -0.1673
30301W        W46110   6.361   8.966  12.693  0.0075 -0.0108 -0.0035
30302W        W46111  17.000   9.933   2.557 -0.0636  0.0186  0.2619
30303W        W46112   2.574  14.814   1.792  0.1411 -0.1275  0.0879
30304W        W46113   7.548   2.334   3.681  0.3367 -0.2602 -0.0043
30305W        W46114   2.630   3.177  12.097  0.3513  0.0887 -0.2440
30306W        W46115  12.760   6.112  11.372  0.1292 -0.1205 -0.0198
30307W        W46116  11.120   4.574   0.374 -0.0959 -0.0448 -0.1326
30308W        W46117   7.657   1.464   3.178  0.1395 -0.0961  0.0570
30309W        W46118   7.435   5.700  13.016 -0.1890  0.1642 -0.1903
30310W        W46119  16.690   7.060  13.055 -0.1355 -0.1710 -0.2925
30311W        W46120   1.842  11.558   4.789  0.2526  0.1670  0.1632
30312W        W46121   4.678  14.460  11.771  0.5355 -0.1534  0.2920
30313W        W46122  18.419   0.178   5.532 -0.0574  0.2576  0.0745
30314W        W46123  16.952   2.343  14.104  0.1423  0.0029 -0.0992
30315W        W46124  16.282  13.188  14.720  0.1828  0.2089  0.5525
30316W        W46125  17.484   0.467  13.321 -0.2655  0.1036 -0.1381
30317W        W46126   6.505  11.345   2.536 -0.0680  0.2263 -0.2972
30318W        W46127   8.719  10.601  13.982  0.2005  0.1402  0.0807
30319W        W46128  15.643  12.170   1.497  0.1744 -0.0184  0.0916
30320W        W46129   2.624   3.452  13.726 -0.3195  0.0904 -0.1888
30321W        W46130  13.600  15.777  15.201 -0.0709 -0.2527 -0.1875
30322W        W46131   4.409   6.948  11.511 -0.2875 -0.1399  0.2787
30323W        W46132   4.682   1.651   4.714  0.0906  0.0169  0.2097
30324W        W46133  10.388   5.467  11.065  0.0121 -0.2446  0.0850
30325W        W46134   1.929  13.186  14.283  0.0591  0.0281 -0.1842
30326W        W46135  17.763   0.575   4.438  0.2528 -0.2614  0.0672
30327W        W46136   0.062  15.952  11.432  0.0446 -0.1819  0.1219
30328W        W46137   3.096   5.710  10.471  0.0134 -0.0639  0.0635
30329W        W46138   8.930  13.131  11.984 -0.2029  0.0947 -0.0955
30330W        W46139  16.691   8.078   1.160  0.0355 -0.1805  0.0836
30331W        W46140  16.525  11.216   1.790 -0.1993 -0.2006  0.0174
30332W        W46141   4.725   1.076  11.021 -0.0278 -0.2237 -0.1132
30333W        W46142   4.569   5.068   0.338 -0.0062  0.0662  0.2046
30334W        W46143   4.514  16.509  15.269  0.3846 -0.0798 -0.1275
30335W        W46144  12.112   8.585   4.648 -0.2060  0.2106 -0.0199
30336W        W46145  15.216  16.240  13.936  0.0003 -0.0419 -0.0984
30337W        W46146  14.305  10.117  14.327 -0.3123  0.0931 -0.0799
30338W        W46147   1.411  10.823   1.194  0.4559  0.0678  0.0117
30339W        W46148  14.193  15.735   2.813 -0.0042 -0.0392 -0.0179
30340W        W46149   5.854   8.804   5.332 -0.0287 -0.1010 -0.0854
30341W        W46150   5.148  18.644   2.412  0.1092  0.1170  0.4666
30342W        W46151  17.097   4.066  15.066  0.2018 -0.2073  0.1617
30343W        W46152  10.583  16.865  13.538  0.1908  0.0361  0.1475
30344W        W46153   0.286   2.196   2.623 -0.1768 -0.0810 -0.1965
30345W        W46154   3.192   7.945  15.465  0.2317 -0.3427  0.0034
30346W        W46155   3.552  11.758  14.142  0.0093  0.0841  0.1707
30347W        W46156   5.947   6.918   3.258  0.0499 -0.0484  0.0034
30348W        W46157  17.449  13.743  12.709  0.0889 -0.0307  0.2574
30349W        W46158  13.641  14.367   0.628  0.2296 -0.4370  0.0501
30350W        W46159  10.149   7.464   5.825  0.0088  0.2371  0.0718
30351W        W46160   1.536   7.314   2.558  0.3949  0.0656  0.3630
30352W        W46161  14.876   2.584  13.073 -0.0664 -0.2503  0.0150
30353W        W46162   1.084  17.059   4.395  0.2445  0.0219  0.2970
30354W        W46163   0.169   6.690   1.182 -0.1070 -0.1100  0.0363
30355W        W46164   4.801  13.462  15.100 -0.1424  0.0567 -0.0635
30356W        W46165  16.174   5.450  14.022 -0.0915 -0.1142  0.1902
30357W        W46166  14.286   6.931   3.316 -0.1225 -0.2685  0.0557
30358W        W46167   7.728  15.511   1.554  0.1141  0.0933 -0.0152
30359W        W46168   1.724  12.215  11.492 -0.1618 -0.1659 -0.0083
30360W        W46169  11.480  17.349   3.830  0.1825  0.2595 -0.1090
30361W        W46170   5.203   9.224  15.001  0.1604  0.1947  0.0389
30362W        W46171   2.442  17.226   4.414 -0.1315  0.0960 -0.0336
30363W        W46172   1.828   1.281  13.431  0.0804  0.0438 -0.0142
30364W        W46173   9.876   5.851  15.105  0.0827  0.0343  0.3948
30365W        W46174   8.468   7.338   4.040  0.3023 -0.1740  0.1709
30366W        W46175  11.900   4.370  14.513  0.0436  0.0709 -0.2030
30367W        W46176   2.556   9.376  13.186 -0.3885 -0.1505 -0.0464
30368W        W46177  15.242   1.351   2.444  0.0024 -0.1080 -0.0858
30369W        W46178  14.876   8.314   1.488  0.1077 -0.1770 -0.1648
30370W        W46179   8.418   3.920   0.113 -0.0160  0.2383  0.3471
30371W        W46180   5.527   0.622   2.479 -0.2579 -0.0556 -0.0284
30372W        W46181   6.314  15.664  13.692 -0.1489 -0.1581  0.0346
30373W        W46182  13.486  14.967   4.480 -0.2659  0.2457 -0.0676
30374W        W46183   9.081  14.530  10.520  0.0199 -0.0788  0.2435
30375W        W46184   3.318  12.120   2.012 -0.1473  0.0940 -0.0934
30376W        W46185  18.476  13.528  15.402  0.0662 -0.2180 -0.1377
30377W        W46186   5.457   3.696   4.911  0.2960 -0.0687 -0.0184
30378W        W46187   0.570  16.414   0.904  0.0677  0.0124  0.0711
30379W        W46188   6.298  16.203   3.504 -0.0779  0.0725 -0.0107
30380W        W46189   1.830  12.181   1.738  0.3883 -0.3370  0.1929
30381W        W46190  16.854  13.177  11.869  0.0807 -0.0510 -0.3853
30382W        W46191  10.500   7.971  15.263 -0.1322 -0.0201 -0.2808
30383W        W46192   1.262  11.269  12.427 -0.0228  0.1271 -0.0154
30384W        W46193  14.483   4.199   2.597  0.1129 -0.1879  0.3114
30385W        W46194   6.949  13.502  13.673 -0.2489 -0.2121  0.0744
30386W        W46195   6.348   8.100   0.489 -0.0023  0.3445 -0.1407
30387W        W46196   9.606  17.532  14.875 -0.2524 -0.1901 -0.1234
30388W        W46197  16.151  17.794   1.325  0.1483  0.0650  0.2429
30389W        W46198  17.162  11.807   5.142  0.0891 -0.2481  0.1460
30390W        W46199  12.173  16.048  14.771 -0.4109  0.1661 -0.2925
30391W        W46200  11.879   3.359  13.536  0.0593  0.2213  0.0037
30392W        W46201  17.465  13.942  14.655 -0.2700  0.1453  0.1133
30393W        W46202  14.267   4.071   4.844 -0.0106  0.1572  0.3402
30394W        W46203  17.220  18.539   4.688 -0.0471 -0.2991 -0.2270
30395W        W46204  16.309  15.398   3.730  0.1032  0.1270  0.1616
30396W        W46205   1.085  10.125   2.876 -0.1267 -0.1069  0.1372
30397W        W46206   7.498  14.551  11.115  0.1748  0.0722  0.2583
30398W        W46207   6.540  10.736  12.266 -0.0172  0.1716 -0.2654
30399W        W46208   9.161  14.228   3.996 -0.0350  0.2049  0.0460
30400W        W46209   9.270  18.222   5.554  0.0104 -0.1352  0.1097
30401W        W46210   0.344   4.778  12.072  0.1497 -0.0275 -0.0608
30402W        W46211   6.836   6.539  11.507 -0.0095  0.2213 -0.0448
30403W        W46212  10.916  15.770  10.840  0.1778  0.0189  0.1502
30404W        W46213  12.309  12.038   1.019 -0.0138  0.1200  0.0154
30405W        W46214  14.450   9.031   4.864  0.0424 -0.1712  0.1545
30406W        W46215  17.847  18.660   0.383  0.0635 -0.3131  0.0018
30407W        W46216  18.566   0.104   0.940  0.1516  0.2067 -0.1933
30408W        W46217   8.848  12.509  12.064  0.1268 -0.1400 -0.1148
30409W        W46218  14.203  14.516  14.330  0.1042 -0.0392 -0.0099
30410W        W46219  10.476   3.195   5.385 -0.1007 -0.1512  0.2085
30411W        W46220  11.392   7.002   5.402 -0.0122 -0.0828  0.0647
30412W        W46221  15.033  14.846  12.568  0.0727 -0.2447  0.1361
30413W        W46222  11.935  14.504   1.218 -0.1178  0.1911 -0.2917
30414W        W46223  18.283   9.899   4.976  0.0160  0.2524  0.1881
30415W        W46224   7.984  18.632   3.119  0.1919  0.0026 -0.1056
30416W        W46225   8.139   7.741   0.758 -0.1459 -0.0967 -0.0057
30417W        W46226  10.100   1.989   1.478 -0.0269 -0.1436  0.2298
30418W        W46227   4.006   0.558  13.945 -0.0565 -0.1423  0.1416
30419W        W46228  14.917   0.032   3.111  0.1059 -0.1288  0.0199
30420W        W46229   6.801   3.950  11.061  0.1271 -0.2323  0.1901
30421W        W46230  10.421   4.225  13.888 -0.0429 -0.2342  0.0028
30422W        W46231   8.924   2.532  14.485  0.0928 -0.0151 -0.1626
30423W        W46232   7.556   5.825   3.945  0.0735 -0.1827  0.1091
30424W        W46233   2.314   6.216   3.963  0.4942 -0.1919 -0.0286
30425W        W46234  11.381  16.890   4.042 -0.0018 -0.1136 -0.1777
30426W        W46235  18.558  18.189   3.249  0.2529 -0.2446 -0.0034
30427W        W46236   3.880  11.964  12.597 -0.0401  0.0193  0.3103
30428W        W46237   1.475   8.215   2.332  0.0458  0.3027  0.0008
30429W        W46238   2.279   6.973  11.840  0.0330 -0.0219  0.0801
30430W        W46239  12.555  16.157  10.651  0.4940 -0.0813 -0.0580
30431W        W46240   4.004   6.809  11.714  0.0618 -0.0297 -0.1292
30432W        W46241   4.905   0.599  10.783 -0.0476  0.0644 -0.0459
30433W        W46242  12.536  11.600   1.418  0.0277  0.0563 -0.1065
30434W        W46243   3.401  15.646   6.270  0.3032 -0.2837  0.1752
30435W        W46244   6.174  10.288   0.309 -0.0989  0.1683  0.1605
30436W        W46245  11.205   6.551   1.402  0.3375 -0.3151 -0.1307
30437W        W46246  17.131   2.737   2.538  0.0384 -0.2274  0.0425
30438W        W46247   1.294   7.133   3.625  0.3022  0.0594 -0.1872
30439W        W46248  15.885  10.477  15.199 -0.0241  0.0422  0.3017
30440W        W46249   4.849   7.152  12.273 -0.1174  0.0377 -0.0402
30441W        W46250  10.504  11.272  12.102 -0.1695 -0.1142  0.2203
30442W        W46251  16.019   6.390   2.885 -0.0466  0.0544  0.1763
30443W        W46252   4.783   6.849  13.107  0.1588  0.0282 -0.2190
30444W        W46253  15.281  13.264   3.427 -0.0070  0.2913 -0.0650
30445W        W46254   3.612   3.034   5.078 -0.0709  0.2417 -0.3803
30446W        W46255   5.964  13.503   2.207 -0.1732 -0.2745  0.1305
30447W        W46256   0.917  11.713  10.021 -0.0019 -0.1343  0.0131
30448W        W46257  17.682   8.536   0.370  0.1770  0.1655 -0.3374
30449W        W46258   1.201  18.273  15.500 -0.1097  0.2738  0.0789
30450W        W46259   6.835  10.006  11.964  0.3314 -0.1112 -0.3224
30451W        W46260  10.293   2.262  13.105 -0.0870  0.0267 -0.2258
30452W        W46261   6.891   0.716   1.565 -0.0855  0.0534 -0.0280
30453W        W46262  10.176   1.576   3.108 -0.1955 -0.1162 -0.1105
30454W        W46263  13.353  15.495  13.750  0.0882 -0.1240  0.3699
30455W        W46264  11.635   8.990  14.799  0.0640  0.0181 -0.2234
30456W        W46265  11.996   2.916   4.025  0.3360 -0.2241 -0.1104
30457W        W46266   6.790  18.529   3.156  0.0729 -0.2474 -0.2357
30458W        W46267   7.363  18.146  13.564  0.1402  0.1014  0.3094
30459W        W46268   0.531   0.621  11.810 -0.1165 -0.1290 -0.0765
30460W        W46269  16.056   0.781   2.717  0.2362 -0.1885  0.0876
30461W        W46270   8.976   3.107  14.150 -0.0823  0.0416  0.1855
30462W        W46271   6.763   1.821  12.946  0.0812 -0.0056  0.0412
30463W        W46272  11.234  13.655   4.899  0.2769  0.0914 -0.0997
30464W        W46273   6.556   1.456   1.059  0.0527 -0.3294 -0.0634
30465W        W46274  12.946  11.881   1.465 -0.1379 -0.0557 -0.0036
30466W        W46275  15.159   3.101   3.825  0.0616  0.1774 -0.0498
30467W        W46276  17.020   3.847   4.227 -0.1960 -0.1478  0.2802
30468W        W46277  16.026   0.857  14.969 -0.0316 -0.0780  0.0222
30469W        W46278   5.368  17.739  15.039  0.1685 -0.2575  0.0902
30470W        W46279   1.540   9.040   2.335 -0.0081  0.2546  0.2542
30471W        W46280  12.788  10.076  11.816 -0.0647 -0.0656  0.0091
30472W        W46281  12.454  14.268  11.750 -0.1194  0.2248  0.2129
30473W        W46282  16.167  14.733   0.963  0.0075  0.0101 -0.0938
30474W        W46283  14.934   4.041  14.573  0.0970 -0.3507  0.0208
30475W        W46284   2.322   1.199   2.318 -0.2095 -0.1740 -0.2281
30476W        W46285   4.084   6.174  14.181  0.2564  0.1872  0.1857
30477W        W46286  11.292  17.178   1.560  0.4004 -0.1128  0.1242
30478W        W46287   3.183  17.457   3.983 -0.0913  0.2088 -0.5489
30479W        W46288  10.847  15.387   1.051  0.0651  0.1677  0.0788
30480W        W46289  10.782   1.142  14.628  0.1766 -0.3261  0.0863
30481W        W46290   9.153   7.421   2.058  0.0227 -0.1594  0.2285
30482W        W46291  13.633  15.234   5.028  0.0805  0.2144  0.0628
30483W        W46292  16.157   5.976  14.728  0.1812  0.3112  0.0153
30484W        W46293  11.346  15.540  15.174 -0.1712 -0.3028 -0.0499
30485W        W46294  11.807  17.217  11.442 -0.0974 -0.1418  0.1703
30486W        W46295   5.048  17.915  15.431 -0.3909 -0.2268  0.0172
30487W        W46296  16.353   2.912  11.776 -0.0309 -0.0630  0.0315
30488W        W46297   8.826  17.922   3.884  0.2112 -0.0042  0.2118
30489W        W46298   4.457   7.996   4.070 -0.0883 -0.0921  0.0713
30490W        W46299  17.867   6.288   0.524  0.0031  0.5506 -0.2635
30491W        W46300   6.639   7.208   2.276 -0.1918 -0.0156 -0.1362
30492W        W46301  16.644   3.513   3.971  0.0789 -0.1072  0.0007
30493W        W46302   7.497   3.758   0.653  0.1251 -0.2259 -0.1370
30494W        W46303  18.560   1.989  15.606  0.0377  0.1300  0.3414
30495W        W46304   1.138   7.373   3.184 -0.0501  0.0401  0.2280
30496W        W46305   1.733   1.268   3.786 -0.1906 -0.3001 -0.1180
30497W        W46306   9.933   0.182  15.491 -0.0665 -0.0386  0.2624
30498W        W46307   7.012   0.826   4.380  0.0744  0.0245  0.0020
30499W        W46308   1.503   8.524  12.633 -0.1004  0.2162 -0.2767
30500W        W46309  11.416  10.885   5.412 -0.1223 -0.0792 -0.1613
30501W        W46310  15.924  11.497  11.225 -0.2445 -0.3570  0.1410
30502W        W46311   6.241   7.661   3.802  0.1327  0.0979  0.0619
30503W        W46312  10.426  10.575  14.649  0.1183  0.1089 -0.0608
30504W        W46313  16.564  15.785   1.325 -0.4604 -0.0753 -0.1080
30505W        W46314  12.780  11.878  14.184  0.0568 -0.1176  0.2993
30506W        W46315  14.151   8.216  11.253 -0.1265 -0.0855 -0.1997
30507W        W46316  16.445  17.923   0.133 -0.1187  0.1039  0.1556
30508W        W46317  14.371  15.153   0.075  0.2301 -0.3110 -0.1118
30509W        W46318  12.837  10.374   0.459  0.2920 -0.0260  0.2059
30510W        W46319   9.877  10.371   2.351 -0.1652  0.0998 -0.2675
30511W        W46320   0.758  15.897   4.370 -0.0990  0.0964 -0.0055
30512W        W46321  11.845  10.960  14.107  0.1208  0.0935 -0.2185
30513W        W46322   7.846  12.259   1.814  0.1242  0.0178 -0.1388
30514W        W46323   0.347   8.623  11.788 -0.1449 -0.0038 -0.0559
30515W        W46324  14.345   5.977  15.303 -0.0411 -0.0333  0.0348
30516W        W46325  13.499   6.614  13.363  0.0797 -0.3257 -0.2610
30517W        W46326  14.761   8.995  10.303 -0.0545  0.0722  0.1488
30518W        W46327  16.803  15.696  11.315  0.0151  0.3345  0.3443
30519W        W46328  15.757   6.947   1.689  0.1723 -0.1413 -0.2791
30520W        W46329   9.360   8.281  12.220  0.3719 -0.2427  0.2196
30521W        W46330  15.719   3.360   4.286 -0.2904 -0.3556  0.1287
30522W        W46331  16.772  17.690  11.364  0.2394  0.0700  0.2584
30523W        W46332  13.089  15.579  15.069  0.0506  0.2151 -0.2469
30524W        W46333  13.200  16.013  10.320  0.2725 -0.2845  0.0102
30525W        W46334  10.132   6.993   3.639  0.1836 -0.0438 -0.1288
30526W        W46335   6.279  16.706  14.990  0.1163  0.0404 -0.1465
30527W        W46336   7.480   3.819   4.062  0.1604 -0.2201  0.4096
30528W        W46337  17.193  14.530  10.079  0.1896  0.1582  0.0384
30529W        W46338  16.364  10.427  12.548  0.2215  0.0413  0.0766
30530W        W46339  16.463  18.413  12.426 -0.2374 -0.0018  0.0213
30531W        W46340   2.197  14.864   2.725 -0.2202  0.2306  0.0095
30532W        W46341  12.954  17.581   2.158 -0.0980 -0.2822  0.0337
30533W        W46342  14.156   7.127   2.060 -0.0127 -0.1790  0.0344
30534W        W46343  13.062   3.275  12.387 -0.3332  0.1479 -0.1332
30535W        W46344  16.625  16.155  15.513 -0.2611 -0.1444 -0.2065
30536W        W46345   1.889  15.180  15.487  0.0922 -0.1110 -0.1131
30537W        W46346  13.645   6.628  15.359 -0.2699  0.0224 -0.4495
30538W        W46347  10.524   2.613  13.412 -0.0789  0.0027 -0.0732
30539W        W46348   0.025  15.014   1.610  0.0695  0.0524 -0.0188
30540W        W46349  14.322  13.928  11.522  0.2773  0.0257  0.0073
30541W        W46350   6.895  17.173   3.342 -0.2170  0.1681  0.1292
30542W        W46351  15.980   2.056   5.408  0.2920  0.0930  0.1959
30543W        W46352   2.378   1.412  10.873  0.0904 -0.1422  0.3169
30544W        W46353   7.976   1.940   0.379  0.0322  0.2143  0.1060
30545W        W46354  14.794  15.074   1.898 -0.3919  0.0579  0.2447
30546W        W46355   3.329   1.726   4.804  0.2557 -0.1699  0.0771
30547W        W46356   6.850  11.271  11.174 -0.2670 -0.0431  0.0396
30548W        W46357  16.046  13.515  14.449 -0.1068  0.0106 -0.0005
30549W        W46358   8.680   7.173  11.638 -0.0776  0.3948  0.0016
30550W        W46359  17.655  11.380   2.721 -0.0458 -0.1988  0.1677
30551W        W46360  12.710  11.578   4.286 -0.1806  0.1748 -0.1179
30552W        W46361  10.037   1.947  10.381 -0.2861 -0.2835 -0.0661
30553W        W46362  17.168   0.469   5.171 -0.0382  0.0098  0.1772
30554W        W46363  16.846  12.434  11.558 -0.2990 -0.2121 -0.2805
30555W        W46364   4.136  14.724  14.812 -0.3289 -0.1180  0.2584
30556W        W46365   0.178  13.790  11.443 -0.0035  0.2448  0.1008
30557W        W46366   8.352   4.675  13.479  0.0429 -0.0455 -0.2703
30558W        W46367  11.522  14.645   4.252 -0.1841 -0.1018 -0.2978
30559W        W46368   3.569  18.552   5.321  0.1012 -0.0699 -0.0794
30560W        W46369   6.548   9.284  13.094 -0.4545  0.0832  0.0740
30561W        W46370  11.688  13.884  13.731 -0.1618 -0.1241 -0.2886
30562W        W46371   6.966   9.332   2.015 -0.0894  0.3137  0.2062
30563W        W46372   2.839   8.340  14.523 -0.1595  0.1124  0.1732
30564W        W46373  12.858   8.281   1.230 -0.1051  0.1480 -0.2907
30565W        W46374  17.616  11.672   0.079 -0.3097 -0.0187 -0.1807
30566W        W46375  18.249  13.895  10.835 -0.2705  0.2191 -0.2719
30567W        W46376   4.442   4.434   1.165 -0.0805  0.1905 -0.2208
30568W        W46377  13.249  14.607  14.617 -0.0135  0.1301  0.0771
30569W        W46378   7.409  15.100  14.914 -0.1209 -0.3420 -0.4256
30570W        W46379   8.063  14.715   0.486 -0.2692  0.2824  0.0247
30571W        W46380  16.919  16.842   1.970 -0.1672 -0.0079  0.1799
30572W        W46381   8.575  16.949   2.702  0.4713  0.1726 -0.0408
30573W        W46382  17.377   0.660   2.095 -0.2009  0.3768 -0.1255
30574W        W46383   9.214  14.626   4.259 -0.0683 -0.0756 -0.0124
30575W        W46384  17.387   3.999   4.580  0.0602  0.1281  0.0463
30576W        W46385   6.108  15.434  10.609  0.1739  0.1422  0.2767
30577W        W46386   9.515  11.123   1.275 -0.2594  0.0697  0.3118
30578W        W46387   2.726  13.266  11.486 -0.2612  0.1308 -0.2022
30579W        W46388   6.178  11.825  10.851 -0.2284 -0.0480 -0.4684
30580W        W46389   6.521   5.441  12.904  0.2581  0.1542  0.4296
30581W        W46390   6.822  12.320   1.649  0.2554 -0.0440  0.0758
30582W        W46391   5.544   8.049   0.976  0.3518 -0.2607  0.4272
30583W        W46392   3.476  11.752   0.743  0.0879 -0.0782 -0.0148
30584W        W46393   9.389   8.331   3.019  0.3807 -0.0395 -0.2543
30585W        W46394   9.676   6.633   9.936  0.1009 -0.1807 -0.1023
30586W        W46395   4.690   4.029  15.175  0.0627  0.1745 -0.1150
30587W        W46396   2.660  18.434   5.092 -0.4433 -0.1990 -0.1066
30588W        W46397   3.242  13.730   4.462 -0.3512 -0.2395  0.0029
30589W        W46398   7.652  17.571  10.831  0.0628  0.1095 -0.1801
30590W        W46399   8.632  11.297   4.569 -0.1768 -0.0745  0.0848
30591W        W46400  16.184  17.986  12.528 -0.0734 -0.1879  0.4837
30592W        W46401  10.664  13.733  13.251  0.4531 -0.0321  0.2509
30593W        W46402   9.481   3.220  13.911  0.1843  0.4833 -0.1410
30594W        W46403  12.243   5.401  13.220 -0.0826  0.0105  0.0420
30595W        W46404  17.522  11.847   4.396 -0.2273  0.3598  0.0337
30596W        W46405   9.868  11.902   5.131 -0.1033  0.2300  0.0754
30597W        W46406   4.444   2.104  11.682  0.1160 -0.1994 -0.1883
30598W        W46407   9.946  11.846  15.430 -0.1102  0.0825 -0.3528
30599W        W46408   6.636  11.382   1.599 -0.1317 -0.0828  0.1495
30600W        W46409   9.007   0.931  11.581 -0.2631 -0.0225 -0.0147
30601W        W46410  12.002   1.289  12.498  0.0983  0.1154 -0.0320
30602W        W46411  14.673   3.652   3.649 -0.2889  0.0614  0.4566
30603W        W46412   4.359  14.543  15.196 -0.0387 -0.1500  0.1054
30604W        W46413  18.669   1.884  11.571  0.0698 -0.0350 -0.0037
30605W        W46414  17.395   7.784  12.820 -0.0040 -0.0275 -0.0950
30606W        W46415   5.733  18.001   1.122  0.4409 -0.1496  0.1170
30607W        W46416   5.839  17.599  13.361  0.0586 -0.2915 -0.0780
30608W        W46417  15.371   8.020  11.163  0.1172 -0.3176  0.1535
30609W        W46418   8.773   3.701   0.606 -0.0313  0.1504  0.1174
30610W        W46419  13.327  10.478  11.218  0.2806  0.1494 -0.0357
30611W        W46420   0.381   3.930  13.828 -0.0437  0.0134 -0.0156
30612W        W46421   9.698  10.338  13.316 -0.1982  0.0702 -0.1849
30613W        W46422  13.957  12.159   1.543  0.2099  0.0273 -0.0965
30614W        W46423   6.478   4.250   9.808  0.3553  0.0400 -0.1118
30615W        W46424  13.781  16.611   0.595  0.0826 -0.5330 -0.1885
30616W        W46425   8.846  16.052   0.760  0.0379 -0.1952 -0.0270
30617W        W46426   3.727  13.242  10.649  0.0695  0.0785 -0.1073
30618W        W46427  15.636   1.571   3.629  0.0832  0.1515 -0.0308
30619W        W46428  10.041   0.270  13.195  0.1411 -0.0306 -0.1082
30620W        W46429   7.853  10.314   2.117 -0.1262  0.0479  0.1075
30621W        W46430  18.529   3.829  15.531  0.2858 -0.1904 -0.0843
30622W        W46431  15.029  10.814   1.689  0.2346 -0.1906  0.1285
30623W        W46432   5.827  10.144   2.983  0.0320  0.0182 -0.2424
30624W        W46433  13.038   5.958  12.218 -0.0110 -0.2316 -0.2555
30625W        W46434  17.332   6.013   3.040 -0.2829 -0.0812  0.0916
30626W        W46435  10.478  16.324  11.722 -0.0003  0.3287 -0.0009
30627W        W46436  15.967  17.597   2.340  0.2338 -0.0950  0.4018
30628W        W46437  18.209  10.380  13.309  0.0728  0.0490  0.0773
30629W        W46438  14.647   1.934  13.360  0.2127 -0.0317  0.0961
30630W        W46439  11.438   9.462  15.129 -0.0349 -0.3996 -0.1637
30631W        W46440  14.229   3.787   2.289  0.0568  0.0204 -0.0287
30632W        W46441  16.547   6.765  10.329 -0.0496  0.0875  0.1369
30633W        W46442  16.447  11.168  11.199  0.1005 -0.0824  0.0892
30634W        W46443   4.162  15.727   3.434 -0.0213  0.4762  0.2089
30635W        W46444  12.039  10.198   2.914  0.1274  0.3743 -0.0261
30636W        W46445   4.472   0.127   0.753 -0.2810 -0.1667  0.0956
30637W        W46446  18.154  11.304  10.546  0.0671 -0.0632  0.0595
30638W        W46447  15.414   6.660   3.781  0.1032 -0.1322 -0.4003
30639W        W46448   0.256  12.758  12.417  0.0266  0.1062 -0.1253
30640W        W46449   0.642  11.625   2.950 -0.2979 -0.0887 -0.0467
30641W        W46450   9.189  15.438  11.746  0.0484  0.2684  0.0396
30642W        W46451   6.144   9.159   1.876 -0.0700 -0.1708  0.0563
30643W        W46452   0.671  12.607  13.664  0.3681 -0.3407  0.0206
30644W        W46453  12.628   5.904   3.479  0.1061  0.1135 -0.4157
30645W        W46454  15.106   6.181  10.742  0.1274 -0.2253  0.0367
30646W        W46455   4.222  17.378   0.473  0.0134 -0.2022 -0.2527
30647W        W46456  11.358  10.756  14.769  0.2630 -0.3858 -0.0517
30648W        W46457   4.875   8.812  13.667  0.0155  0.1452  0.1055
30649W        W46458   8.935   2.614  15.573 -0.0242 -0.2354 -0.0941
30650W        W46459   5.096  10.472   2.183 -0.1946 -0.0505  0.3043
30651W        W46460   1.564  18.328   3.994  0.3050 -0.0095 -0.0478
30652W        W46461  10.104  10.168  13.744  0.2502  0.3024 -0.1967
30653W        W46462  11.573   2.855  10.183  0.1910 -0.0867 -0.0899
30654W        W46463   8.561   5.164  14.094  0.1622 -0.0117 -0.0673
30655W        W46464  12.602  17.136   0.580 -0.0444  0.0759 -0.2059
30656W        W46465  15.869   9.870   3.991  0.0657 -0.0096 -0.1405
30657W        W46466   9.977  15.758   3.876 -0.1010 -0.2558  0.1513
30658W        W46467  10.462   7.185   3.249 -0.0803  0.2120 -0.1609
30659W        W46468   8.519  14.329  13.304 -0.0860  0.0621 -0.1244
30660W        W46469  14.905   6.708  10.710  0.1228 -0.3207 -0.4297
30661W        W46470   2.427  15.926  13.093  0.1686  0.2273 -0.0095
30662W        W46471   1.529   0.334   4.747 -0.0057 -0.0915  0.1117
30663W        W46472  14.106  14.338   0.504 -0.3254  0.1531 -0.0073
30664W        W46473  17.608   3.469  12.570  0.1249 -0.2540  0.0058
30665W        W46474  17.905   9.521   4.880 -0.1567 -0.3774  0.2684
30666W        W46475  18.032  17.079  14.471 -0.2301  0.0315 -0.1689
30667W        W46476   1.279   9.877   2.187 -0.1852 -0.0665 -0.2832
30668W        W46477  17.670  16.674  13.222  0.3472 -0.2983  0.1530
30669W        W46478  13.569   9.539  15.111 -0.0610  0.0578  0.1082
30670W        W46479   4.995  17.794   0.887 -0.2454  0.2311  0.0285
30671W        W46480  12.119  12.097   5.472  0.1393 -0.0075 -0.0896
30672W        W46481   2.405  13.440   1.956  0.0050 -0.1389  0.1814
30673W        W46482  17.117  16.422   4.175  0.1911  0.0089 -0.0540
30674W        W46483  16.847   8.007  13.711 -0.2922 -0.1045  0.0802
30675W        W46484   7.572   7.455  13.700  0.0829 -0.0169  0.0701
30676W        W46485  18.054   5.347  15.406 -0.2109  0.2700  0.0523
30677W        W46486  17.703  17.534  11.344 -0.2020 -0.3550  0.1371
30678W        W46487   2.325   6.368   0.584  0.0260  0.1148 -0.0836
30679W        W46488  18.038   9.037  10.907 -0.1525 -0.2631  0.0967
30680W        W46489  10.373  15.963   0.198 -0.0922  0.2304  0.1132
30681W        W46490  16.808   8.639   2.016  0.0153 -0.1865 -0.4042
30682W        W46491  14.651  12.519  13.294 -0.0135  0.2513  0.1472
30683W        W46492   6.327  17.760  11.141  0.0406  0.0974 -0.0382
30684W        W46493  16.130  14.802   9.784 -0.2641 -0.1788 -0.0670
30685W        W46494   3.655   7.170  14.183  0.1981 -0.0769 -0.3760
30686W        W46495  11.414  15.591   3.306 -0.2375 -0.1213  0.1246
30687W        W46496   5.873  14.473   2.184  0.0418 -0.0093 -0.0564
30688W        W46497  11.716   9.275  14.164 -0.0138 -0.0754 -0.0698
30689W        W46498   2.404   2.507  13.752  0.0253  0.0900 -0.1081
30690W        W46499   9.744   3.132   2.535 -0.2772 -0.3062  0.0642
30691W        W46500   7.688  13.309   4.813  0.0097  0.0839  0.2974
30692W        W46501  11.224   3.714  14.024 -0.1032 -0.1269  0.0099
30693W        W46502   7.901   9.736  14.834  0.2711 -0.0200  0.0780
30694W        W46503   6.966   9.336   3.003 -0.2639  0.0182  0.1615
30695W        W46504   8.940   3.565   4.631 -0.2829 -0.1190  0.1217
30696W        W46505   7.692  14.961   3.512  0.0774 -0.0512 -0.1560
30697W        W46506  11.974   9.727   0.403  0.3828  0.4874 -0.5103
30698W        W46507  13.763  12.730  12.871  0.2257  0.0823  0.0266
30699W        W46508  15.542   1.964  11.353  0.1150  0.2855  0.1301
30700W        W46509  16.504  13.337   1.450  0.0913 -0.1367 -0.2479
30701W        W46510   0.757  17.928  12.485 -0.1715 -0.0937 -0.0073
30702W        W46511   9.472   6.199  13.551  0.1357 -0.1762  0.0067
30703W        W46512  15.729   3.062  14.785 -0.0272  0.1533  0.4803
30704W        W46513   1.079  16.839   0.750 -0.0977  0.2245 -0.1450
30705W        W46514   6.477   1.254  13.606  0.0856  0.1480  0.0841
30706W        W46515   1.553  12.283  12.771 -0.0227  0.1153  0.0216
30707W        W46516   6.536   5.352  15.346 -0.2726 -0.3627 -0.0971
30708W        W46517   6.068   8.052   0.915  0.0209 -0.2207 -0.0384
30709W        W46518   6.973   3.011  13.210 -0.2924 -0.1925  0.2760
30710W        W46519   7.203  12.947  13.524 -0.2450  0.0890 -0.0690
30711W        W46520   5.268   5.124   1.442  0.1679  0.0333 -0.0171
30712W        W46521   6.584   9.083   2.139  0.0545  0.0198  0.1344
30713W        W46522  12.271  17.114  11.667 -0.1568 -0.0953 -0.1164
30714W        W46523  18.570  17.599   0.187 -0.1589  0.0488 -0.0624
30715W        W46524   8.493   9.644   3.402  0.0163 -0.0952  0.0304
30716W        W46525   1.911  10.036  10.237  0.3892  0.1151  0.6429
30717W        W46526   4.245  10.543  13.486  0.1092 -0.0409  0.2214
30718W        W46527  13.155  17.341   5.710  0.1433 -0.0688 -0.0217
30719W        W46528  11.621   4.687   1.912 -0.0897 -0.2776 -0.0476
30720W        W46529   5.994  12.065  12.273 -0.1050  0.0683  0.0097
30721W        W46530  16.089  16.566   2.522  0.0844  0.2675 -0.1176
30722W        W46531  17.800   4.129   2.097  0.1315  0.1280  0.1376
30723W        W46532  14.131   3.832   3.627  0.2607  0.3849  0.1219
30724W        W46533  14.343  15.766  13.030 -0.2497  0.0950 -0.0453
30725W        W46534   8.432  18.510  15.373  0.2056  0.2631  0.1686
30726W        W46535  18.230   8.002   0.601  0.0241 -0.1222  0.2006
30727W        W46536  15.735  13.110   3.230 -0.3475 -0.0207 -0.0353
30728W        W46537   8.674   6.085  11.725 -0.0371 -0.1814 -0.1377
30729W        W46538   8.240   0.878   4.188  0.0925  0.2771 -0.1012
30730W        W46539   1.912   1.592   0.370  0.2559  0.0829 -0.0406
30731W        W46540   0.020  10.725  10.366 -0.0901 -0.0997 -0.1485
30732W        W46541  10.712   8.436  11.963 -0.1264 -0.2369  0.1155
30733W        W46542  13.689   4.612  10.036 -0.1566 -0.1821 -0.1347
30734W        W46543  16.203   0.317   0.254 -0.0096  0.1219 -0.1247
30735W        W46544   7.040   6.615  11.067  0.1485  0.1946  0.0200
30736W        W46545  10.539  16.593   2.763  0.0269 -0.0744 -0.1984
30737W        W46546   0.934  17.745   1.901  0.0321 -0.0621  0.4232
30738W        W46547   8.982   2.176   5.176  0.2365 -0.3037  0.0349
30739W        W46548  10.593  14.678   6.336 -0.0896  0.2736 -0.0746
30740W        W46549   3.037   6.750   4.783  0.2717  0.3571 -0.0557
30741W        W46550   0.774  13.538   3.498  0.2778  0.1383  0.1825
30742W        W46551   3.172   8.030  12.036  0.1933 -0.0703  0.2384
30743W        W46552   2.985   9.864   1.057 -0.1766 -0.0612  0.2974
30744W        W46553  18.205   3.560  12.283 -0.0752  0.1070  0.2679
30745W        W46554   0.605  17.477   2.414 -0.0627 -0.3126  0.0869
30746W        W46555   2.151  11.715  13.270 -0.0419  0.1752 -0.2275
30747W        W46556  17.246  12.170  14.370  0.0059  0.2165  0.3699
30748W        W46557   1.432   3.888  10.819  0.2765 -0.1123  0.4527
30749W        W46558   3.651  14.975  12.809  0.0731  0.1020  0.0356
30750W        W46559  12.375   7.264   2.126  0.0113  0.1287 -0.1378
30751W        W46560   2.117   4.699  13.883 -0.3660 -0.1835  0.1036
30752W        W46561  16.645   7.314  14.864  0.0187  0.0899 -0.0647
30753W        W46562  11.691  16.515  13.857  0.0586 -0.2065 -0.0265
30754W        W46563  13.021   6.248   3.230 -0.1744 -0.1075 -0.1611
30755W        W46564   0.336  15.384  11.244 -0.0329  0.3547 -0.1566
30756W        W46565   0.303  10.016  14.931  0.1156  0.1887 -0.3231
30757W        W46566  15.851  17.170   5.270 -0.1223  0.3121  0.0413
30758W        W46567   0.732   1.987   2.466 -0.3205  0.1701  0.1198
30759W        W46568   2.752   6.224  13.244 -0.0650 -0.1562  0.0667
30760W        W46569   8.564   9.052   2.243 -0.1604  0.1487 -0.0043
30761W        W46570  10.317   1.653   1.110 -0.0318 -0.0851 -0.0675
30762W        W46571   9.773  17.287   0.082 -0.2101  0.1142 -0.1094
30763W        W46572   7.342   1.097   0.194  0.1756  0.1959 -0.4465
30764W        W46573  17.594  14.985   1.560 -0.1547 -0.0666  0.0056
30765W        W46574  15.141   6.578  15.459  0.3318  0.1513  0.1028
30766W        W46575  18.343   6.642  12.034  0.0001 -0.0919 -0.1868
30767W        W46576   9.077   7.839   0.381  0.1201  0.2402  0.0234
30768W        W46577  13.782  15.760  13.652 -0.0555 -0.1514 -0.0248
30769W        W46578   8.331  10.569   2.894  0.1895  0.2175 -0.2781
30770W        W46579   0.850  18.422  12.534 -0.1911  0.1732  0.3919
30771W        W46580   5.536  15.705  13.023  0.0454 -0.0921 -0.0791
30772W        W46581  15.945   4.527  13.027  0.0963 -0.0962 -0.3844
30773W        W46582  12.973   9.772  13.454 -0.0522  0.1794 -0.1050
30774W        W46583  16.677  14.712   0.543  0.0731  0.1742 -0.1071
30775W        W46584   9.969   9.415   2.670 -0.1928  0.1448 -0.1068
30776W        W46585  11.632   5.057   2.640 -0.3573 -0.0100  0.0449
30777W        W46586  11.651  15.514   6.128  0.2844 -0.1782 -0.2268
30778W        W46587   4.697   8.726  11.884 -0.0355 -0.1416  0.2927
30779W        W46588  15.485  13.158   4.459  0.0170  0.0898  0.2563
30780W        W46589  11.802  10.683  12.265 -0.1328  0.2452 -0.1714
30781W        W46590  13.851   9.574   4.215  0.1679 -0.3940  0.0406
30782W        W46591   9.433   0.148   3.209 -0.1753 -0.1636  0.0307
30783W        W46592  16.289  14.271  13.489 -0.0611  0.0939  0.0905
30784W        W46593  17.433  17.716  13.898  0.1872 -0.0417  0.1547
30785W        W46594  18.509  12.557  11.100 -0.0041 -0.2221  0.1949
30786W        W46595  12.294  13.059   3.443  0.2495 -0.3678 -0.0463
30787W        W46596   7.335  13.194   3.756  0.0667  0.3376 -0.1134
30788W        W46597  16.114  17.089  12.976 -0.0455 -0.2235  0.0177
30789W        W46598   8.949   4.280  15.384  0.1489 -0.1301  0.0702
30790W        W46599   7.229  13.237   2.080  0.0022  0.1573  0.0248
30791W        W46600   7.270  15.524  12.655  0.3013  0.1055  0.1494
30792W        W46601   6.206   0.386  13.914 -0.1060 -0.1455 -0.2503
30793W        W46602   2.457   8.056   3.924 -0.2142  0.2224 -0.1670
30794W        W46603  10.890   2.923   5.190  0.1667 -0.1145  0.4319
30795W        W46604   1.514   1.930   3.541 -0.2126 -0.0379  0.2530
30796W        W46605   8.975   6.440   2.290  0.0976 -0.0984  0.1180
30797W        W46606  14.579   6.816   2.100 -0.0504 -0.1155  0.2426
30798W        W46607  11.577  12.273   4.812  0.2885 -0.1911 -0.4040
30799W        W46608  12.479   3.184  11.389  0.1352 -0.0259 -0.2296
30800W        W46609  14.591   9.002   0.335  0.4169 -0.0979 -0.0140
30801W        W46610   7.075  16.585   3.579  0.3534  0.0071 -0.2664
30802W        W46611   0.915   0.524   2.506  0.3586  0.3810 -0.1769
30803W        W46612   4.582   7.848  10.565 -0.0387 -0.0956 -0.1557
30804W        W46613   9.516   3.951   0.599  0.2796 -0.1783 -0.0435
30805W        W46614   3.791   7.887   9.636 -0.1711 -0.1995  0.1349
30806W        W46615  14.163  15.267  10.990  0.3749 -0.2240 -0.0962
30807W        W46616  13.556  17.089   1.726  0.2560  0.0663  0.3488
30808W        W46617  14.484  15.104  11.370  0.1143  0.1350 -0.1669
30809W        W46618   5.235  12.349  10.768  0.2238  0.2102  0.3064
30810W        W46619  15.597  11.297  15.512 -0.0031 -0.2530 -0.0581
30811W        W46620  13.976  17.411   1.675 -0.0588  0.1022 -0.0025
30812W        W46621   2.802  12.237  13.495 -0.0899  0.0591  0.0110
30813W        W46622  12.340  15.848   5.114  0.0965  0.2941  0.0929
30814W        W46623   7.729   9.111   2.886 -0.1188 -0.0383  0.0653
30815W        W46624   8.030  13.157   9.946  0.1132 -0.0758 -0.0555
30816W        W46625  18.196   7.103   1.103  0.1180  0.0432  0.0646
30817W        W46626  13.398   5.549   3.162 -0.1028  0.0698  0.2967
30818W        W46627   3.972  12.882  12.897  0.1126  0.0254  0.1752
30819W        W46628   9.631   0.050   4.700  0.2958 -0.0250 -0.3032
30820W        W46629   4.882  17.347   4.974 -0.2026 -0.5224 -0.0058
30821W        W46630  18.169  17.837   0.573 -0.2671 -0.2363 -0.1033
30822W        W46631  10.857  13.177   5.171 -0.1287  0.2421  0.1508
30823W        W46632  14.216   7.778  13.648 -0.1685  0.0242 -0.0827
30824W        W46633   7.987  18.097   3.696  0.0486 -0.1677  0.2701
30825W        W46634  18.408  12.751  11.575  0.0400 -0.1420  0.0627
30826W        W46635  14.701  16.107   3.526  0.3867 -0.0956 -0.1888
30827W        W46636   1.535   9.830   1.443 -0.3366  0.2430  0.0286
30828W        W46637   7.771   8.547   5.512  0.0742  0.1632  0.1253
30829W        W46638   9.442   0.924  14.363 -0.1678 -0.3977 -0.1183
30830W        W46639  12.247   4.077   0.501  0.0156  0.1304  0.0979
30831W        W46640  17.527   3.265  11.263 -0.1048 -0.2980  0.1514
30832W        W46641  15.794  11.759  15.262  0.2206 -0.1442 -0.2765
30833W        W46642  15.963   0.972  10.491 -0.0693  0.1945  0.0025
30834W        W46643   8.790  16.467  12.830 -0.1237  0.2019  0.0580
30835W        W46644   6.399   6.731   0.820 -0.0073 -0.0083 -0.0707
30836W        W46645   5.209   5.876   2.520 -0.0778 -0.0849 -0.1604
30837W        W46646  11.941  10.149  13.875  0.0215 -0.0277  0.0685
30838W        W46647  14.612   4.195  13.035 -0.0560 -0.0286  0.3577
30839W        W46648   9.564  10.883  10.985  0.0689  0.1497  0.3197
30840W        W46649   7.632   6.589   4.751 -0.0749 -0.1444  0.0201
30841W        W46650  17.781   7.526  12.619  0.0693 -0.1567 -0.4093
30842W        W46651   6.978  15.106   1.357 -0.0346 -0.0650  0.2649
30843W        W46652   8.420   8.845  13.057  0.4278  0.1134  0.0104
30844W        W46653   1.394  14.048   1.947 -0.0092  0.1023  0.0392
30845W        W46654   3.511  12.836   1.329  0.0245  0.0605  0.0078
30846W        W46655  15.237   0.976   1.352  0.1327  0.0307 -0.1167
30847W        W46656   0.574   0.409   3.322  0.1302 -0.2840  0.1256
30848W        W46657   5.462   5.027   4.554  0.0479  0.0029  0.0222
30849W        W46658  14.865  16.823   1.915  0.0330  0.0724  0.0676
30850W        W46659   1.289  15.495   4.079  0.2749  0.1373 -0.0373
30851W        W46660  10.569   3.402   5.913 -0.3204  0.0336  0.2391
30852W        W46661  15.834  17.056  15.301  0.3278  0.3298  0.0866
30853W        W46662   1.344  14.941  12.752 -0.2431  0.1483 -0.0563
30854W        W46663   3.757  14.941  14.541 -0.2914 -0.1485  0.2451
30855W        W46664   0.020   1.113   0.034 -0.0359 -0.0295 -0.0012
30856W        W46665   7.558  12.735   2.246 -0.0561 -0.3354  0.2509
30857W        W46666  16.300   8.205  15.115 -0.0169 -0.0748 -0.1560
30858W        W46667   1.744  17.762   1.310 -0.3414  0.0506  0.1177
30859W        W46668   5.465  16.390  15.614 -0.3839 -0.0952 -0.0639
30860W        W46669  16.252   6.927  14.827  0.1711 -0.0275  0.0640
30861W        W46670   3.417  14.149   0.010  0.1345  0.2563 -0.3819
30862W        W46671  12.084   5.304   2.850 -0.1743  0.0042 -0.1600
30863W        W46672  13.316   9.926   2.684  0.2169 -0.5137 -0.3251
30864W        W46673   5.018   1.101   1.870  0.3027 -0.0080  0.0597
30865W        W46674   1.834   7.557  11.571 -0.1147 -0.0169  0.0335
30866W        W46675   4.867   2.114  14.397 -0.3149 -0.2686  0.1550
30867W        W46676   4.393   0.509   0.479  0.0641 -0.2279 -0.2253
30868W        W46677  18.304  15.422  12.907  0.0189 -0.1894 -0.1075
30869W        W46678   4.352  10.284  11.080  0.1043  0.4582 -0.1045
30870W        W46679  11.659  10.499  14.256  0.1362  0.0961 -0.2568
30871W        W46680   9.468  14.234   1.836  0.3397 -0.0262  0.0830
30872W        W46681  10.274  16.121   2.516  0.0170 -0.0953 -0.0914
30873W        W46682   3.289   5.533   1.247  0.1488  0.1192  0.3457
30874W        W46683  10.258   1.899  14.532  0.0229 -0.1474  0.1111
30875W        W46684   1.416   0.654   2.242 -0.0915  0.1336 -0.0383
30876W        W46685  16.408   3.275   0.161  0.1791  0.1955 -0.1197
30877W        W46686  13.289  10.869   4.584  0.1976  0.1541  0.0861
30878W        W46687   7.315   8.305   3.113 -0.0827 -0.2055  0.3469
30879W        W46688   4.290   3.983  14.445  0.1868  0.0673  0.0431
30880W        W46689  12.824   0.037   2.688 -0.2010  0.3863 -0.1521
30881W        W46690   7.736  17.985   1.385  0.1684 -0.0203  0.0793
30882W        W46691  12.782   4.341  14.412  0.0235 -0.1832  0.2489
30883W        W46692   7.436   3.641  13.893  0.1159 -0.0538 -0.0190
30884W        W46693  11.668  15.089  13.280 -0.0132 -0.1207  0.1629
30885W        W46694   1.070  18.225   4.290  0.3040 -0.0162 -0.3653
30886W        W46695   2.376   2.745   1.221 -0.1636 -0.1837 -0.1068
30887W        W46696   3.812  11.671   4.039  0.1098  0.1178 -0.1229
30888W        W46697   0.586  10.378   4.376  0.0020  0.0603  0.1951
30889W        W46698  15.989   2.169   1.356  0.1379 -0.0947 -0.5193
30890W        W46699   3.772   0.922  10.142  0.0247  0.1587  0.0186
30891W        W46700   0.229  11.534  12.205  0.0022  0.0432  0.3503
30892W        W46701  14.993  11.885  15.461  0.0767 -0.2234  0.2488
30893W        W46702  15.316  16.961   3.935  0.0662 -0.0901 -0.1504
30894W        W46703   3.342  17.925   5.096  0.1211 -0.1405  0.0863
30895W        W46704   7.680  18.386   5.474  0.2058  0.1146 -0.1441
30896W        W46705   9.228  10.621   0.180 -0.1069  0.1969 -0.0800
30897W        W46706   2.278   0.312   2.483 -0.0003 -0.0860  0.0953
30898W        W46707  18.199   9.844   4.148 -0.0300 -0.0609  0.1850
30899W        W46708  12.109  11.251   4.348 -0.4032 -0.3222  0.4567
30900W        W46709  13.898  10.744  12.779  0.2473 -0.0193  0.2184
30901W        W46710  14.124   4.750  14.762 -0.0309  0.1658 -0.2133
30902W        W46711  11.936  17.823   2.161 -0.3742  0.3657 -0.3420
30903W        W46712  13.017   4.400   4.134 -0.3592 -0.2534 -0.1835
30904W        W46713   3.880   8.776   4.273  0.4174  0.4078  0.4152
30905W        W46714   1.192  12.028   3.438  0.0116 -0.0019 -0.0011
30906W        W46715   2.141   2.844  12.505 -0.2656  0.0177 -0.0772
30907W        W46716   7.633  13.244   1.697 -0.1685 -0.3189 -0.1457
30908W        W46717  11.963   9.335  10.805  0.0141 -0.0342  0.2295
30909W        W46718   8.365  16.694  14.230 -0.2536 -0.2390 -0.1239
30910W        W46719   2.612   7.823   4.349  0.1265 -0.0498 -0.2555
30911W        W46720   8.688  16.881  11.032  0.0415  0.0325  0.1115
30912W        W46721  11.201  18.090   2.579 -0.0305 -0.1143  0.2716
30913W        W46722   0.276  14.575  15.380  0.0899 -0.1912  0.1189
30914W        W46723   9.224  16.351  14.251 -0.0496 -0.0821  0.1985
30915W        W46724  15.175   1.989  11.786 -0.5942  0.2888  0.1019
30916W        W46725   9.060   7.361  13.580  0.2555  0.5759  0.1940
30917W        W46726  17.739   9.072  12.573 -0.1721 -0.0195  0.0598
30918W        W46727  12.934   4.047   1.259  0.2861 -0.0007 -0.0441
30919W        W46728   6.778   3.596   2.216  0.1912  0.2166  0.0976
30920W        W46729   4.398  11.341   0.952 -0.0527  0.0689  0.1692
30921W        W46730   5.968   7.426  14.267  0.0593 -0.4873  0.0483
30922W        W46731  11.711   1.743   4.081  0.0511 -0.4236 -0.3201
30923W        W46732   5.501   0.723   2.996  0.1256  0.1341 -0.1249
30924W        W46733  18.669  14.063  10.976  0.0457 -0.1432  0.1265
30925W        W46734   8.386   3.015  10.700  0.1862  0.0711  0.2808
30926W        W46735  18.477   1.466  12.068 -0.1658 -0.2427 -0.2049
30927W        W46736  12.295   6.570   3.700 -0.1475  0.0071 -0.5631
30928W        W46737   5.404  11.445   4.579  0.5429 -0.1365 -0.0281
30929W        W46738   1.533   0.372  13.897 -0.2986 -0.3377 -0.0659
30930W        W46739   4.758   4.609   2.607 -0.0562  0.0779 -0.0015
30931W        W46740   2.977  13.681   2.744 -0.1314  0.1767  0.1585
30932W        W46741   9.647   6.079  12.344  0.1572  0.1075 -0.1612
30933W        W46742   8.057   1.548  11.199 -0.0777  0.0359 -0.0607
30934W        W46743   3.761  10.929   2.185  0.0978  0.2248 -0.3016
30935W        W46744   6.223   4.029  14.690 -0.1994 -0.0014 -0.2580
30936W        W46745  13.128   5.477   2.782 -0.0583 -0.2632 -0.0942
30937W        W46746  12.344  11.926   0.035 -0.0356  0.0167  0.1834
30938W        W46747   4.315   9.260  13.290  0.4024  0.1003 -0.1612
30939W        W46748   0.669  15.151  10.894 -0.0876 -0.1423 -0.2392
30940W        W46749   8.350  12.774  13.683  0.0271 -0.3680  0.3320
30941W        W46750  14.723  11.493  11.996  0.0753  0.1981  0.0546
30942W        W46751   5.568  10.711   4.187 -0.2604 -0.1957 -0.0809
30943W        W46752  12.047   8.445   0.804 -0.1055  0.4067 -0.3602
30944W        W46753   2.556   1.131  11.416  0.2879 -0.5575 -0.1304
30945W        W46754   3.083  10.163  11.304  0.1358 -0.0391  0.2153
30946W        W46755  14.266   5.137   0.798 -0.0430  0.2821  0.1231
30947W        W46756   4.528   6.546   0.147  0.1388 -0.0784  0.4511
30948W        W46757  17.462  17.765   5.810 -0.1164  0.3330 -0.1399
30949W        W46758  17.365   8.622   3.304  0.1732 -0.2035 -0.0482
30950W        W46759   8.323  10.591  10.818 -0.0036 -0.0910 -0.1073
30951W        W46760   9.574  11.388   4.351 -0.2323  0.1631  0.1173
30952W        W46761   9.279  17.804  14.474  0.1489  0.1968 -0.1820
30953W        W46762   2.664  14.753   2.522  0.1682  0.0754 -0.2414
30954W        W46763   6.957   5.213  12.615  0.1575  0.1402 -0.2267
30955W        W46764  15.428  17.265  14.869 -0.0061 -0.0291 -0.0515
30956W        W46765  12.879  16.413  14.096  0.0241 -0.1772 -0.1716
30957W        W46766  13.221   0.082   0.605 -0.0597  0.1085  0.1201
30958W        W46767   8.361   4.409   5.079 -0.3849  0.1217  0.0152
30959W        W46768  17.010  12.077   2.753 -0.0800 -0.0025  0.3195
30960W        W46769  15.229  14.603   1.187 -0.2832 -0.1570 -0.0013
30961W        W46770   4.832   3.951   2.676 -0.0285 -0.0895  0.1908
30962W        W46771   1.359  15.197  15.422  0.2214 -0.3397  0.2194
30963W        W46772  13.458  14.155  14.546 -0.0442 -0.2202 -0.0678
30964W        W46773   2.746  16.735   3.868  0.3143 -0.0837  0.2208
30965W        W46774  18.192  18.004   4.196 -0.1169  0.1827 -0.0548
30966W        W46775   8.166   1.952  11.753 -0.0113  0.2362 -0.2762
30967W        W46776   9.140   5.628  11.691  0.3553 -0.1757 -0.0508
30968W        W46777   7.399  14.221   1.366  0.1061  0.0778 -0.1226
30969W        W46778   6.780  13.559  10.896 -0.0316 -0.2469 -0.0811
30970W        W46779   7.882  10.796  10.655 -0.0440  0.0665 -0.3284
30971W        W46780  18.504   5.837   5.135 -0.1197  0.1724  0.1705
30972W        W46781  11.419   6.339   5.967  0.0177 -0.1166 -0.1924
30973W        W46782   0.993   6.428  14.436 -0.1197 -0.2020 -0.1078
30974W        W46783  12.189  13.737   4.420  0.3006  0.2229  0.0042
30975W        W46784   8.501  10.248  13.703  0.0770 -0.0816 -0.0622
30976W        W46785   4.870   9.001   0.835 -0.1219 -0.1135  0.2110
30977W        W46786  15.904   5.749  13.745 -0.1495  0.3664  0.1050
30978W        W46787  18.425  15.228   4.046  0.0431 -0.2699 -0.0848
30979W        W46788  10.396  13.529  15.135  0.1717 -0.1992  0.0220
30980W        W46789  10.531   1.774   6.176  0.0225 -0.2458  0.3731
30981W        W46790  15.333   9.327  15.094  0.2220  0.1394  0.3166
30982W        W46791   2.106   6.673   1.499  0.0874 -0.1665 -0.1609
30983W        W46792  10.233  14.148   4.904 -0.1282  0.1596 -0.0927
30984W        W46793   4.330   3.245   4.371  0.1324  0.0385  0.1519
30985W        W46794  16.881   8.489   3.391 -0.0137 -0.0167  0.2994
30986W        W46795   3.046  10.691  12.967 -0.0055  0.3180  0.1131
30987W        W46796   8.265  14.962  14.282  0.1543  0.1905  0.0734
30988W        W46797   0.085   1.766   2.613 -0.0900 -0.2931 -0.0684
30989W        W46798   0.663   7.806   3.164  0.1841  0.2824 -0.1872
30990W        W46799   0.960   6.628   2.746  0.1894  0.1766 -0.2566
30991W        W46800   6.028   1.327   2.716  0.2625 -0.1585  0.0393
30992W        W46801   9.777  15.346   5.466 -0.1370 -0.1016  0.0754
30993W        W46802  14.363   4.141  15.366  0.2584  0.1989  0.2355
30994W        W46803   7.712   3.638   2.883 -0.1913 -0.2442 -0.1124
30995W        W46804  15.916  12.518  11.463  0.0540  0.3745  0.0147
30996W        W46805   3.718   9.654   1.673  0.0966  0.0696  0.1738
30997W        W46806  17.343   4.392  15.425 -0.3387  0.0677 -0.0307
30998W        W46807  16.850   8.932   3.695  0.1737 -0.0751 -0.1436
30999W        W46808   3.442   7.078   2.245 -0.1779 -0.1165  0.0202
31000W        W46809  11.307  14.752   2.653  0.1942  0.0837 -0.1912
31001W        W46810   0.869  10.898  15.337 -0.0194 -0.1775  0.0097
31002W        W46811   9.212   6.913   3.877 -0.1132  0.1877 -0.0632
31003W        W46812  18.602   0.630  14.822 -0.1749 -0.1265 -0.1523
31004W        W46813  10.574   3.649   2.510  0.2273  0.3194  0.0384
31005W        W46814  13.991   4.207  12.482 -0.2057 -0.1055 -0.0162
31006W        W46815  18.371  13.384   2.769 -0.2058 -0.1261 -0.1537
31007W        W46816  16.120  10.949   2.786  0.2631 -0.1207 -0.2224
31008W        W46817   6.937   7.246   1.887  0.0292  0.0515 -0.0456
31009W        W46818  16.184   9.350   2.207  0.2070  0.4421  0.3452
31010W        W46819   7.247  18.012  15.121 -0.1934 -0.1704  0.1321
31011W        W46820  13.628   7.003   4.912  0.2671  0.1362  0.2709
31012W        W46821   0.164   5.605   1.126  0.0893 -0.1949 -0.4330
31013W        W46822  11.705  17.355   3.357  0.1095 -0.2443 -0.0588
31014W        W46823   3.168   6.425  11.574  0.1249 -0.1730  0.1361
31015W        W46824  15.609   9.084  12.628  0.0589 -0.1626 -0.0203
31016W        W46825   1.865  11.636   1.576 -0.2041  0.1839  0.2457
31017W        W46826   6.975  12.226   4.151  0.3805 -0.3304 -0.0911
31018W        W46827   5.984  11.311   6.353  0.0860  0.1875 -0.0356
31019W        W46828   6.424   0.545   2.891  0.0937 -0.2196 -0.1746
31020W        W46829  11.380  13.267   1.497  0.0657  0.3177  0.2035
31021W        W46830  12.872   2.642   0.866 -0.1703 -0.0686  0.0133
31022W        W46831  14.258  18.186  14.163  0.3036  0.1899  0.0557
31023W        W46832   4.737   3.201  11.650 -0.1435 -0.1253 -0.0648
31024W        W46833   7.618  17.427   2.858  0.2999  0.0914  0.1098
31025W        W46834   8.769   0.989  12.967  0.1941  0.1659 -0.1488
31026W        W46835  13.937  15.515  12.810 -0.0847 -0.0100  0.2977
31027W        W46836  15.412   0.859  13.568 -0.0298  0.0503 -0.2455
31028W        W46837  13.931   1.122   0.193  0.0982 -0.1666 -0.0338
31029W        W46838   7.135  16.660  11.793 -0.1393 -0.0293  0.1046
31030W        W46839   8.963  17.496   5.674 -0.0358 -0.1257 -0.0800
31031W        W46840   3.082   9.102   3.315 -0.0950  0.3800 -0.1492
31032W        W46841   9.285   4.836  13.066 -0.4263  0.2281  0.2222
31033W        W46842  13.578  12.732  13.421 -0.1568 -0.0511 -0.0726
31034W        W46843   9.626   2.425  12.867  0.0188 -0.0243 -0.0871
31035W        W46844   8.316  18.655  11.439 -0.0866  0.1595  0.3149
31036W        W46845   7.296   5.954  11.743 -0.0307 -0.2311  0.0524
31037W        W46846  14.723  11.648   3.920  0.1765  0.0906 -0.0143
31038W        W46847  15.988   8.641  13.388 -0.0279  0.0455  0.1977
31039W        W46848  15.654   6.109   0.649  0.1183 -0.2268  0.2129
31040W        W46849   9.762   0.060   2.154  0.3210 -0.0381  0.0914
31041W        W46850   5.139  12.414  13.468  0.5285 -0.0772 -0.0954
31042W        W46851   3.134   0.803  13.969 -0.0181 -0.0999 -0.1652
31043W        W46852  11.535   2.207   1.629 -0.1592 -0.3180  0.1082
31044W        W46853  13.968   4.731   4.029 -0.0911  0.0689 -0.1233
31045W        W46854   1.390  15.529  14.339 -0.2590  0.0972 -0.1169
31046W        W46855  10.664  17.653  12.947 -0.1322 -0.4784 -0.3492
31047W        W46856   2.979  14.676   5.313 -0.0516  0.0577  0.0403
31048W        W46857  15.062   7.978   1.829  0.2021  0.1712 -0.0118
31049W        W46858  17.628   1.630  12.691  0.0053  0.1135  0.1488
31050W        W46859  13.591   7.746   0.277  0.0504 -0.0181 -0.0898
31051W        W46860   7.813   6.852  15.108 -0.0463  0.2814 -0.3586
31052W        W46861   2.647  15.591  12.721  0.2711  0.0466  0.0683
31053W        W46862   3.000  11.305  11.384 -0.0600 -0.0242 -0.0420
31054W        W46863   8.285   5.420  11.871  0.0746  0.0343 -0.1909
31055W        W46864   3.103  15.911  12.654  0.0386  0.1152  0.1787
31056W        W46865   4.102   7.955   3.686  0.1596 -0.1692 -0.0006
31057W        W46866   1.275  11.014  11.359 -0.3100 -0.2264 -0.3334
31058W        W46867   1.199   7.053  12.652  0.3592  0.0836  0.1438
31059W        W46868   2.701   2.740   4.195  0.3857 -0.0703  0.6029
31060W        W46869  10.144  13.042  13.283  0.1414  0.0081  0.2485
31061W        W46870  15.765   8.169  12.927 -0.0968 -0.2575  0.1006
31062W        W46871   9.868   0.953   2.324  0.2213 -0.2430 -0.0226
31063W        W46872  11.482   1.657   0.821 -0.0925 -0.1558  0.1378
31064W        W46873   0.651   5.360   0.739  0.1366 -0.2810 -0.2159
31065W        W46874   8.577  11.482  14.072 -0.0412 -0.0581 -0.0411
31066W        W46875   1.781  11.446   2.962  0.1212 -0.0305 -0.1110
31067W        W46876  18.326   0.112   0.511 -0.0159 -0.0342 -0.2370
31068W        W46877  14.616   0.926   3.466  0.4676  0.0801 -0.1937
31069W        W46878  13.020   3.410   1.840 -0.2852 -0.2755 -0.2401
31070W        W46879   4.431   0.826  12.009  0.0094 -0.0897  0.1588
31071W        W46880  16.209  10.664   4.497 -0.3608 -0.1536  0.1745
31072W        W46881   0.475  18.409  12.180  0.0721 -0.0962  0.0262
31073W        W46882   5.556  10.333  12.108  0.1345  0.1573 -0.4454
31074W        W46883  18.308  16.272   1.399  0.2262  0.0052 -0.1221
31075W        W46884   2.865   6.612  12.596 -0.0295 -0.0079  0.2867
31076W        W46885   8.658  16.653   1.411  0.1555 -0.0293  0.2118
31077W        W46886  13.999  18.576   4.022 -0.1161  0.0460 -0.2705
31078W        W46887   4.719   5.003  13.044 -0.0974 -0.0794  0.2776
31079W        W46888  14.134  10.278  15.417 -0.0165 -0.1457  0.6099
31080W        W46889  10.597   9.835  11.172  0.2371 -0.0809 -0.1473
31081W        W46890   7.904  14.592  14.233 -0.1499  0.0288 -0.0222
31082W        W46891   2.811  16.853  10.894 -0.2220 -0.2685  0.0846
31083W        W46892   1.391   5.897  13.635  0.3234 -0.0146  0.2326
31084W        W46893  13.678   2.226   5.044 -0.1392 -0.1248  0.1308
31085W        W46894   0.197   8.205   3.809 -0.2251  0.2539  0.2592
31086W        W46895  11.048  11.516   1.153 -0.0314 -0.1016  0.0200
31087W        W46896  12.809  16.122   3.063 -0.2514 -0.1752 -0.1096
31088W        W46897   4.341  15.700   2.507 -0.1558 -0.0641 -0.2055
31089W        W46898   0.097   9.819   1.694 -0.0291  0.1252 -0.2453
31090W        W46899   3.214   8.106   3.586  0.2921 -0.0457  0.0968
31091W        W46900   5.941  13.709  11.069  0.0976  0.0217 -0.0374
31092W        W46901   0.966  17.567  10.844  0.1751  0.1246  0.0713
31093W        W46902  12.789  11.167   0.701  0.1762 -0.0048  0.0454
31094W        W46903   3.084   7.023   1.601  0.0185 -0.1379 -0.0271
31095W        W46904  16.279  11.259   2.245 -0.1129 -0.0814  0.1281
31096W        W46905  18.156   5.182   1.474 -0.1863  0.0558  0.1981
31097W        W46906   7.349   7.391   2.089 -0.1376 -0.3844 -0.1330
31098W        W46907  12.355   4.662  11.588  0.0260 -0.2516  0.2633
31099W        W46908   4.053  17.557  14.230 -0.1308 -0.1772 -0.2510
31100W        W46909   6.660   0.060  14.767  0.1345 -0.4085 -0.2855
31101W        W46910  14.595  17.748   0.852 -0.0939  0.2003  0.0492
31102W        W46911  16.447   2.649   4.278 -0.3091  0.1038 -0.0085
31103W        W46912   7.430   2.676  11.848  0.0135  0.4684  0.0637
31104W        W46913  12.349   4.963   5.362  0.2410 -0.1717  0.0967
31105W        W46914   2.316  14.502  14.356  0.1694  0.0292 -0.0835
31106W        W46915  10.605   2.107  11.505  0.0603  0.2769  0.2678
31107W        W46916   0.056   9.610  13.426 -0.0528 -0.0183 -0.0870
31108W        W46917   3.458   0.017  14.752 -0.0425 -0.0848  0.2034
31109W        W46918  14.543  17.571  14.724  0.0395 -0.3343 -0.3706
31110W        W46919   4.422  10.796   0.550 -0.1354 -0.2821  0.1272
31111W        W46920   5.968   2.997  13.584 -0.1263  0.0728  0.0902
31112W        W46921   8.017   7.244   5.270 -0.1960 -0.0040 -0.1945
31113W        W46922  15.827   8.752   2.066 -0.0747 -0.2535 -0.2509
31114W        W46923   8.758  12.655   2.158 -0.2318  0.1533  0.0659
31115W        W46924  16.819   3.591   0.936 -0.1391  0.0740  0.1793
31116W        W46925   0.128   1.548  12.549 -0.0788  0.0815  0.1931
31117W        W46926  11.195   6.853   2.824  0.0839 -0.5640  0.1246
31118W        W46927   7.527   4.427   3.733 -0.1217 -0.2730 -0.0418
31119W        W46928   8.972  14.893  15.105  0.0741 -0.0402  0.0473
31120W        W46929  17.478   6.204   2.590 -0.0865 -0.0124 -0.1659
31121W        W46930  11.231   0.571   0.126 -0.1724  0.2348  0.0337
31122W        W46931   9.622   3.439   4.901 -0.0270 -0.1529  0.0520
31123W        W46932  11.867   0.006   0.593 -0.0509 -0.0195 -0.4911
31124W        W46933   2.366  15.018  15.448 -0.0946  0.2706  0.1162
31125W        W46934   7.727  11.408  15.558  0.2875  0.1403 -0.0029
31126W        W46935  11.025   0.645   5.968 -0.0127  0.2042  0.1328
31127W        W46936  10.865   7.270  14.331  0.1239  0.1189  0.1850
31128W        W46937   4.535   1.088   2.905 -0.2015 -0.3825  0.4051
31129W        W46938  14.766   0.497   9.708 -0.2403 -0.0535 -0.3536
31130W        W46939   4.295   7.481  11.373 -0.0229 -0.3010  0.0938
31131W        W46940  18.513   4.163   0.753  0.1173 -0.1795 -0.1194
31132W        W46941  12.596  15.759   5.952  0.2254 -0.2516 -0.2951
31133W        W46942   5.418   0.341  13.821 -0.2149  0.2572  0.1148
31134W        W46943   2.925  14.144   4.878  0.1344  0.2229  0.1419
31135W        W46944   4.074   1.821  10.786  0.2600  0.3950 -0.1893
31136W        W46945  15.393   1.088   5.338 -0.0307  0.1706 -0.2530
31137W        W46946  17.066  17.153   4.532 -0.0496  0.3806 -0.0256
31138W        W46947   5.894  12.789   4.482  0.0736 -0.0350 -0.2333
31139W        W46948  14.375   1.276  14.220  0.3804 -0.1857  0.2028
31140W        W46949  12.785   8.596   1.570  0.1406  0.2426  0.0056
31141W        W46950   2.100  16.196   0.202  0.1935  0.1466 -0.3622
31142W        W46951   5.351   6.195   2.823  0.4781 -0.1311 -0.1971
31143W        W46952   2.640   5.262   2.546  0.3787 -0.1980 -0.1232
31144W        W46953   3.095   4.541   2.609  0.0179 -0.1208  0.1587
31145W        W46954   6.184  10.912   2.563 -0.4868 -0.1255  0.2360
31146W        W46955  11.374   7.521  11.720  0.0476  0.0149  0.1220
31147W        W46956   0.287  11.368   3.323  0.1183  0.0667  0.3695
31148W        W46957  17.920  10.933  12.897  0.0466  0.0364  0.3718
31149W        W46958  16.410  15.190   1.461 -0.2429  0.2272  0.1363
31150W        W46959   3.593   5.121   2.415  0.2484  0.3414 -0.6574
31151W        W46960   5.265   8.183   2.305  0.2181 -0.1939 -0.0879
31152W        W46961  16.691  15.834  14.776 -0.1225 -0.1777 -0.2364
31153W        W46962   6.965  10.214  14.998  0.0525  0.2514  0.2168
31154W        W46963  18.510   1.012   0.990 -0.0355 -0.0992  0.0426
31155W        W46964   2.700  17.532   0.226 -0.0865  0.1737  0.0438
31156W        W46965  10.314   0.786  11.477 -0.0273  0.0943 -0.2720
31157W        W46966   3.784  10.589  13.172  0.0776  0.2817 -0.1124
31158W        W46967  11.034  17.115   3.766 -0.5496 -0.0555  0.3254
31159W        W46968   4.963   1.966  12.486  0.1852  0.1280 -0.0078
31160W        W46969   1.532  16.843   0.484 -0.0046 -0.0212 -0.1555
31161W        W46970  12.344   1.488  14.030  0.1286  0.0698  0.0755
31162W        W46971   2.692   5.574  13.333  0.3170 -0.0113 -0.2805
31163W        W46972   8.060  13.837  15.168 -0.0998  0.1016 -0.1845
31164W        W46973  12.981  18.481   3.071 -0.0277 -0.4149 -0.2697
31165W        W46974   4.505   0.755   4.388  0.0930  0.2459  0.2044
31166W        W46975   3.208  16.037   4.078  0.0228 -0.0052  0.3766
31167W        W46976   1.541   6.808   2.696 -0.2223  0.1740  0.1674
31168W        W46977  10.818   6.228   1.103  0.1960  0.3454 -0.1547
31169W        W46978  16.831  11.885  14.575 -0.0155  0.0014 -0.1799
31170W        W46979   9.124  17.151   4.090  0.2420 -0.0063  0.0881
31171W        W46980  15.576   9.303   1.340 -0.0041  0.2929  0.1099
31172W        W46981  11.726   8.706  12.957 -0.3476  0.0573 -0.1852
31173W        W46982  11.937   2.477  12.799  0.0644 -0.0400  0.2141
31174W        W46983  13.344  13.528   4.992 -0.0112  0.0186  0.3352
31175W        W46984   4.327   5.519   5.190  0.3106  0.0898  0.0916
31176W        W46985  18.482   8.611   1.190  0.0820  0.0574  0.0890
31177W        W46986   6.996  12.840   0.423  0.2907  0.0401  0.2286
31178W        W46987  18.490   3.247   2.022  0.0691  0.0768 -0.4528
31179W        W46988   8.219  13.448   4.922 -0.0716  0.0667 -0.1190
31180W        W46989   4.205  15.295   1.542 -0.0542 -0.0958  0.0309
31181W        W46990  13.344  14.321   3.552  0.1535  0.1842 -0.0070
31182W        W46991   8.939   8.542   2.194 -0.1302 -0.0807 -0.0327
31183W        W46992  10.443  13.011  11.882 -0.2461 -0.1598  0.3550
31184W        W46993   2.312  15.532  11.065  0.3125  0.2281 -0.0841
31185W        W46994   7.341   7.324   3.018 -0.1206  0.0313 -0.1224
31186W        W46995  17.064   1.562  12.850 -0.0467 -0.1243  0.0107
31187W        W46996  16.402  18.451  11.039 -0.2291 -0.1232  0.0636
31188W        W46997   0.353   7.794  14.554  0.3174  0.3089  0.3740
31189W        W46998   1.965  13.838   2.699  0.2310  0.3266 -0.1210
31190W        W46999  14.259  11.764  11.784  0.1374 -0.3583  0.0484
31191W        W47000   8.333   3.597   1.602 -0.0012  0.1804  0.0991
31192W        W47001   3.106   8.157  13.921 -0.2035 -0.1635  0.0104
31193W        W47002   3.088  13.822   9.457 -0.2405  0.0488 -0.2648
31194W        W47003   3.159   4.828  12.286 -0.2423  0.0867  0.1126
31195W        W47004  11.821   8.874   2.324 -0.0024  0.0274 -0.0315
31196W        W47005   8.639   0.836   1.971  0.2452  0.0908 -0.3812
31197W        W47006   3.845   4.689   0.306  0.1926  0.3480 -0.0584
31198W        W47007  11.453   3.869  15.101  0.0425 -0.0506 -0.1656
31199W        W47008  18.544   0.581   0.690  0.2339 -0.0981 -0.2141
31200W        W47009   8.367   6.388   0.673  0.2480 -0.2656 -0.2022
31201W        W47010  15.710  16.779   3.524 -0.1411 -0.0348 -0.3370
31202W        W47011  12.045   5.437  11.548  0.4512  0.0407  0.1548
31203W        W47012  10.783  16.479  13.239 -0.2960 -0.1443  0.0139
31204W        W47013  12.508   3.662   4.707 -0.3572 -0.1432  0.3154
31205W        W47014  14.820  13.900   2.538  0.0361 -0.2065 -0.1534
31206W        W47015  15.448  15.474  11.823  0.1596 -0.3681 -0.0862
31207W        W47016  17.159   8.570   1.655 -0.1491  0.0219  0.0608
31208W        W47017  11.647  11.534   1.365  0.1572 -0.4067 -0.0621
31209W        W47018   2.659  12.208  11.599  0.0191 -0.0068 -0.2373
31210W        W47019   3.668   0.814  14.194  0.2365  0.0989  0.3286
31211W        W47020   7.956  13.766  14.202  0.2302  0.0839 -0.0167
31212W        W47021   1.773   6.126  12.084  0.2576  0.0568  0.2596
31213W        W47022  13.798   0.157   2.627 -0.0972  0.1760  0.2049
31214W        W47023  17.173  17.740   1.431  0.0724  0.1979 -0.3148
31215W        W47024  10.175   3.867   6.017  0.2057 -0.0663  0.0895
31216W        W47025  14.490  10.292  12.090  0.1448 -0.3125 -0.1140
31217W        W47026  14.059  16.253   2.174  0.0272  0.1891  0.0017
31218W        W47027   1.014   4.384   1.637  0.0295  0.1689 -0.0870
31219W        W47028  18.012  13.262  13.300  0.1570 -0.1197 -0.0054
31220W        W47029  16.267   2.517   9.934  0.0887 -0.1539  0.0506
31221W        W47030   2.955  17.055   2.929 -0.3299  0.1949  0.1465
31222W        W47031  10.012  15.590  13.205 -0.3755  0.0115  0.1133
31223W        W47032  13.522   5.040   3.003 -0.1116 -0.0224 -0.0041
31224W        W47033  10.313  17.451   0.632  0.3451 -0.1357 -0.1477
31225W        W47034   5.357  14.185  12.992 -0.0920  0.1012 -0.0106
31226W        W47035   0.511   7.093  10.338 -0.1408  0.1301 -0.0834
31227W        W47036  11.581  15.088   1.524  0.2379 -0.2708  0.0314
31228W        W47037   7.606  10.040  14.569  0.1268  0.0790  0.0519
31229W        W47038   7.060   4.341   2.257  0.0723  0.3422 -0.3816
31230W        W47039   6.851   2.598   2.047  0.0643  0.0803 -0.1833
31231W        W47040   1.587  16.560  13.996 -0.0581 -0.1622  0.2881
31232W        W47041  15.121  14.241  11.673  0.3218  0.1677  0.2979
31233W        W47042  17.639   1.982   2.266 -0.1384 -0.1011 -0.0993
31234W        W47043   1.900   2.725   4.796 -0.1619 -0.0247 -0.0115
31235W        W47044   1.592  16.240   2.727 -0.0839 -0.0674  0.2469
31236W        W47045  17.357  10.388   1.973  0.1846 -0.0166 -0.0673
31237W        W47046  17.382  14.971  10.012 -0.0366 -0.0628 -0.1150
31238W        W47047   6.593   7.808   3.372 -0.1043  0.2835  0.1396
31239W        W47048   8.661  15.769   1.502  0.0512 -0.2639  0.2995
31240W        W47049   4.236  13.309   3.413  0.0641  0.2270 -0.2361
31241W        W47050  12.503  11.418   5.135  0.0476  0.1068  0.1176
31242W        W47051  13.622  15.192   0.932 -0.2882  0.1255 -0.1609
31243W        W47052  12.742  14.230  10.876 -0.1263 -0.0768  0.2127
31244W        W47053  15.949  11.697  13.238  0.0791 -0.4550 -0.0299
31245W        W47054   4.219   5.052  10.296  0.3810  0.1670  0.0818
31246W        W47055  10.575  11.419   0.116  0.0755  0.0370 -0.0840
31247W        W47056  18.203   5.061  12.536 -0.0921  0.1287 -0.1002
31248W        W47057  13.356  15.413   1.829 -0.3521 -0.0978  0.0835
31249W        W47058  18.030   3.590  11.110  0.0926  0.1420  0.0290
31250W        W47059   2.100   6.861   3.255 -0.0098  0.1734  0.3992
31251W        W47060   4.372  10.441   1.567  0.0920 -0.1105  0.2265
31252W        W47061   3.412  15.585  15.197  0.1091  0.3076 -0.1291
31253W        W47062  15.824  18.300   0.595 -0.3093  0.1440 -0.2359
31254W        W47063   4.505  10.429   2.594 -0.0803 -0.1154  0.0392
31255W        W47064   4.165   7.980   2.748  0.1069  0.0846 -0.1143
31256W        W47065   1.556   1.307   4.301 -0.0090 -0.0306 -0.2999
31257W        W47066   4.890   8.268   1.322 -0.3251  0.1711 -0.2334
31258W        W47067  17.351  12.650   0.079  0.1791 -0.0349  0.2432
31259W        W47068   3.454   7.462  12.940 -0.1783 -0.1392  0.1056
31260W        W47069   4.875  11.690  10.096 -0.1963 -0.3299 -0.1355
31261W        W47070   6.844   3.397   4.870 -0.0055  0.3675  0.2731
31262W        W47071   0.826   9.059  13.312 -0.0931 -0.2740 -0.2455
31263W        W47072   4.220  14.807   1.285  0.2607  0.1507  0.1509
31264W        W47073   6.312  11.792   2.914  0.1427 -0.2336  0.3064
31265W        W47074  16.052  16.279  11.255  0.0653 -0.0272 -0.4012
31266W        W47075  11.012   7.058  13.084 -0.2905  0.1017  0.1668
31267W        W47076  10.847   4.564   6.113  0.0645  0.0607 -0.0741
31268W        W47077  12.606  11.671   1.975 -0.1963  0.1419 -0.0213
31269W        W47078   8.707   8.265  13.963  0.5772 -0.3211  0.0244
31270W        W47079  16.740  14.337  15.229  0.0964 -0.3931  0.1283
31271W        W47080   5.189  12.892   5.658  0.2712  0.1540  0.0834
31272W        W47081  15.288  13.322  15.079  0.0321  0.2194  0.2944
31273W        W47082   8.075   3.309   2.831  0.0067 -0.0920 -0.3596
31274W        W47083   1.387  11.472   2.678 -0.2792 -0.3195 -0.0355
31275W        W47084  16.079  15.675   2.189 -0.2052 -0.1085  0.1911
31276W        W47085   1.937  18.605   1.206  0.6836  0.1113  0.0243
31277W        W47086  14.944   8.817   5.597  0.0289  0.0115  0.0147
31278W        W47087   4.623  10.601  12.682 -0.0523  0.1178 -0.2298
31279W        W47088   5.054   0.940   2.774  0.0781 -0.2341 -0.1116
31280W        W47089   7.182  12.339  14.000 -0.0427  0.1213  0.3288
31281W        W47090  12.366  10.469  14.014  0.1062 -0.0955 -0.0757
31282W        W47091   2.312  10.278   4.625  0.0526  0.0792 -0.0372
31283W        W47092  11.322  18.552   1.328 -0.1887 -0.3336 -0.1321
31284W        W47093   3.175  18.004   2.307  0.1432 -0.1504  0.3456
31285W        W47094   3.865  10.005  12.973 -0.0250  0.1641 -0.0187
31286W        W47095  16.766   9.908   3.507 -0.0063  0.1963  0.1843
31287W        W47096  17.812  13.587  13.001 -0.1387  0.0664 -0.1923
31288W        W47097   5.871  18.561  15.032 -0.0029  0.0045  0.2141
31289W        W47098   4.643  16.920   4.906 -0.3537 -0.1450 -0.1126
31290W        W47099   5.802   0.963  11.814 -0.2224  0.3145  0.1122
31291W        W47100  13.318   8.366  10.486 -0.1582  0.2491 -0.3399
31292W        W47101   1.518  12.973   0.523  0.0248  0.1130 -0.1928
31293W        W47102  16.526  18.076   1.116  0.0020  0.2137  0.1637
31294W        W47103   0.862   2.341   2.163 -0.1184 -0.2322 -0.1682
31295W        W47104   7.645  13.696  13.111 -0.3032  0.0599  0.0664
31296W        W47105   2.777   1.182  15.198  0.0516 -0.0629  0.1345
31297W        W47106   0.189   5.770  13.237  0.2465 -0.0257 -0.1624
31298W        W47107   9.897  11.979  11.157  0.2205 -0.2129 -0.5335
31299W        W47108  15.850  17.592  11.728 -0.1007  0.1022  0.0827
31300W        W47109   2.288  14.476  14.850  0.1765 -0.0819  0.0103
31301W        W47110   7.843   5.276   1.512  0.1184  0.0272 -0.1258
31302W        W47111   1.735   3.608  14.284  0.0918 -0.0205 -0.0924
31303W        W47112   6.019   5.323   2.154  0.2532 -0.0450 -0.3080
31304W        W47113   1.734   5.744   1.713  0.2147 -0.2484  0.0230
31305W        W47114   5.972   1.731  11.550 -0.2142 -0.2747  0.0584
31306W        W47115   4.933   8.823  14.792 -0.0197  0.3507 -0.1912
31307W        W47116  14.084  13.544  11.208 -0.0815 -0.0561  0.2650
31308W        W47117   2.136  12.787   0.127 -0.0447  0.1395 -0.1154
31309W        W47118   4.486  13.389   0.479 -0.0202 -0.1444 -0.1641
31310W        W47119   8.923   8.719  12.884 -0.0713 -0.0436  0.0492
31311W        W47120  17.414   5.140  12.162  0.1370  0.0806  0.2944
31312W        W47121  16.724  18.145   2.083  0.2037  0.3102  0.1522
31313W        W47122   8.401  13.061  14.929 -0.0961  0.0137  0.3296
31314W        W47123  15.526   3.473   1.548  0.0644  0.1464 -0.1611
31315W        W47124  12.543   5.437   4.516 -0.3934 -0.3218 -0.0206
31316W        W47125   9.647   6.633  14.286 -0.0652  0.0331 -0.0273
31317W        W47126  17.363  16.747  12.469 -0.0012 -0.1554  0.0016
31318W        W47127  15.668   0.823  13.990 -0.1315  0.2483  0.1226
31319W        W47128  14.057   4.337   2.179 -0.2011 -0.1586  0.1871
31320W        W47129  11.761   7.710  11.211 -0.0049 -0.0738  0.1061
31321W        W47130   0.460   8.839  14.339 -0.0951 -0.1591 -0.0219
31322W        W47131   8.271  17.771  13.419  0.0830  0.0150  0.0077
31323W        W47132  13.322  10.607   3.124  0.3232  0.0251  0.0075
31324W        W47133   5.196  10.757  12.820 -0.1008 -0.1683  0.1181
31325W        W47134   9.693  12.572  14.693 -0.1960  0.2493 -0.1353
31326W        W47135   8.621   0.487   4.094 -0.0894  0.0146 -0.0269
31327W        W47136   0.231  17.166   4.607 -0.1119  0.0396 -0.0397
31328W        W47137   0.833  14.621   0.787  0.0841 -0.0463 -0.1274
31329W        W47138   2.344  17.553   2.065 -0.0383  0.1471  0.1051
31330W        W47139  14.490  11.027  15.443 -0.1102  0.0122 -0.2136
31331W        W47140  14.821  18.160  12.211  0.3722 -0.1738  0.0316
31332W        W47141   2.326  10.409  12.348 -0.1658  0.1859 -0.0780
31333W        W47142  12.554  12.689   0.290 -0.0746 -0.2709 -0.0777
31334W        W47143   3.172  12.851  15.062  0.0422 -0.1486  0.1261
31335W        W47144   8.979   2.504   1.873  0.2159  0.1014  0.1225
31336W        W47145  11.830   5.029  12.399  0.1363 -0.1010 -0.0818
31337W        W47146  17.127  17.195   0.315 -0.4452 -0.1611 -0.1571
31338W        W47147   8.182   0.884  15.135 -0.1016 -0.5761 -0.2161
31339W        W47148  16.617   6.164   0.230 -0.4414 -0.3148  0.0388
31340W        W47149  14.261   5.346  15.525 -0.0262 -0.4320 -0.1426
31341W        W47150   7.068  12.869  12.934 -0.2665  0.1502  0.0426
31342W        W47151   3.161   2.787   4.362  0.0120  0.0245  0.2267
31343W        W47152  14.818  11.918  13.706 -0.2266 -0.2697 -0.1357
31344W        W47153  16.271  10.639   1.418  0.2690  0.3185  0.4966
31345W        W47154   6.517  17.662   3.084 -0.1100 -0.0653  0.0278
31346W        W47155   9.617   2.206   5.113  0.0269  0.1493  0.0451
31347W        W47156   7.906   9.846  15.571  0.0642  0.1555  0.0155
31348W        W47157   3.365  17.527  11.636 -0.2298  0.0000 -0.1573
31349W        W47158  17.146   5.974  13.234  0.0897  0.0503 -0.1762
31350W        W47159   9.642   4.010   4.117  0.1820  0.2033  0.0483
31351W        W47160   5.620   4.156   3.286  0.0262 -0.0748  0.1301
31352W        W47161   9.376  16.304  13.380 -0.2334 -0.0212 -0.0440
31353W        W47162   1.069   8.862   0.096 -0.1611 -0.0138  0.4022
31354W        W47163  14.542   5.134   2.551 -0.0281  0.0894 -0.1955
31355W        W47164   1.484   0.242   1.352 -0.0153 -0.5043 -0.2268
31356W        W47165   5.470   9.245   4.772 -0.0415 -0.3685 -0.2035
31357W        W47166  14.217   4.881   2.263  0.0752 -0.0624  0.1314
31358W        W47167   2.979  13.222  12.461 -0.0575 -0.0059  0.1620
31359W        W47168  18.532  17.716  10.153 -0.2779  0.2848 -0.0184
31360W        W47169   4.037  13.520   4.233  0.0073 -0.2762  0.2153
31361W        W47170  10.614   7.915  13.518  0.1982 -0.2113  0.1302
31362W        W47171   0.273   3.887   3.034 -0.1277 -0.3868  0.2123
31363W        W47172  14.608  11.686   2.191 -0.0421 -0.0676  0.1062
31364W        W47173  15.576   1.748  14.419 -0.0643  0.1522 -0.3940
31365W        W47174  10.532   7.521  15.538 -0.2568 -0.0777  0.1845
31366W        W47175  14.195   8.680   9.714 -0.1513 -0.1772 -0.4556
31367W        W47176   5.270   2.488   4.099  0.0942  0.0097 -0.0543
31368W        W47177   0.476   0.402   3.837  0.0246  0.0018 -0.2309
31369W        W47178   0.587   5.948  13.004 -0.2065 -0.1990 -0.4544
31370W        W47179  13.399   5.285  15.030 -0.1818 -0.0867  0.1863
31371W        W47180  10.022  14.950  14.521  0.0428 -0.0926  0.0674
31372W        W47181  18.286   1.082  11.842 -0.1886  0.1494 -0.0033
31373W        W47182   6.983  10.141   0.319 -0.1315 -0.0629  0.0866
31374W        W47183   5.787  15.465  15.454  0.4917  0.4687  0.0297
31375W        W47184  14.147   5.849   1.985 -0.2509 -0.1760  0.4559
31376W        W47185  15.448  16.264   1.759 -0.0142  0.2036 -0.3387
31377W        W47186  13.516  17.769   4.164 -0.2524 -0.1598  0.0418
31378W        W47187  11.732   8.265   4.427  0.1731  0.1968  0.2642
31379W        W47188   9.872  12.387  14.243  0.4687  0.2546 -0.1453
31380W        W47189  13.064   5.980   4.067 -0.1407 -0.0638  0.1716
31381W        W47190   2.910  17.386   4.513  0.0720  0.5933 -0.0493
31382W        W47191   4.482  11.587   3.985  0.2154 -0.3398 -0.1564
31383W        W47192   8.770   8.984   3.295  0.0388 -0.0165  0.1902
31384W        W47193   5.722  16.804  11.044  0.0451 -0.2400  0.1562
31385W        W47194   3.909   9.146  12.860 -0.0364  0.1101  0.0454
31386W        W47195   8.837  12.580   5.101 -0.0537  0.1821  0.0393
31387W        W47196   0.776  15.111   2.059  0.0619  0.1059  0.0230
31388W        W47197  11.076   5.726   5.038  0.1664 -0.0436 -0.0246
31389W        W47198  11.594   8.220   0.812 -0.0679 -0.2652 -0.1458
31390W        W47199   9.502  11.272  13.818 -0.0440  0.2726 -0.2770
31391W        W47200  17.645   9.825  13.376  0.3186  0.0015  0.1466
31392W        W47201   1.786   1.794   4.986 -0.0222  0.1670  0.1062
31393W        W47202   0.418  13.524  13.983  0.0430  0.2125 -0.0789
31394W        W47203   1.545  10.978   3.536 -0.1447  0.0302  0.1331
31395W        W47204  14.069  17.068  12.241 -0.1076 -0.1844  0.1909
31396W        W47205   5.526   0.168  11.414 -0.1890  0.1289  0.2324
31397W        W47206   8.585  10.699   1.313 -0.0614 -0.3824  0.3592
31398W        W47207   6.899   4.918   1.943  0.2447  0.0737  0.1911
31399W        W47208  10.083  10.166   4.363 -0.0604 -0.1747 -0.2858
31400W        W47209  16.410   4.444  14.884  0.1929  0.0977  0.2075
31401W        W47210  17.307  12.884  12.764 -0.1034  0.0924 -0.1565
31402W        W47211   9.483  13.434   0.851  0.1237  0.2791  0.2707
31403W        W47212  18.070   1.592  15.325  0.2041 -0.0360  0.0218
31404W        W47213   7.996   7.183   2.603  0.2392 -0.0435 -0.1046
31405W        W47214   4.998   7.909   1.035  0.0146 -0.0815  0.1982
31406W        W47215  18.439  18.080   0.192 -0.0734  0.0564  0.1649
31407W        W47216  16.647  14.165  12.193 -0.3076  0.0309 -0.0334
31408W        W47217   0.773  14.485   4.419  0.2714 -0.3175  0.1136
31409W        W47218  13.503   1.345  14.648 -0.2368 -0.3221 -0.1785
31410W        W47219   1.760   5.905   4.243  0.1308  0.2137 -0.1868
31411W        W47220  18.476  15.283   2.261  0.2219  0.6613  0.2260
31412W        W47221  11.926  13.263  13.660  0.0416 -0.2828  0.0178
31413W        W47222   7.791  17.126   4.586  0.0325 -0.0677 -0.1600
31414W        W47223   0.395  12.351  15.447 -0.0306 -0.0024 -0.0009
31415W        W47224   4.168   7.278   5.684  0.0346 -0.2588 -0.0979
31416W        W47225   2.163   8.164  11.681  0.2154 -0.0928 -0.0940
31417W        W47226   5.994  17.041   4.309 -0.2584  0.1415 -0.0614
31418W        W47227  17.411   6.260  14.870 -0.0864 -0.3419  0.0697
31419W        W47228  15.752   0.079   0.258  0.3297  0.2214 -0.2018
31420W        W47229  15.738  11.909   2.494 -0.0278  0.2263  0.1033
31421W        W47230   9.527   8.960  14.519  0.2966  0.1888  0.2436
31422W        W47231  14.434   1.668   1.160  0.2568 -0.2196  0.1080
31423W        W47232   2.229  14.889  14.057 -0.3512 -0.0702  0.1212
31424W        W47233  15.903   1.957  14.105  0.0496  0.1430  0.1687
31425W        W47234  13.754   1.564   4.155  0.1065  0.0406 -0.4463
31426W        W47235  18.330   8.277  14.169 -0.0523  0.0326  0.0358
31427W        W47236  10.507  11.578   2.189  0.0911  0.1182  0.1572
31428W        W47237   4.961   6.135   1.450  0.4744  0.2203 -0.0756
31429W        W47238   5.982   6.826   0.017  0.0159 -0.0468  0.1629
31430W        W47239  10.475   4.534  14.812 -0.2650  0.0240 -0.0575
31431W        W47240  11.608  18.332   0.372  0.1721  0.0662  0.0327
31432W        W47241  12.604   7.550  13.887  0.1013  0.0193 -0.2134
31433W        W47242   5.849  10.128   4.759  0.0627  0.1347 -0.1509
31434W        W47243  14.872   9.686  15.374  0.2549 -0.0438  0.0941
31435W        W47244   2.076   0.702   3.095 -0.2378  0.1683  0.1326
31436W        W47245  12.478  14.359   2.453 -0.3278 -0.1331  0.2853
31437W        W47246  11.425  11.383   5.293  0.1311  0.2573 -0.0373
31438W        W47247   8.300  12.790   0.842  0.2237 -0.1573  0.4277
31439W        W47248   0.487   7.775   3.682  0.1734  0.2415 -0.4162
31440W        W47249   1.775   9.856   5.462 -0.0409  0.3177  0.2594
31441W        W47250   5.225   8.569  15.515 -0.1407  0.0009  0.1259
31442W        W47251   0.019  16.323  13.181  0.0717  0.1817  0.0936
31443W        W47252   5.277  11.009  14.735 -0.0903 -0.2486 -0.4296
31444W        W47253  14.581   5.512   1.507 -0.0461  0.0723  0.2531
31445W        W47254  17.839  16.117   2.365 -0.0690 -0.0813 -0.0527
31446W        W47255  18.423  17.908  13.293 -0.0727 -0.0274  0.1152
31447W        W47256   3.985  10.297   4.416 -0.4097  0.2769  0.0772
31448W        W47257   4.094   3.073   3.691  0.0150 -0.0436 -0.2032
31449W        W47258  15.772   9.717  11.524  0.0629 -0.0031 -0.1537
31450W        W47259  11.984  14.936  10.482 -0.1585 -0.1960  0.3020
31451W        W47260  14.034   5.041  11.822 -0.1409 -0.0602  0.2756
31452W        W47261  17.631   7.330   0.228 -0.2323  0.0087 -0.0224
31453W        W47262  13.090   0.760   2.250 -0.1017  0.1704  0.3724
31454W        W47263   2.444  14.559   4.231  0.2724  0.0111  0.0173
31455W        W47264  10.107  10.853   2.885  0.1229  0.3220  0.0737
31456W        W47265   1.224   6.080  14.678  0.2959 -0.1235  0.1607
31457W        W47266   7.020  14.894  13.008 -0.2156 -0.0000 -0.1771
31458W        W47267  18.375   0.422   2.205 -0.2305  0.3732  0.0967
31459W        W47268  15.734   4.948  13.200 -0.0310 -0.0306 -0.0749
31460W        W47269   4.865  16.886  12.179 -0.0343  0.0307  0.1284
31461W        W47270   5.058   8.349  14.696  0.0261  0.3746 -0.0759
31462W        W47271   5.720   6.345  14.174  0.1380  0.0334  0.0203
31463W        W47272  17.556  10.780   3.960  0.0927  0.1000 -0.0851
31464W        W47273   3.622   1.483   1.432  0.0525 -0.0486 -0.1797
31465W        W47274   1.685  16.381   0.589  0.0454  0.0579 -0.1381
31466W        W47275  12.383   1.319  14.683  0.2639  0.0951  0.0354
31467W        W47276  16.669   4.723  11.521 -0.1186 -0.2500 -0.1915
31468W        W47277  13.533   5.634  13.502  0.0595 -0.0139  0.1249
31469W        W47278   9.550  11.721   3.159  0.1288  0.0071  0.0351
31470W        W47279   5.328   6.238  15.014  0.1078 -0.1905 -0.1007
31471W        W47280   0.418   8.365   0.333  0.0317  0.1487 -0.0576
31472W        W47281   4.604   7.579  14.881 -0.1592 -0.1235  0.2612
31473W        W47282  13.981  17.581  11.914 -0.2316 -0.1757 -0.0892
31474W        W47283  12.653   2.735   0.003 -0.0495  0.1513 -0.1420
31475W        W47284   5.791  13.353  10.112  0.0799  0.0098 -0.2605
31476W        W47285  14.594   3.073   3.573 -0.0543  0.0101 -0.4588
31477W        W47286   3.855  12.814  11.829  0.3715  0.0094 -0.0509
31478W        W47287  11.674  17.497   1.448  0.0298  0.0197 -0.2825
31479W        W47288   4.548  16.308  11.021  0.1204  0.1422  0.0586
31480W        W47289   9.001  11.059  15.148 -0.0584 -0.0344  0.0070
31481W        W47290   0.167   5.636   2.486  0.2372 -0.2444  0.2684
31482W        W47291   3.074   0.377   1.895  0.1461  0.1820 -0.1752
31483W        W47292   2.672   9.993  12.726 -0.0244  0.2156  0.1710
31484W        W47293  14.146   2.793  13.641  0.0235 -0.0864 -0.1614
31485W        W47294   6.588   0.420  13.454 -0.0512  0.0607 -0.0571
31486W        W47295   5.567   5.141   2.305  0.2348 -0.2995 -0.1266
31487W        W47296   9.457   1.476  10.077  0.1132  0.0377 -0.0609
31488W        W47297  10.766   9.631   5.167 -0.1379 -0.0105  0.1676
31489W        W47298   9.130   2.173  13.641 -0.3213  0.0864 -0.0687
31490W        W47299   2.486   3.959   4.600  0.0530 -0.1537 -0.2091
31491W        W47300   3.814  14.420   3.393 -0.0469  0.0638  0.1977
31492W        W47301   6.236  15.569   3.297  0.2221  0.3123 -0.1981
31493W        W47302   5.964   1.611   0.169 -0.0639  0.0051 -0.1747
31494W        W47303  13.140  10.013  11.360  0.1741 -0.1080  0.1162
31495W        W47304   7.763   4.223  13.177 -0.1776 -0.1161  0.2679
31496W        W47305   9.005  10.023   3.851  0.2064 -0.0576 -0.3235
31497W        W47306   5.348  11.105  13.172  0.0875 -0.0847 -0.0931
31498W        W47307   0.514   1.895  11.541  0.0291  0.1831  0.2144
31499W        W47308  18.211   9.234  11.828 -0.0443  0.1575 -0.2292
31500W        W47309   1.595  16.274  11.204  0.1226 -0.0825 -0.0691
31501W        W47310   9.813   8.289   0.251  0.4046 -0.0892 -0.1506
31502W        W47311  13.528  13.697   1.301 -0.0172 -0.0459 -0.1365
31503W        W47312   9.942  14.837  11.665 -0.2292 -0.2519  0.4460
31504W        W47313   3.940   8.838  12.084  0.0185  0.0212  0.4260
31505W        W47314  18.538  11.376  14.506  0.1732 -0.1671  0.2560
31506W        W47315   6.261   8.750   4.580 -0.2023  0.0520  0.0011
31507W        W47316  10.345  10.665  11.498  0.1836  0.0749 -0.1793
31508W        W47317  10.951   9.299  12.464 -0.1160 -0.2484 -0.3371
31509W        W47318   4.754  14.839   9.797 -0.0834 -0.1975  0.1111
31510W        W47319   8.410  12.352  11.901 -0.0817  0.2238 -0.3212
31511W        W47320  11.769   7.408  12.591  0.3555 -0.1619 -0.2565
31512W        W47321   2.901   9.361  15.276  0.0153  0.3623  0.1727
31513W        W47322   6.804   9.398  10.942 -0.2607  0.1468  0.0588
31514W        W47323   2.143   7.725   2.878 -0.0775 -0.0872  0.2186
31515W        W47324   3.527  17.741  15.211 -0.4926  0.1864 -0.1225
31516W        W47325   9.887   1.857   4.733 -0.0326 -0.0455 -0.0910
31517W        W47326   7.818  14.472   3.547  0.0013 -0.2312  0.2391
31518W        W47327  17.407  15.553  12.708  0.0888 -0.1534  0.0402
31519W        W47328  15.229   1.802  15.481 -0.3965  0.1558 -0.3817
31520W        W47329   6.099   6.644  13.990 -0.1120  0.0911 -0.2391
31521W        W47330   1.050  15.386  11.177  0.1044 -0.0811  0.2775
31522W        W47331   0.737   5.165   3.447 -0.0331 -0.0063  0.0476
31523W        W47332   3.986   4.692  15.019 -0.0493 -0.0925 -0.2499
31524W        W47333  10.127  17.441  11.133  0.1659 -0.1410 -0.0401
31525W        W47334  15.283   4.823  10.897  0.1836 -0.1919 -0.3415
31526W        W47335   7.713   0.689  14.588  0.0134 -0.0025 -0.0750
31527W        W47336  15.953  11.256  10.824  0.2935  0.0411 -0.0633
31528W        W47337  12.165   1.837  12.166 -0.0467 -0.3981 -0.3124
31529W        W47338  12.875  10.207  13.688  0.1775 -0.1073 -0.0819
31530W        W47339   1.383   4.269  13.653  0.0222  0.2070  0.2236
31531W        W47340   9.218  18.609   4.468  0.0847 -0.4489  0.4082
31532W        W47341  17.145   1.650   3.612  0.1469 -0.3783 -0.0451
31533W        W47342  11.073   8.492   3.538  0.0278  0.0587  0.2356
31534W        W47343  14.921  17.092  11.241 -0.0511 -0.1251  0.0236
31535W        W47344   8.053   9.355   1.287  0.1486 -0.2041  0.0166
31536W        W47345  11.623  14.110   4.910 -0.1850  0.1873 -0.0224
31537W        W47346  14.903   6.086  14.764  0.2092 -0.0365 -0.0684
31538W        W47347   0.846  13.895   3.169 -0.0949 -0.0037  0.1910
31539W        W47348  13.059  15.524   5.805  0.2093 -0.1568 -0.0038
31540W        W47349   0.126   2.844   4.021  0.7140  0.1601 -0.0138
31541W        W47350   2.606   1.620   0.741  0.2968  0.0154 -0.1211
31542W        W47351   2.381   0.108   3.791  0.1735 -0.2154 -0.0802
31543W        W47352  13.560  12.674   2.180  0.1895  0.3195  0.2222
31544W        W47353   7.222  12.227  15.352 -0.2890 -0.1783  0.0704
31545W        W47354   7.873  13.340  12.694 -0.0112 -0.0585 -0.4888
31546W        W47355   8.921  13.583  13.781  0.1192  0.0357  0.0410
31547W        W47356   7.924   4.378  15.235 -0.1563 -0.0866  0.2190
31548W        W47357   2.961   5.434  14.467  0.4219 -0.0559 -0.1303
31549W        W47358   9.594   2.939   4.910  0.1352 -0.1508 -0.2855
31550W        W47359  12.395  17.705  14.434  0.0147 -0.1500  0.2020
31551W        W47360  16.704  11.758   4.929  0.3830 -0.0783  0.2416
31552W        W47361   1.481  11.330   1.526  0.1084 -0.1590  0.1129
31553W        W47362  14.697  11.473  15.286 -0.0501 -0.1365 -0.2648
31554W        W47363   3.110   9.388  14.324  0.0923 -0.2024 -0.1328
31555W        W47364  10.628  15.477  14.563 -0.0118 -0.0012 -0.3163
31556W        W47365   1.854   7.684  12.830  0.0380  0.3047  0.0950
31557W        W47366   1.709   9.055   2.805 -0.1565 -0.3940 -0.1008
31558W        W47367  16.628   6.174  15.355 -0.0008 -0.0812 -0.1451
31559W        W47368  17.042  10.417   2.382  0.2142 -0.0081  0.1120
31560W        W47369  15.965  18.260   1.105  0.0692  0.0613 -0.0475
31561W        W47370   7.545   1.720   1.018  0.0536  0.0608  0.1419
31562W        W47371  10.071  10.259  15.491 -0.1017 -0.0992 -0.2277
31563W        W47372  18.028  15.841  11.180 -0.2131  0.1040  0.2002
31564W        W47373   8.256   3.382   0.100 -0.1045  0.2514  0.0648
31565W        W47374  12.411   4.292  12.588 -0.0196  0.0889 -0.1886
31566W        W47375  11.094  17.294   2.094 -0.2477 -0.0846 -0.2808
31567W        W47376  16.133   2.655   1.621  0.3638  0.0170 -0.0658
31568W        W47377   0.100  11.132  11.772  0.2062 -0.0833 -0.1504
31569W        W47378   3.320   9.967   1.482 -0.0619  0.1946 -0.0875
31570W        W47379  11.610   4.755  12.986 -0.1029 -0.1226 -0.0116
31571W        W47380  15.369  18.566   2.943 -0.1324  0.0561  0.0073
31572W        W47381  17.176   7.250  13.313 -0.5465  0.0151  0.1874
31573W        W47382  16.089   7.756   3.987  0.3741 -0.0336 -0.1765
31574W        W47383  13.336   3.053   0.252 -0.2059  0.0797 -0.1750
31575W        W47384  14.986   8.263   2.508 -0.0967 -0.2529  0.4435
31576W        W47385   2.763   1.222  12.186 -0.1159 -0.3798  0.0177
31577W        W47386   9.149   3.143   0.033  0.0411 -0.3518 -0.0543
31578W        W47387   3.837  11.916   0.406 -0.1727  0.2707 -0.0693
31579W        W47388  10.466  14.091   4.127  0.0495 -0.1022 -0.0495
31580W        W47389   4.276  17.242  12.331 -0.0926 -0.0511 -0.1048
31581W        W47390  10.677   9.425  13.764  0.1320  0.0051 -0.1901
31582W        W47391  17.268   0.777  14.974  0.2410 -0.3986  0.0950
31583W        W47392  13.297   0.914   0.798  0.0782  0.1569 -0.2447
31584W        W47393   0.832   0.373  14.880  0.2450 -0.1379  0.0745
31585W        W47394   2.951  12.755  10.568  0.3172  0.3159 -0.0088
31586W        W47395  15.115   6.676   2.784 -0.2913 -0.0462  0.1072
31587W        W47396   7.884  16.981   0.722  0.2862 -0.2953  0.1180
31588W        W47397   2.901  14.638  12.966 -0.1594 -0.1696 -0.0824
31589W        W47398   6.489   3.163   4.531 -0.0069  0.0383 -0.1183
31590W        W47399  13.143   7.050  14.619  0.0464 -0.2479  0.1496
31591W        W47400  12.043  15.293  14.183 -0.1377 -0.0209  0.3348
31592W        W47401   1.905   1.672  15.401  0.1347  0.2802 -0.0831
31593W        W47402   6.718  12.398   4.581  0.0226 -0.1522  0.2180
31594W        W47403   5.707  13.509  11.962  0.2307 -0.0304 -0.0672
31595W        W47404   1.985  10.627  15.117 -0.2375 -0.2274  0.1076
31596W        W47405  12.024  16.476  13.255 -0.2469 -0.0709 -0.1004
31597W        W47406   2.440   6.195   0.133 -0.0436 -0.0966 -0.1066
31598W        W47407  13.017   9.444  11.578  0.1579  0.2613  0.1962
31599W        W47408   1.145  15.410   0.172 -0.1262 -0.0245 -0.1132
31600W        W47409  11.461  10.032   1.637 -0.0051  0.1694 -0.0238
31601W        W47410   6.945  13.255  13.163  0.0089 -0.0255 -0.1740
31602W        W47411  18.462   8.283   0.205  0.1705  0.0022  0.0259
31603W        W47412  17.255   2.131   5.247 -0.1143  0.0491 -0.0721
31604W        W47413   3.988  14.181  13.417  0.2197 -0.0923  0.1358
31605W        W47414   8.119  11.638   4.228  0.2844 -0.3737  0.1077
31606W        W47415   3.733  17.872  11.647 -0.0203  0.3245  0.0651
31607W        W47416  11.139   9.095  10.681 -0.2524  0.1535  0.0581
31608W        W47417  12.652   9.544  14.143 -0.0002  0.2116 -0.2954
31609W        W47418  10.003   4.169   3.402  0.1995  0.1932  0.1836
31610W        W47419   5.763   1.258   2.029 -0.0505  0.2775 -0.1682
31611W        W47420  14.522   9.246   4.037 -0.2654 -0.1610 -0.0387
31612W        W47421   2.230  11.565  10.111  0.1100 -0.2375 -0.0256
31613W        W47422   8.333  12.465  13.145 -0.0109  0.1106 -0.0767
31614W        W47423   0.023   0.056  13.688  0.2372 -0.1065  0.0271
31615W        W47424  10.413  10.660   3.264 -0.0423  0.1788 -0.5127
31616W        W47425   3.619  18.154  14.052  0.2874  0.0186  0.0377
31617W        W47426   0.818  16.574   5.179  0.1909 -0.0622 -0.0137
31618W        W47427  15.047   4.380   3.483  0.1407 -0.3102  0.0679
31619W        W47428   7.248  10.458  11.522  0.1299 -0.1593 -0.1009
31620W        W47429   5.450   6.215  13.546 -0.0595  0.1537  0.0830
31621W        W47430  12.035   6.093   2.227  0.2753 -0.1043  0.2609
31622W        W47431  11.328  15.278   1.141 -0.0451  0.0579  0.0011
31623W        W47432   3.474  15.887   2.129  0.0400 -0.2651 -0.1724
31624W        W47433   5.479   7.199  10.940  0.0166 -0.0177 -0.0435
31625W        W47434   4.725   3.230   3.174 -0.1721  0.1455  0.2860
31626W        W47435   6.784   5.954   4.481  0.0050  0.2982 -0.0363
31627W        W47436  16.945  18.461   0.868  0.2327  0.0789  0.1413
31628W        W47437  15.642  18.440   3.339 -0.2964 -0.2740  0.2228
31629W        W47438  11.829  12.815   0.837  0.0312 -0.0560  0.1345
31630W        W47439  18.500  17.391  14.976  0.0369  0.0683  0.0583
31631W        W47440   4.897   1.563   5.191  0.3700 -0.1480 -0.1020
31632W        W47441  18.241   5.245  12.034  0.1023  0.0979 -0.2062
31633W        W47442   8.652   4.092   9.805 -0.0029 -0.1783  0.2093
31634W        W47443  17.852  13.310   2.886 -0.2044 -0.4230  0.3828
31635W        W47444   1.491  12.254  10.890 -0.0054  0.2256  0.0718
31636W        W47445   8.806  11.014  11.237 -0.3803  0.3715  0.3633
31637W        W47446  12.121   1.927   0.930 -0.0723  0.0927  0.1986
31638W        W47447   6.031   2.777  12.135 -0.1531  0.0920  0.1416
31639W        W47448   4.806   6.023   2.219 -0.2644  0.0493 -0.0434
31640W        W47449  18.023  15.700   2.126 -0.2501  0.2378 -0.1016
31641W        W47450   5.036   9.837   3.539 -0.1371  0.3297  0.0752
31642W        W47451  11.869  10.181  12.353 -0.1435  0.2554 -0.0591
31643W        W47452  15.631  10.523   2.902  0.0648  0.0639  0.0893
31644W        W47453  16.145  14.766   2.371  0.5347 -0.0729 -0.1973
31645W        W47454  13.178   2.960   1.707 -0.2656  0.1605 -0.1907
31646W        W47455  13.399   2.396   1.776  0.0711  0.1261 -0.1207
31647W        W47456  15.242  13.184   2.400  0.1137 -0.0569 -0.0544
31648W        W47457   9.622   2.700   3.095 -0.0973 -0.0107  0.1033
31649W        W47458  14.268  10.348  11.502  0.0605 -0.1870 -0.0169
31650W        W47459   4.550   6.920   3.152  0.0966  0.1398  0.0897
31651W        W47460   7.583  15.478  13.820 -0.1075  0.1594 -0.0957
31652W        W47461  10.029   2.482  11.177 -0.1725  0.3330  0.0008
31653W        W47462   3.256   5.031  14.673 -0.1595 -0.1693 -0.1308
31654W        W47463   4.565   1.324   1.631 -0.3331 -0.1612  0.0788
31655W        W47464  15.912  12.126   5.005 -0.0989 -0.0098  0.0496
31656W        W47465   9.579   9.623   1.168 -0.2472  0.0615  0.0747
31657W        W47466   7.673  14.197  14.430  0.3525 -0.1740  0.0848
31658W        W47467  11.642  13.947  14.690 -0.1183  0.1153 -0.0268
31659W        W47468  16.866  13.840  15.242 -0.3100 -0.2138  0.1556
31660W        W47469   1.325   3.540   3.183  0.0675 -0.2981 -0.1692
31661W        W47470   1.082   8.080   2.565 -0.3245 -0.1480  0.0932
31662W        W47471   0.337   5.782  11.881  0.0335 -0.0619 -0.0626
31663W        W47472  16.266   8.911   1.932 -0.1219  0.0832  0.0456
31664W        W47473   3.990   4.479   2.963  0.2847  0.0512 -0.2566
31665W        W47474   3.225   3.304   0.372  0.0500 -0.3320  0.0523
31666W        W47475  18.162   0.602  15.220  0.2044  0.2015 -0.1673
31667W        W47476  10.018   3.168   3.064  0.0880 -0.3388  0.0627
31668W        W47477   9.768  17.842  11.464 -0.1039 -0.0386 -0.3359
31669W        W47478  13.693  14.884   0.338 -0.2125  0.0002  0.2740
31670W        W47479   3.805   3.534   5.760  0.1584 -0.3384 -0.0060
31671W        W47480   7.141   1.915   3.948 -0.0970 -0.2116 -0.0524
31672W        W47481  13.502   6.843  14.928 -0.1639 -0.2724  0.0103
31673W        W47482   5.192  11.168   2.918 -0.3650  0.1750  0.4139
31674W        W47483  13.785  16.609   6.188 -0.1613  0.1558  0.1409
31675W        W47484   5.562   5.299  10.032 -0.2252 -0.1042 -0.4591
31676W        W47485   5.771   1.455   3.500  0.2402 -0.0933  0.1672
31677W        W47486   0.043   7.293   1.176 -0.0171 -0.1568 -0.0282
31678W        W47487  17.521  16.648  11.724  0.4016 -0.1946  0.0723
31679W        W47488  16.675  11.455  15.167 -0.0259  0.2292  0.1449
31680W        W47489   3.613  16.366   3.532  0.1174  0.0970  0.0057
31681W        W47490   5.563   7.770   2.533  0.0936 -0.1183  0.0008
31682W        W47491  13.593   9.101   0.506  0.0675 -0.0736  0.2521
31683W        W47492  14.050   8.109   1.805  0.2206  0.3755 -0.1818
31684W        W47493   6.145  16.917   1.556  0.2051  0.2755 -0.0010
31685W        W47494   3.374   2.763   3.037 -0.1079 -0.0999 -0.0216
31686W        W47495   8.624  16.523   2.440 -0.0974 -0.3244 -0.3559
31687W        W47496  12.357   5.474   3.490  0.1567 -0.1429  0.0447
31688W        W47497  14.373  18.488   0.781 -0.1181 -0.1585  0.1263
31689W        W47498   6.492  11.559   5.054 -0.0200 -0.0517  0.3346
31690W        W47499  14.840  18.275   2.246 -0.0048 -0.1022  0.0859
31691W        W47500   8.272   4.644   2.840  0.0487  0.0040  0.2387
31692W        W47501   8.407   5.128  11.482 -0.0734 -0.2742  0.0977
31693W        W47502  10.406   6.235   1.311 -0.0280  0.1988  0.3058
31694W        W47503   2.401   8.526   3.216 -0.1879  0.0939 -0.2276
31695W        W47504   9.980   9.085  14.280 -0.0430 -0.1098 -0.0489
31696W        W47505  10.656  12.313   0.209  0.3752  0.1399  0.3006
31697W        W47506   7.845  16.321  11.170  0.0828 -0.1417 -0.1578
31698W        W47507  16.630  14.498  13.193 -0.0855 -0.1190  0.1196
31699W        W47508   4.777  10.842   2.249  0.2057  0.1002 -0.0457
31700W        W47509  16.301  12.733   2.401  0.2005 -0.1914  0.2258
31701W        W47510   9.864   3.430   2.034 -0.0943  0.1197  0.1299
31702W        W47511  16.228  13.812   1.051 -0.2936  0.2378 -0.0893
31703W        W47512   6.884   7.721   2.155 -0.0970  0.1178 -0.1851
31704W        W47513   7.110  11.503  13.513 -0.0568  0.0994 -0.1879
31705W        W47514  18.509   4.091   4.000  0.0133 -0.6293  0.0031
31706W        W47515   9.992  14.437  12.489  0.1717  0.0353  0.0226
31707W        W47516   4.514  14.185  13.428  0.2442  0.0716  0.1180
31708W        W47517  11.613  14.509  14.679 -0.3707 -0.1693 -0.1219
31709W        W47518  10.286   8.025   4.927 -0.2383  0.1534 -0.0445
31710W        W47519   2.370   6.675   2.276 -0.0266  0.0671 -0.1048
31711W        W47520  14.641   7.389  10.979  0.2308  0.1198 -0.0757
31712W        W47521  14.970   9.600   2.864 -0.2629 -0.2889  0.1001
31713W        W47522   4.588   1.839   3.105 -0.0154 -0.0966  0.0643
31714W        W47523  13.231  11.935  14.449  0.1226 -0.1932  0.0213
31715W        W47524  16.727   8.481  15.614  0.2199  0.4089  0.1260
31716W        W47525   3.956   3.061   4.162  0.4388  0.0011  0.0591
31717W        W47526   2.100   8.897   3.374  0.0864 -0.3781  0.0628
31718W        W47527   5.339   2.918  13.617 -0.1035  0.2023  0.1148
31719W        W47528  10.043  12.407  13.712 -0.2192 -0.1268  0.1816
31720W        W47529  14.328  14.159  13.070 -0.0572 -0.2340 -0.0890
31721W        W47530   8.465  14.744   2.338  0.1806 -0.0118 -0.2921
31722W        W47531  13.105  14.987   2.978 -0.2420  0.4377 -0.1688
31723W        W47532   0.392  14.312  13.691  0.0919 -0.3289  0.0273
31724W        W47533   1.065  11.766  14.028 -0.1670 -0.2942 -0.2338
31725W        W47534  13.497   5.888  13.955 -0.0884 -0.1185  0.0385
31726W        W47535   1.689   7.064  14.900 -0.1428 -0.0819  0.2694
31727W        W47536   8.149  18.082  12.231 -0.0030  0.4146  0.2343
31728W        W47537  14.009  18.104  14.766  0.0833 -0.0616  0.1392
31729W        W47538   2.865  18.390   3.183 -0.0674 -0.4528  0.1126
31730W        W47539  12.159  17.642   5.051  0.2610 -0.2301  0.0758
31731W        W47540   1.952   0.715  12.556  0.0198  0.0593 -0.2755
31732W        W47541   4.528   1.552   2.702 -0.2829  0.0131 -0.1439
31733W        W47542   5.562   3.432   0.469  0.0558 -0.1681 -0.1538
31734W        W47543  12.980  17.572   4.795  0.5636 -0.1020 -0.2925
31735W        W47544   2.861   6.273  15.601  0.3113 -0.1015 -0.1314
31736W        W47545  10.168   9.378   0.333  0.1563 -0.1092 -0.1768
31737W        W47546   5.754   5.472  12.238  0.0158 -0.1421  0.0274
31738W        W47547   7.366   3.252  13.517 -0.0292 -0.0229  0.3889
31739W        W47548  11.772   7.867  12.930  0.1728 -0.3195 -0.0286
31740W        W47549  15.594  15.534  12.326  0.1273  0.0114 -0.0647
31741W        W47550  12.544  11.373   3.434  0.2870  0.0645 -0.2115
31742W        W47551  17.410   7.219   4.145 -0.0051  0.0441  0.0335
31743W        W47552   1.132  14.810   4.102 -0.1598  0.3215 -0.1130
31744W        W47553   9.711   4.210   4.587  0.0547 -0.3145  0.0547
31745W        W47554  13.974   3.246  14.431  0.2784  0.3432 -0.0137
31746W        W47555   3.058   9.827  10.657 -0.1992 -0.3509 -0.0948
31747W        W47556   3.937   7.846  11.734  0.2230 -0.0322 -0.1595
31748W        W47557  12.943  16.640  12.081  0.5552 -0.2301 -0.1429
31749W        W47558   5.124  10.689   3.051 -0.1137  0.0519  0.2859
31750W        W47559   5.397  15.760   5.738  0.0790  0.1192 -0.1876
31751W        W47560   1.801  17.237   1.194  0.1091  0.1010 -0.0197
31752W        W47561   4.639  18.508   1.133 -0.2281  0.1365 -0.0384
31753W        W47562   8.591  18.308  14.430  0.2068 -0.4321 -0.0345
31754W        W47563  15.074  17.705  15.460 -0.0387 -0.1072  0.0360
31755W        W47564  12.312   3.513  13.182 -0.0608  0.0838 -0.0029
31756W        W47565   3.257  11.521  14.511 -0.0039  0.1403 -0.1077
31757W        W47566   8.351  18.494   1.849 -0.0459 -0.2826  0.2667
31758W        W47567  10.290  13.282  11.409 -0.1526  0.1366 -0.2726
31759W        W47568   5.487   9.845   3.958  0.1590 -0.2577 -0.0648
31760W        W47569   9.060   5.222   2.938 -0.0761  0.1686 -0.3566
31761W        W47570   7.041  15.985   1.485 -0.0267 -0.2923 -0.0476
31762W        W47571  17.679  17.422  12.105  0.0835  0.2820  0.0081
31763W        W47572  17.376   3.045   2.891 -0.1637 -0.1223  0.2564
31764W        W47573  16.203  18.473   0.360  0.2656 -0.1606 -0.1317
31765W        W47574  17.110  12.595   0.487  0.2755  0.0121  0.2877
31766W        W47575   5.664   4.246  13.588  0.2478  0.3749  0.1264
31767W        W47576   3.600   3.408   4.006 -0.0372  0.0662 -0.1198
31768W        W47577  13.296   1.490   2.332 -0.0216 -0.0464 -0.4295
31769W        W47578   5.646   2.818  11.102 -0.0406  0.0062 -0.3088
31770W        W47579  16.632  16.888  11.831 -0.0203  0.2943  0.0337
31771W        W47580   0.016  16.030  14.827  0.0420 -0.0480 -0.1904
31772W        W47581  11.017   6.627   0.908 -0.1168  0.3008 -0.1330
31773W        W47582  12.508   0.270  14.833 -0.2916  0.0635 -0.2123
31774W        W47583   9.573   8.680   0.156  0.0918  0.1672 -0.0395
31775W        W47584  14.509   6.459   3.880  0.2231 -0.4029 -0.1745
31776W        W47585   0.892   3.034   0.159  0.2598  0.1267 -0.0422
31777W        W47586  17.404   7.894   4.471  0.2031  0.0802 -0.0776
31778W        W47587   1.943   1.263   4.937  0.0808  0.0154  0.2999
31779W        W47588  14.519  17.408   4.189  0.1885 -0.1068  0.2776
31780W        W47589  13.006  17.320  14.510  0.0544 -0.0720 -0.1857
31781W        W47590  17.805   4.285  10.442 -0.0980 -0.1951 -0.0317
31782W        W47591   5.127  10.485  13.341  0.1977  0.2338  0.0989
31783W        W47592   6.006   0.615   3.293 -0.0884  0.1957  0.2420
31784W        W47593  14.016  13.024   4.512  0.1095 -0.1277 -0.0452
31785W        W47594   2.042  14.427   0.943 -0.0299  0.0478 -0.0077
31786W        W47595   8.408  15.626   5.167 -0.1503 -0.0331  0.2129
31787W        W47596   8.125  11.432   3.301  0.5438 -0.1215  0.0500
31788W        W47597  17.686  10.876   1.373  0.0820 -0.2226 -0.0836
31789W        W47598   8.899  17.092  14.884 -0.1374 -0.0979 -0.0467
31790W        W47599   3.271   2.352   1.731 -0.2126  0.0542 -0.0613
31791W        W47600   5.753   4.820   0.188  0.0728  0.1494  0.0139
31792W        W47601  14.760  11.583   3.114 -0.0458  0.0765 -0.1854
31793W        W47602  13.393  12.792   4.618  0.1175 -0.1369 -0.1883
31794W        W47603  10.509  12.417   4.427  0.3093 -0.1153 -0.1255
31795W        W47604  16.460   4.167  11.513  0.1002 -0.4397 -0.2194
31796W        W47605   9.544  10.341   4.371 -0.3900  0.2149 -0.2371
31797W        W47606  14.250   3.542   5.494  0.0261  0.0310  0.0435
31798W        W47607  11.295  15.946   4.578 -0.1746  0.0324 -0.0254
31799W        W47608   6.499  10.334  14.134 -0.0403  0.3682  0.0837
31800W        W47609   5.400   4.782  11.799 -0.3151 -0.0923  0.0161
31801W        W47610   4.953  16.345   2.633 -0.1816  0.1791 -0.3470
31802W        W47611   2.824  13.125   4.921 -0.1294  0.2209 -0.1938
31803W        W47612   2.764  14.303  14.142 -0.1744 -0.0106  0.1703
31804W        W47613  10.483  18.532   5.113 -0.4549  0.0059 -0.2047
31805W        W47614  18.570   6.966   0.820  0.1290  0.1267 -0.1895
31806W        W47615  18.486  15.352   1.332 -0.0381  0.2408  0.0751
31807W        W47616   0.001   7.277  11.613  0.4529  0.0156 -0.0142
31808W        W47617   8.235   4.562   1.885 -0.0112  0.2041  0.1653
31809W        W47618   0.615  17.476  12.711 -0.1856  0.0753 -0.0593
31810W        W47619   5.543  13.513   0.386 -0.0506  0.1365  0.0241
31811W        W47620  13.819   8.481   1.337 -0.3309 -0.1406 -0.1016
31812W        W47621   1.799   6.342   3.941  0.3111 -0.0495 -0.1169
31813W        W47622   8.858   2.663   0.983 -0.3550 -0.3310 -0.1753
31814W        W47623  15.723   3.364  14.167  0.3106  0.0170  0.1899
31815W        W47624   1.021  15.291   9.883 -0.4087 -0.2889  0.0734
31816W        W47625   5.300   8.123  15.183  0.0117 -0.0328  0.1863
31817W        W47626  14.796   9.504   3.710 -0.1072 -0.0945 -0.0987
31818W        W47627   1.846   1.378   2.147  0.3096  0.0803  0.2453
31819W        W47628  11.892  14.643   4.556 -0.1223  0.2521 -0.0998
31820W        W47629  10.629   0.893  15.605  0.0142 -0.0100  0.3452
31821W        W47630   7.263   5.630  14.903 -0.1092  0.0509 -0.0884
31822W        W47631   3.885  13.966   0.351  0.1367  0.1861  0.0522
31823W        W47632  17.458   9.769   1.348  0.3988  0.0123  0.0283
31824W        W47633  17.157  15.826   1.062 -0.0430 -0.1503 -0.0861
31825W        W47634   3.960   9.195   1.305 -0.2400 -0.0888  0.1075
31826W        W47635   8.902   0.360  14.821  0.2619  0.1998 -0.3527
31827W        W47636  11.325   1.906   5.687 -0.2759  0.2700 -0.1542
31828W        W47637  12.313   3.691  15.075  0.1572 -0.0695 -0.0224
31829W        W47638  16.333   1.877  11.477  0.0651 -0.2667 -0.0816
31830W        W47639  17.953  11.746   3.000  0.0746  0.1890  0.0209
31831W        W47640  13.966  12.648   4.121 -0.1079  0.2679 -0.4403
31832W        W47641  10.870  15.262  14.938 -0.2158 -0.1865 -0.1464
31833W        W47642  11.081   6.275   9.675  0.0845  0.3156  0.2022
31834W        W47643  16.662   0.299   1.140 -0.0307 -0.0425  0.2265
31835W        W47644  11.638   3.524   3.799 -0.0598  0.0051 -0.1152
31836W        W47645  12.532   4.963  12.839 -0.1608 -0.0091  0.0760
31837W        W47646   8.248  10.659   0.046 -0.2126  0.1398 -0.0060
31838W        W47647   1.611  13.954  14.778  0.0848 -0.1551 -0.0115
31839W        W47648   5.345   5.892   4.098 -0.2367 -0.1311  0.3732
31840W        W47649   6.831   9.142   9.979  0.0182  0.0588  0.0571
31841W        W47650   5.566   3.333   3.800 -0.1323 -0.2237 -0.1291
31842W        W47651  17.289  12.064   0.251 -0.1028 -0.1786 -0.0391
31843W        W47652   1.167   2.749  10.898  0.0751 -0.2529  0.0105
31844W        W47653  18.644   6.260  12.500  0.1849 -0.2007  0.1052
31845W        W47654   2.427  11.445  15.095 -0.0917  0.2864 -0.2153
31846W        W47655   9.757  15.039   4.992 -0.2623 -0.1340 -0.1088
31847W        W47656   2.639   4.172  11.706  0.1453 -0.4687 -0.0208
31848W        W47657   1.600   4.984  14.686 -0.4083  0.4581 -0.2778
31849W        W47658   1.151   9.183   2.712  0.0588 -0.1447  0.2348
31850W        W47659   0.503  15.604   3.064  0.1170 -0.0660  0.3276
31851W        W47660  10.135  13.481   3.158 -0.1661 -0.1963 -0.0432
31852W        W47661   2.405  17.037   2.969  0.0839 -0.2938 -0.0866
31853W        W47662  11.627  14.590   1.606  0.0572 -0.2303  0.1558
31854W        W47663  16.638   0.420   2.211 -0.1994 -0.0655  0.1015
31855W        W47664   5.186  11.807  11.995  0.0251  0.1112  0.0025
31856W        W47665  16.648  14.074  14.299  0.0338  0.2926  0.1660
31857W        W47666  13.353   7.947  12.589 -0.0047 -0.0953 -0.4208
31858W        W47667  13.033   3.377  14.278  0.0259  0.0486 -0.0519
31859W        W47668  14.625  11.156   2.311  0.0017  0.0343  0.2226
31860W        W47669  15.564  14.424   1.537  0.0618 -0.0053 -0.0990
31861W        W47670   2.128  14.813  10.646  0.4063 -0.0426 -0.1770
31862W        W47671  15.082  10.186   4.083  0.3560 -0.1015  0.1051
31863W        W47672   9.172   0.046  12.427 -0.1283 -0.1461  0.2325
31864W        W47673  14.631  10.708  10.673  0.2909 -0.1081 -0.0734
31865W        W47674  15.217  13.481   1.893  0.3612 -0.1899 -0.0276
31866W        W47675   6.102   2.180   0.047  0.0028 -0.1102  0.2461
31867W        W47676   1.079   8.997  14.288  0.0270  0.3313  0.0175
31868W        W47677  11.638  18.547   4.823  0.3302 -0.4190 -0.1745
31869W        W47678  10.570   1.609   5.256  0.3059  0.2785  0.2178
31870W        W47679   4.680   0.801   2.445  0.0162  0.0907  0.0529
31871W        W47680   2.045   1.486  12.971  0.1213  0.1030  0.1461
31872W        W47681   6.359   7.201   0.004 -0.0251  0.2904 -0.0050
31873W        W47682   0.385  13.505  12.817 -0.1186 -0.2930  0.2176
31874W        W47683   4.782   3.539  12.097  0.0960  0.1545 -0.0122
31875W        W47684  18.572   1.302   2.556 -0.2924 -0.2791 -0.3591
31876W        W47685   3.801  18.297  14.919 -0.3608 -0.1611  0.0585
31877W        W47686  11.455   5.927   2.640 -0.3421  0.0352  0.3010
31878W        W47687   1.399  17.127  14.211 -0.0888  0.1513 -0.0520
31879W        W47688   6.387  10.327   4.751  0.0423  0.0659 -0.3548
31880W        W47689  12.683  13.817  15.520  0.0995  0.3773 -0.0007
31881W        W47690   3.978   1.549  12.427  0.3235 -0.1089 -0.2468
31882W        W47691   2.673  13.387   2.436  0.2692  0.1542  0.1252
31883W        W47692  14.173   2.194  12.061 -0.3110  0.1655  0.1773
31884W        W47693   0.701   2.073   2.998  0.0303 -0.0428 -0.0596
31885W        W47694   0.521   4.059  12.061  0.1002 -0.1877  0.1614
31886W        W47695  18.605  15.834   1.246 -0.0403  0.0417 -0.2647
31887W        W47696  13.327   8.887  13.655  0.1293 -0.2573 -0.0101
31888W        W47697  15.611  11.225   1.215  0.0789  0.0189  0.0103
31889W        W47698   3.934  14.349   4.530 -0.0674  0.1575  0.1985
31890W        W47699  13.448  17.065   4.798  0.0526 -0.2138  0.1885
31891W        W47700  14.715   0.758   3.004 -0.0082  0.2779  0.0605
31892W        W47701   0.826   6.683  12.301  0.3072  0.0209  0.1255
31893W        W47702  15.122   8.713   1.410 -0.2297  0.1530 -0.0298
31894W        W47703  12.239   7.261  12.051  0.3775 -0.0593  0.1313
31895W        W47704   4.014   6.738   0.864  0.2160 -0.1217  0.2660
31896W        W47705   0.715  13.619  14.504 -0.1571 -0.1349  0.2058
31897W        W47706   1.073   8.492  14.907  0.1741  0.2129 -0.0364
31898W        W47707  17.591   1.009  14.213  0.0184 -0.2288 -0.1372
31899W        W47708  13.681  17.831   1.135  0.0376 -0.0091 -0.1639
31900W        W47709   7.365   0.698   0.653  0.2634  0.1840  0.1954
31901W        W47710  15.675  14.876   0.139  0.0947 -0.0291 -0.4119
31902W        W47711  10.675   6.294  14.910 -0.0247  0.0062 -0.2141
31903W        W47712   0.112  10.213  10.444  0.2279  0.0088  0.2934
31904W        W47713   9.290  11.278   0.729  0.0534 -0.0410  0.2410
31905W        W47714   7.695   6.367  11.821  0.0924  0.3003  0.4124
31906W        W47715  15.889  15.063   1.535 -0.2590  0.2462 -0.1586
31907W        W47716  15.412  12.786   1.512 -0.1687 -0.0265 -0.1116
31908W        W47717  18.198  16.702   4.798 -0.1610 -0.1670  0.0089
31909W        W47718   9.083  12.775  13.791  0.0839  0.0182  0.0873
31910W        W47719   8.242  18.289   4.454 -0.0965  0.0543 -0.4368
31911W        W47720   0.530   1.288   3.404 -0.3732 -0.0844  0.3174
31912W        W47721  13.749  18.537  13.184  0.2073 -0.0200  0.0058
31913W        W47722   8.562  11.976   3.339 -0.1320 -0.1212 -0.0604
31914W        W47723  14.813   4.245  15.168 -0.0655  0.1292  0.2917
31915W        W47724   4.110  17.917   2.109  0.1042 -0.1491  0.1276
31916W        W47725  15.702  17.275   0.156  0.1243 -0.0696 -0.1537
31917W        W47726   9.344   1.357  13.707 -0.0057  0.1350 -0.1289
31918W        W47727   2.086   2.060  11.341  0.1470 -0.0307  0.4509
31919W        W47728   0.835   3.533  13.673 -0.1746  0.2236  0.2433
31920W        W47729   7.121   9.673   3.918  0.0558  0.1342 -0.2699
31921W        W47730   9.723   7.414  15.529  0.0304 -0.0572  0.1438
31922W        W47731  13.458  12.081   3.383  0.2129 -0.4489  0.0095
31923W        W47732  12.370  14.867  15.481  0.2244  0.0302 -0.2587
31924W        W47733  13.991  10.094   0.261 -0.0700 -0.1838 -0.0927
31925W        W47734  17.681   2.561   0.999 -0.2048  0.1463  0.2912
31926W        W47735   4.751  12.347  12.045 -0.1700  0.1333 -0.2236
31927W        W47736   9.413   8.225   4.866 -0.0127 -0.2377  0.0735
31928W        W47737   6.848   9.184   3.480 -0.2009 -0.1420 -0.1930
31929W        W47738  15.983  15.346   4.607  0.0136 -0.1287 -0.0119
31930W        W47739   0.886  11.899   1.553 -0.2125 -0.1714  0.1310
31931W        W47740   6.116   8.729   3.912  0.3149 -0.0682 -0.0124
31932W        W47741  16.991   4.959   2.969 -0.0469  0.2386  0.1101
31933W        W47742   1.075   9.750   1.128  0.0979  0.3825 -0.0230
31934W        W47743  13.788  17.061  14.787  0.1402  0.0299 -0.0535
31935W        W47744   1.741  15.642   3.814  0.1544 -0.0496 -0.1596
31936W        W47745  15.081  12.886  11.092  0.3245 -0.3656 -0.3887
31937W        W47746   7.805   4.274  11.818 -0.2978  0.0499  0.2049
31938W        W47747   7.136   0.095   3.503 -0.1815 -0.1034  0.2433
31939W        W47748  12.844   3.783  12.166  0.1380 -0.1859 -0.0238
31940W        W47749   3.901  15.485  15.381  0.1448 -0.2591  0.0224
31941W        W47750  12.014   3.225  11.045 -0.2676 -0.0728  0.0255
31942W        W47751  16.000  13.457  13.941  0.1617 -0.0494 -0.3405
31943W        W47752   7.602  18.241  11.483  0.0690 -0.0137  0.2802
31944W        W47753   3.400  11.464  11.679  0.0849 -0.0862  0.1415
31945W        W47754  12.082  17.307   4.585 -0.0818 -0.0039  0.1870
31946W        W47755  18.157   3.563   0.909  0.0360 -0.0673 -0.1258
31947W        W47756   0.014  14.642  13.545  0.1335 -0.0892  0.3785
31948W        W47757  18.279  17.600  11.234 -0.1858  0.3924 -0.0592
31949W        W47758   9.325   8.542  11.667  0.2767  0.1221  0.4874
31950W        W47759   8.935   0.439   5.389  0.1826  0.0947 -0.0049
31951W        W47760  16.649   9.050   1.215 -0.1818  0.1766  0.1309
31952W        W47761   8.142  15.309   0.787  0.0370  0.0771  0.1337
31953W        W47762   8.670   1.989  13.557 -0.1919  0.1001  0.1681
31954W        W47763  17.301  18.420   1.190 -0.2211 -0.2720  0.1971
31955W        W47764   9.940   5.074  14.900  0.1935 -0.0522  0.0764
31956W        W47765   6.245   9.057  12.139  0.4136 -0.0157 -0.0110
31957W        W47766   2.513   4.518   4.578  0.0695  0.1079  0.0478
31958W        W47767  14.224  12.720  13.886  0.3049 -0.2416 -0.2712
31959W        W47768   4.039  13.525  10.950  0.1740  0.2099  0.1613
31960W        W47769  16.261  16.825  13.467 -0.2737  0.1843 -0.2611
31961W        W47770   1.253  14.382  11.059 -0.1819 -0.0575  0.1981
31962W        W47771  18.434  13.900   2.963 -0.2791 -0.1287  0.3266
31963W        W47772   5.482   8.123  13.958 -0.2970  0.0575 -0.0006
31964W        W47773  14.607  11.634   1.691 -0.2163 -0.1540  0.0799
31965W        W47774   5.851  15.747  10.968  0.0982  0.1683  0.0666
31966W        W47775   5.846  13.517  14.258 -0.3439 -0.1676 -0.3007
31967W        W47776  14.350   2.220   2.582  0.3130  0.0240  0.0090
31968W        W47777   9.893  17.252  14.098  0.2713 -0.0248 -0.1260
31969W        W47778  17.994   6.702   1.415 -0.3181 -0.0151 -0.0614
31970W        W47779   0.267   4.286   2.389  0.0900  0.0339  0.1597
31971W        W47780   3.272  15.538   4.136 -0.1046  0.1833  0.0276
31972W        W47781   5.336  18.533  15.007 -0.0221  0.0017 -0.3641
31973W        W47782  16.558   5.355   9.583  0.2015  0.0689 -0.3605
31974W        W47783  11.843  18.623   1.319 -0.0531 -0.0005  0.1597
31975W        W47784   0.978  13.160  14.406 -0.2059 -0.0298 -0.3645
31976W        W47785   7.756  15.532  14.662  0.3837  0.3959  0.1539
31977W        W47786   5.217  10.434  10.952 -0.1861  0.3326  0.3223
31978W        W47787   1.304  10.636  10.816  0.0850 -0.0995 -0.3533
31979W        W47788   5.587  10.660  13.160 -0.0469  0.1964  0.1440
31980W        W47789   1.440   7.347   1.341 -0.2334 -0.2447 -0.1160
31981W        W47790   4.798   2.030  11.992 -0.1471  0.0267 -0.0444
31982W        W47791   1.018   6.095  10.107 -0.1735  0.1858 -0.0956
31983W        W47792  18.113   1.855   2.461  0.0899 -0.0953 -0.2972
31984W        W47793   3.309   1.307  11.274  0.2161 -0.0716  0.1258
31985W        W47794  17.857  14.297  11.017 -0.0221  0.0198  0.3045
31986W        W47795  11.600  12.436  13.080 -0.0320 -0.0156  0.2054
31987W        W47796   3.221   8.987  13.383 -0.2703  0.0983  0.1977
31988W        W47797  16.595   2.910   2.487  0.0598  0.2022 -0.1133
31989W        W47798  15.371   3.348  11.617  0.0228  0.0170 -0.0613
31990W        W47799   6.755   5.845   0.579  0.0641 -0.0414 -0.2006
31991W        W47800  11.823  16.956  12.222 -0.0867  0.2731  0.0317
31992W        W47801   6.206  10.086  14.908  0.0155 -0.0053 -0.1861
31993W        W47802   6.828   0.061  13.049  0.1598 -0.3550  0.0946
31994W        W47803  17.815   6.201   2.966 -0.0005  0.0648  0.0128
31995W        W47804  11.105  11.754   0.667  0.1202 -0.0109  0.0938
31996W        W47805   6.537   4.436   3.633  0.0106  0.4447  0.0477
31997W        W47806   5.848   4.239  11.343 -0.1689  0.3391  0.1242
31998W        W47807   6.438  17.339   3.513  0.0083  0.1972  0.0061
31999W        W47808  12.258   0.816  12.673  0.2164 -0.2741 -0.0016
32000W        W47809   4.583  13.688  10.766 -0.0293 -0.1516  0.2207
32001W        W47810   5.158   6.587  13.642  0.0006 -0.3500 -0.1082
32002W        W47811   0.298  11.492   5.530 -0.0969 -0.1981 -0.2232
32003W        W47812   5.172  18.108   1.953  0.0845 -0.2845 -0.2374
32004W        W47813  14.483   6.869  14.827  0.0298  0.1126  0.2889
32005W        W47814   9.886   8.466  15.409  0.0315 -0.2064 -0.0249
32006W        W47815  13.934   4.365  13.443  0.2157  0.1574 -0.0704
32007W        W47816  10.763  13.749   5.088  0.1849  0.0172  0.2805
32008W        W47817  11.244   2.241  14.296 -0.2751  0.3118 -0.1207
32009W        W47818   6.128  14.041  11.803 -0.0073 -0.0579  0.1021
32010W        W47819  17.012   3.713   0.440 -0.0833 -0.2009  0.1846
32011W        W47820  11.607   3.370   4.846  0.0304 -0.3664 -0.1028
32012W        W47821  10.637   0.196   2.341  0.0491  0.0215 -0.3806
32013W        W47822  12.658   7.356   1.530 -0.0271  0.0720  0.1684
32014W        W47823   3.864   7.048  13.704 -0.0369  0.2279 -0.0732
32015W        W47824  13.777   1.421  12.664  0.0928 -0.3292  0.2061
32016W        W47825   2.581   5.138   5.120  0.1521 -0.1381 -0.1343
32017W        W47826   4.098  11.128   2.517  0.0726  0.5453  0.0860
32018W        W47827   7.193  15.563  14.736  0.5355  0.0878  0.0922
32019W        W47828   6.089   3.174   0.579  0.1436 -0.1998  0.1122
32020W        W47829  14.300   7.832   9.808  0.1145 -0.1401  0.0333
32021W        W47830   4.189  13.160  14.146  0.0282  0.4944  0.2958
32022W        W47831  12.161   7.847  14.750  0.0807  0.4560 -0.2572
32023W        W47832  11.684   3.787  13.777  0.1303 -0.1051  0.0458
32024W        W47833   8.250  15.654  14.410 -0.1841  0.2759 -0.0097
32025W        W47834   5.120   1.639  15.571 -0.1641  0.1449 -0.0465
32026W        W47835   4.492  17.420   4.606  0.3325  0.2649  0.1342
32027W        W47836   6.919   2.857  14.148  0.2120 -0.3287  0.3013
32028W        W47837   9.934   3.816   4.767 -0.2058 -0.3801  0.0316
32029W        W47838  13.917   9.861  10.664 -0.1028  0.0901  0.2989
32030W        W47839  15.513  11.083   5.379  0.1197  0.3187  0.0122
32031W        W47840   8.943   0.695   2.363 -0.0952  0.0710  0.1802
32032W        W47841   6.675  14.802   0.380  0.1749 -0.0428 -0.1666
32033W        W47842  14.162   8.032   3.073  0.0975  0.1340  0.0827
32034W        W47843  14.772   1.874   0.163 -0.2541  0.0043  0.0525
32035W        W47844  12.852   9.778   2.823  0.0115  0.0472  0.2677
32036W        W47845  17.250   3.594   2.906  0.2220 -0.1447  0.0379
32037W        W47846  15.701  12.791   4.713 -0.1190 -0.0251 -0.1454
32038W        W47847   9.908   1.959  13.120  0.0214 -0.0482 -0.1604
32039W        W47848  12.336  12.772   5.823  0.3003 -0.1232  0.1869
32040W        W47849   5.153   7.404   2.971  0.4361  0.1229 -0.3930
32041W        W47850  14.757   7.072  13.941  0.1358 -0.1773 -0.0499
32042W        W47851   1.279   8.074   0.031  0.2688 -0.1079 -0.1145
32043W        W47852   9.609  16.771   0.908 -0.0436  0.2149 -0.1950
32044W        W47853   3.121  11.937   1.025  0.0242 -0.1320  0.0458
32045W        W47854  10.829  12.822  13.236  0.1851  0.0377 -0.0252
32046W        W47855   2.064   0.828  10.381  0.1170 -0.0201 -0.1930
32047W        W47856  12.389  15.784  14.403 -0.2337 -0.1593  0.0388
32048W        W47857   7.283   6.917  10.650 -0.1693  0.2566 -0.1370
32049W        W47858   0.846   2.102   5.165  0.0460  0.0989  0.1436
32050W        W47859  17.754  18.301   2.320 -0.0592 -0.2831 -0.2979
32051W        W47860   1.321  16.535   3.940  0.1062  0.1099  0.0639
32052W        W47861   4.093   3.211   0.579  0.0460  0.2077 -0.1965
32053W        W47862  12.899   3.400   4.960  0.0836 -0.2107 -0.1318
32054W        W47863  16.901   8.533  13.682 -0.0813 -0.0495  0.1966
32055W        W47864  10.765   4.461  12.792 -0.1526  0.2441  0.3204
32056W        W47865   4.771  10.801  11.558  0.1202  0.3954  0.0957
32057W        W47866   6.719   7.664  13.179 -0.1626  0.1391 -0.0621
32058W        W47867   7.526  17.574  11.751  0.2494  0.0837  0.1537
32059W        W47868  10.911   5.857  13.655 -0.0188  0.0489 -0.0204
32060W        W47869   0.746  17.017   4.757  0.4001 -0.0685  0.0583
32061W        W47870  10.083   1.874   4.254  0.1747 -0.0662 -0.4522
32062W        W47871  14.256   7.305  12.695  0.0754  0.2070  0.3057
32063W        W47872  17.502   1.228  14.718 -0.0680  0.1220  0.1288
32064W        W47873  16.281  12.747   5.641 -0.1937  0.1966  0.0803
32065W        W47874  16.557  13.630  12.151 -0.0320  0.3199 -0.0231
32066W        W47875  10.990  14.936  13.190  0.0045 -0.2601  0.0567
32067W        W47876   6.693   4.197   3.040  0.1768  0.1558  0.1735
32068W        W47877  18.403   1.510   0.194  0.0515 -0.0262  0.1603
32069W        W47878   6.744   0.088   6.327  0.0825 -0.1260  0.1361
32070W        W47879  16.250   9.763   0.727 -0.0941 -0.1240  0.1511
32071W        W47880   2.633  17.012  15.481  0.0043 -0.0863  0.3097
32072W        W47881   3.697   9.290  14.125  0.1485  0.0062 -0.3648
32073W        W47882   7.203  10.884  11.276  0.1397  0.2115  0.0092
32074W        W47883   8.738   0.667   1.373 -0.0741 -0.3614  0.1117
32075W        W47884   1.327   2.520   1.266  0.0030 -0.1347  0.0047
32076W        W47885   4.588  14.298  14.725 -0.0427 -0.0352 -0.0415
32077W        W47886   6.485   2.717   2.453  0.4077  0.0464 -0.3153
32078W        W47887  11.399   9.611  13.199 -0.1699 -0.2170 -0.2620
32079W        W47888   5.934  15.909   5.875  0.0344 -0.4608  0.0278
32080W        W47889   1.477   6.281   3.573 -0.0111 -0.1178  0.2881
32081W        W47890   4.717  17.044  14.902 -0.0664 -0.0414 -0.0561
32082W        W47891   4.116  11.523   2.861  0.0127  0.1381  0.1646
32083W        W47892  14.258   1.656  13.219 -0.0501  0.1176 -0.1758
32084W        W47893  11.473   5.998  10.668 -0.3358 -0.1050  0.0491
32085W        W47894  16.026  17.186  12.417 -0.0475  0.1979  0.0731
32086W        W47895   8.623   4.374   2.164 -0.0549 -0.0892  0.0030
32087W        W47896  17.715   8.069  10.753  0.0458 -0.1417 -0.3827
32088W        W47897   5.767  13.645   3.555 -0.2004 -0.3575  0.0590
32089W        W47898   6.393  15.293   2.946 -0.1555 -0.1473 -0.0582
32090W        W47899  13.956  14.045   4.218 -0.2910  0.3227  0.3369
32091W        W47900   3.123   8.464   2.161  0.0017  0.3393 -0.1151
32092W        W47901   9.508  14.861  14.876  0.1441 -0.0173 -0.0119
32093W        W47902  12.518  11.107   1.145  0.1034 -0.2082  0.1400
32094W        W47903   8.601   1.723   5.074 -0.1455 -0.0830  0.0002
32095W        W47904   9.656  18.113  15.613  0.1523  0.1769  0.0958
32096W        W47905  18.027   2.594   3.078 -0.2445 -0.1454 -0.1703
32097W        W47906   4.346   5.500   0.457  0.0284  0.0256 -0.0084
32098W        W47907  11.218   8.653  14.081  0.0742 -0.0800 -0.0138
32099W        W47908   9.197   0.634   4.053  0.0881  0.1432 -0.0870
32100W        W47909   0.003  12.116  13.963  0.1399 -0.2957 -0.0371
32101W        W47910   5.213   4.190   4.713  0.0325 -0.0702  0.2516
32102W        W47911  14.861  15.843  13.911  0.2433 -0.0573  0.0986
32103W        W47912  12.497   9.464   3.084  0.1383 -0.0419 -0.0950
32104W        W47913  12.542   0.811  14.618 -0.1639  0.0559 -0.0945
32105W        W47914   8.693  12.352   0.540  0.3867  0.1943  0.1718
32106W        W47915   4.579   8.091  14.897  0.1142 -0.0695 -0.2576
32107W        W47916   5.751   2.500  13.489  0.1868  0.1292 -0.0213
32108W        W47917  10.638   9.162   3.270 -0.1041  0.2854  0.0987
32109W        W47918  17.200   3.595   3.794  0.0534 -0.2412 -0.1472
32110W        W47919   7.122   9.836  13.660 -0.0947  0.2422  0.2155
32111W        W47920   6.391  13.771   5.295  0.0904 -0.1081  0.0324
32112W        W47921   7.043  17.114   3.808  0.2709  0.0997 -0.3455
32113W        W47922  11.916   6.786   1.735 -0.1971 -0.0534  0.3430
32114W        W47923  16.036  15.239   1.083 -0.0937  0.1430  0.2750
32115W        W47924   4.858  16.595  13.023 -0.2955  0.0520  0.0664
32116W        W47925   9.102   9.446  10.859  0.1851 -0.1675 -0.0496
32117W        W47926  17.028  14.464  14.158 -0.0239 -0.1745  0.0340
32118W        W47927  13.526   3.599  14.430  0.0669  0.0524 -0.0122
32119W        W47928   8.873  15.291   3.049  0.0576 -0.2889 -0.1666
32120W        W47929   3.069   5.229  10.666 -0.0911 -0.0342  0.4561
32121W        W47930  12.046   2.726   0.971  0.0649  0.0317  0.0900
32122W        W47931  16.840  11.699  12.252  0.0364  0.1944  0.0284
32123W        W47932   8.294  14.899  11.375 -0.0472  0.1891 -0.1140
32124W        W47933   9.474  16.465  15.609  0.3262  0.2450  0.0750
32125W        W47934   8.938  16.204  11.886 -0.0157 -0.0130 -0.0593
32126W        W47935  12.523  17.056   3.228 -0.1555 -0.0959 -0.0141
32127W        W47936   4.392   8.671   2.110 -0.0161  0.0161 -0.0546
32128W        W47937   2.045  11.261  13.472  0.2003 -0.2736  0.3270
32129W        W47938   9.878   2.482  15.268 -0.1481  0.1190 -0.1013
32130W        W47939  15.173  13.669   4.691  0.1517  0.0799 -0.1510
32131W        W47940   3.412  18.433  10.882  0.0143  0.0234 -0.1995
32132W        W47941  13.690   4.811   4.969 -0.0839 -0.0579  0.0041
32133W        W47942   4.569  12.622  14.075  0.0632  0.3015  0.0139
32134W        W47943  12.331  14.113   0.409  0.1002 -0.2204 -0.2462
32135W        W47944  17.864   9.540   3.231  0.1512 -0.3590  0.1824
32136W        W47945   5.046   5.441  11.440  0.0812 -0.2437 -0.0086
32137W        W47946  14.337  13.467  15.307  0.2413 -0.0726  0.0840
32138W        W47947   0.918   8.507  11.680 -0.1990 -0.2513  0.0324
32139W        W47948   9.266  17.988  13.742  0.1021  0.2580 -0.1422
32140W        W47949  15.643  17.460   3.613  0.0905  0.0118  0.0248
32141W        W47950   3.865   5.492  12.917 -0.2881 -0.0384  0.0900
32142W        W47951   8.199  18.511  10.932 -0.3861 -0.2937  0.0437
32143W        W47952   3.952   1.992  11.412  0.1947 -0.4288 -0.0661
32144W        W47953  17.288  17.967   2.654 -0.0226  0.0377  0.4142
32145W        W47954   5.546   0.799   1.977 -0.1197  0.0138  0.3938
32146W        W47955   5.631  14.935   3.851  0.4607  0.1587 -0.3194
32147W        W47956   1.697   4.407  12.642 -0.1341 -0.1503 -0.0823
32148W        W47957   0.708  12.235   4.244  0.0544  0.3248  0.0311
32149W        W47958   6.356   9.846   3.391  0.0216 -0.1280 -0.2431
32150W        W47959   2.354  17.101   3.942  0.1392 -0.1285 -0.0482
32151W        W47960   7.698   6.536  14.718  0.2238 -0.0090 -0.0709
32152W        W47961  18.467   8.695  13.761 -0.2877  0.0649  0.2542
32153W        W47962  17.333  11.986  15.258 -0.2481  0.2974 -0.0802
32154W        W47963  11.732  13.766   6.150 -0.0958 -0.1973  0.2441
32155W        W47964  11.905  18.325  13.567 -0.2030 -0.0956 -0.0950
32156W        W47965   5.852  14.728   3.058  0.0868 -0.3548  0.3461
32157W        W47966  15.815   3.364   2.234  0.1670  0.0983  0.0755
32158W        W47967  12.511  10.235   0.075  0.2040  0.0210  0.0729
32159W        W47968   8.890  11.788   5.588  0.3088  0.2061  0.0683
32160W        W47969  17.137   2.106   3.350  0.0800 -0.3055 -0.1013
32161W        W47970   8.665   8.193   2.404  0.1268  0.3705 -0.3012
32162W        W47971   1.050  11.569  13.278 -0.2505 -0.0674  0.0468
32163W        W47972   6.227  18.500  15.349 -0.0975  0.1329 -0.1267
32164W        W47973  12.987  18.373   6.117  0.1265 -0.0897 -0.0997
32165W        W47974   0.965  18.020  15.116  0.0267  0.2961  0.0660
32166W        W47975  11.772   1.956  10.300  0.1897 -0.0602  0.1711
32167W        W47976   6.108   6.373   2.450  0.1642 -0.0828 -0.1043
32168W        W47977   6.730   7.393   9.682  0.0137  0.0620  0.0265
32169W        W47978   0.465   3.575   9.419  0.1312  0.1298  0.5074
32170W        W47979   7.132   6.160   0.462 -0.0302 -0.1826  0.1996
32171W        W47980  12.097  14.376  15.542  0.3075  0.3082 -0.0118
32172W        W47981   9.681   4.462   0.420  0.0025 -0.1316 -0.0685
32173W        W47982  12.958   0.460  11.010  0.1836  0.1385  0.1021
32174W        W47983  16.123  10.398  11.315 -0.0801 -0.2370  0.2107
32175W        W47984  18.518  12.329   2.367  0.0389 -0.2276  0.1927
32176W        W47985  12.711   3.198   2.847  0.0754  0.1398 -0.1194
32177W        W47986   8.130  14.397  11.542 -0.1146  0.0375 -0.0222
32178W        W47987   4.754   8.943   5.926 -0.3091  0.3458  0.1220
32179W        W47988  11.092   6.660  10.044 -0.0309  0.4291 -0.2679
32180W        W47989  15.201   4.492   4.555 -0.2295 -0.0356  0.0636
32181W        W47990   1.690  14.592  12.562  0.2273 -0.0507  0.0477
32182W        W47991   0.714  14.334  13.004 -0.1429  0.1501  0.1156
32183W        W47992   1.786  14.657   2.470 -0.1085  0.1816 -0.2135
32184W        W47993   6.354   9.792   4.018 -0.0807 -0.1809 -0.2277
32185W        W47994   3.793  11.603   3.245 -0.1910  0.1633  0.0165
32186W        W47995  11.041  17.618   3.909 -0.0743 -0.0844 -0.3653
32187W        W47996   3.906   1.350   0.402  0.2544 -0.3930 -0.0338
32188W        W47997  10.958  16.364   3.074  0.1342 -0.1751 -0.1347
32189W        W47998   0.311   7.990  15.055 -0.1176 -0.1797  0.1034
32190W        W47999  10.821  14.022   1.001 -0.0473 -0.1236  0.3996
32191W        W48000  17.326  16.480   1.283  0.0964 -0.2851 -0.2448
32192W        W48001  14.572   7.531  14.002  0.0462 -0.1548 -0.0037
32193W        W48002  13.748  15.792  11.718  0.1259  0.0139 -0.1925
32194W        W48003   5.351   4.755   2.595  0.0328 -0.0376  0.1880
32195W        W48004   3.820   7.300  10.310  0.1701 -0.0321  0.0940
32196W        W48005  17.031  10.225  11.927 -0.1696  0.3291  0.3429
32197W        W48006   8.917  16.532   5.504 -0.2279 -0.2730 -0.0329
32198W        W48007   0.449   0.720  12.341 -0.4535 -0.0654 -0.1488
32199W        W48008  13.179   4.289   1.935 -0.1626 -0.2029 -0.0367
32200W        W48009  11.134  18.489   0.569  0.0258 -0.1850 -0.0192
32201W        W48010  16.639  15.363  12.041 -0.2090  0.0146 -0.0433
32202W        W48011   7.445  12.258  11.838 -0.0698  0.0739  0.0441
32203W        W48012   7.694  12.003  15.416 -0.2096  0.0938 -0.0881
32204W        W48013   8.016  17.509  13.048 -0.0903 -0.0642  0.3089
32205W        W48014   8.265  15.590   4.095  0.0204  0.2011  0.0731
32206W        W48015   6.139  17.819   1.987 -0.0377 -0.1385 -0.1093
32207W        W48016  17.970   0.534   0.426  0.0579  0.1407 -0.3209
32208W        W48017   6.375  10.866   0.725 -0.2426 -0.1292 -0.0892
32209W        W48018  11.504  11.809   5.978  0.0379 -0.1056 -0.1514
32210W        W48019   5.984  10.535  14.631 -0.3118 -0.1070  0.0209
32211W        W48020  10.247  14.558   0.990 -0.0198 -0.1166  0.0518
32212W        W48021  17.425  17.100   0.711 -0.0751 -0.1609 -0.0781
32213W        W48022   4.689  11.666   2.065 -0.1383  0.0579  0.1911
32214W        W48023  15.546  12.375  13.433  0.1797  0.0616  0.1343
32215W        W48024   7.501  11.804  14.071 -0.1495 -0.0234 -0.0843
32216W        W48025   0.498  14.386   3.192 -0.0684 -0.1265 -0.0746
32217W        W48026  16.223   5.605   2.073 -0.0045  0.1278 -0.2971
32218W        W48027   7.386   7.310   0.003  0.1483  0.2759  0.0339
32219W        W48028  18.599  13.494  12.677  0.1243  0.2199 -0.0769
32220W        W48029  18.123   5.299  13.585  0.2055  0.1054  0.1296
32221W        W48030  15.152   6.972   4.330 -0.0040 -0.1632  0.0821
32222W        W48031   0.522   5.275  15.430  0.3407  0.2185  0.1994
32223W        W48032  12.721  13.144   2.424  0.1854  0.0257 -0.0175
32224W        W48033   8.783   5.679   0.466 -0.0153  0.0444 -0.0367
32225W        W48034   2.598  13.637  10.883 -0.4551 -0.1897  0.1628
32226W        W48035  14.498  12.949  13.537  0.1201  0.0018  0.2542
32227W        W48036   0.765  15.924   3.592 -0.0832 -0.2233  0.1669
32228W        W48037   1.125   1.935  11.498  0.2088 -0.1884  0.1981
32229W        W48038  14.376   5.405  11.749  0.0814 -0.1909  0.1677
32230W        W48039   4.318   9.323   3.655  0.0220 -0.0935 -0.1528
32231W        W48040   7.789   6.815   3.760  0.0556  0.1685  0.0408
32232W        W48041   5.417  13.198  14.976  0.1060 -0.0965  0.0031
32233W        W48042  13.412  12.642   4.137 -0.2999  0.0480 -0.2950
32234W        W48043  14.311  17.657  14.217  0.0792 -0.0742  0.1427
32235W        W48044   1.187   7.963   3.096  0.1659 -0.1913 -0.0284
32236W        W48045   8.097   3.889   4.888 -0.2600 -0.2671  0.0282
32237W        W48046   6.527  18.035   0.060 -0.0569 -0.2441 -0.1263
32238W        W48047  17.788  13.970  13.964  0.0984  0.2441 -0.4938
32239W        W48048   3.922   2.865  15.252 -0.0970 -0.4255  0.0680
32240W        W48049  15.284  14.113   1.072 -0.0283 -0.2266  0.1279
32241W        W48050   4.523  11.888  11.261 -0.5251 -0.1984 -0.4032
32242W        W48051   1.148   1.698  12.709 -0.0453  0.0003  0.0618
32243W        W48052   2.971   9.196  12.999 -0.2266  0.1847 -0.1661
32244W        W48053   7.355  17.104  11.840 -0.2146  0.0254  0.0939
32245W        W48054   7.702  16.827  12.166  0.2217  0.1675  0.1507
32246W        W48055   5.916   8.877  12.423 -0.1849  0.1791  0.2285
32247W        W48056   3.018  14.009  12.089 -0.3361 -0.0876  0.1332
32248W        W48057   3.871  18.653  11.898 -0.0140  0.2414 -0.1507
32249W        W48058  15.874   9.690  10.141 -0.5275 -0.0970 -0.3725
32250W        W48059   1.689  10.231   0.391 -0.2156 -0.1959 -0.1845
32251W        W48060   5.327   1.073   2.343 -0.2469  0.1225  0.1479
32252W        W48061   5.402   2.185  14.607 -0.3184 -0.0254 -0.0502
32253W        W48062   4.347   1.879  12.241 -0.0235  0.2487  0.1345
32254W        W48063  11.917   2.773  14.737  0.2094 -0.0656 -0.1223
32255W        W48064   7.647   4.065  13.732 -0.2318  0.0737 -0.0490
32256W        W48065  11.966   8.722  11.631  0.1021 -0.0732 -0.0183
32257W        W48066  12.347  18.544   3.306 -0.0669  0.3377 -0.0256
32258W        W48067   7.858  10.537  11.101  0.0683 -0.3769  0.0358
32259W        W48068   3.890  16.937   0.452 -0.0110 -0.0807  0.1051
32260W        W48069  12.898  16.093   4.054  0.1914  0.3568  0.2197
32261W        W48070  14.603   3.482   1.143 -0.1382  0.4676  0.3633
32262W        W48071   5.422  13.228   4.665 -0.1822 -0.3258  0.0011
32263W        W48072   8.296   0.569   2.996 -0.1027 -0.2183  0.0122
32264W        W48073   8.441   0.285  15.021 -0.0365 -0.1925  0.0607
32265W        W48074   4.287  13.967  10.362  0.0354  0.0640 -0.1655
32266W        W48075   1.354  11.629   0.369 -0.2782 -0.0160 -0.0305
32267W        W48076   1.716  15.528   2.712 -0.0704  0.3201 -0.1336
32268W        W48077   1.735  14.179   4.824 -0.1366  0.1935 -0.1247
32269W        W48078  17.068   4.787  15.510  0.3295 -0.2884  0.1485
32270W        W48079   3.768   4.050  14.625 -0.0195 -0.1233 -0.1904
32271W        W48080   0.222   7.681   2.982 -0.0147  0.0268  0.1042
32272W        W48081  12.355  16.074  13.176 -0.1634  0.0319 -0.2729
32273W        W48082   3.280  13.119  11.835 -0.1581 -0.1781  0.2605
32274W        W48083  12.899  15.212  10.410 -0.0645 -0.1298 -0.0267
32275W        W48084  10.450   1.087   4.770  0.0827 -0.1816  0.2079
32276W        W48085   5.775   0.668  12.696  0.0788 -0.1734  0.2876
32277W        W48086   4.230   0.399  11.792 -0.1145 -0.1393  0.2609
32278W        W48087   3.911  17.819   1.152  0.1111  0.0539  0.0223
32279W        W48088   4.389   2.440  15.087  0.2619 -0.2297  0.0373
32280W        W48089   1.790  10.597   3.724  0.2794  0.1383  0.2996
32281W        W48090   2.484  15.390  13.138  0.0473  0.4469  0.0751
32282W        W48091  13.873   2.488  11.220 -0.2501  0.1359 -0.1569
32283W        W48092  10.109   7.540  12.008  0.0080 -0.1798 -0.1449
32284W        W48093   4.233  14.366   5.200  0.2243 -0.0702  0.1519
32285W        W48094   6.577   8.460  12.774  0.2694 -0.2901  0.0243
32286W        W48095  12.672   7.232  11.733  0.0684  0.0398 -0.0498
32287W        W48096  11.244  13.012  11.094  0.0189 -0.0994 -0.4788
32288W        W48097   6.832   8.325   5.934 -0.0434 -0.0996 -0.2259
32289W        W48098  18.467   7.876  15.488  0.0679 -0.1160  0.0582
32290W        W48099   6.811  17.222   2.868  0.1820 -0.0071 -0.1037
32291W        W48100   4.969  11.545   4.267 -0.3815  0.1531 -0.1125
32292W        W48101  14.090  17.982   2.567 -0.3811 -0.0631  0.0822
32293W        W48102  17.600   1.696   0.479  0.0096  0.1914  0.0729
32294W        W48103  15.899   9.275   1.755  0.2480  0.0553 -0.1260
32295W        W48104   3.154  11.055  14.631  0.0748  0.2368 -0.1120
32296W        W48105   7.243  12.513  10.700 -0.2882 -0.2354 -0.2303
32297W        W48106   5.317  16.352   1.334 -0.3167  0.0651 -0.1587
32298W        W48107   0.919  13.611  13.494  0.2314  0.1254  0.0902
32299W        W48108  17.385   0.756  12.264  0.5808  0.2280  0.0189
32300W        W48109  14.160   3.805   1.056 -0.2806  0.0013  0.0514
32301W        W48110  18.145  16.757   0.317 -0.4098 -0.0119 -0.0013
32302W        W48111   1.682   9.273   0.542  0.2784  0.0681 -0.2354
32303W        W48112   1.694   8.845   0.986 -0.2847  0.0287 -0.0566
32304W        W48113   2.532  15.810   2.745  0.0287 -0.0530 -0.0560
32305W        W48114   8.182  11.836   1.004  0.1200  0.2509  0.0428
32306W        W48115   4.641  15.019  11.120 -0.1081  0.0997  0.1468
32307W        W48116   4.355  15.831   4.901 -0.1697 -0.1506  0.0783
32308W        W48117   6.081   8.502   0.566  0.1579  0.3826 -0.3383
32309W        W48118   3.479  16.050   5.479 -0.0794 -0.0575  0.0961
32310W        W48119  16.389   2.710   0.161  0.2495 -0.2881  0.0415
32311W        W48120   5.322   3.963   1.450  0.2519  0.0808  0.2139
32312W        W48121   3.718   4.957  13.098  0.1833  0.4129  0.1540
32313W        W48122  13.603   4.501   2.320  0.1675 -0.1029 -0.0704
32314W        W48123  13.599   2.593  11.789 -0.2334  0.0316  0.0704
32315W        W48124   3.682  12.180   4.693 -0.0844  0.1641 -0.0617
32316W        W48125   3.238   0.517  10.879  0.1301  0.1492 -0.1717
32317W        W48126  16.364  18.163   4.017  0.1472  0.0033 -0.2919
32318W        W48127   8.135   5.287   2.887 -0.2129  0.1138 -0.0416
32319W        W48128   1.429   7.579   0.866  0.1259 -0.1019  0.1706
32320W        W48129  13.421   5.003   1.258  0.2804 -0.0604 -0.3492
32321W        W48130   0.740   8.014  10.474  0.1431  0.2117 -0.2518
32322W        W48131  11.692   3.175  15.586 -0.1365 -0.1277  0.1552
32323W        W48132   9.069  18.556  14.464 -0.0940  0.1951  0.0447
32324W        W48133  10.310   8.355  13.066 -0.2982  0.0505 -0.1215
32325W        W48134  10.647   5.410   2.962 -0.2772  0.2332 -0.1189
32326W        W48135  17.205   7.906  14.186 -0.2173  0.0227 -0.3964
32327W        W48136   9.758  14.277   1.062  0.1500  0.2766 -0.0161
32328W        W48137   4.637  13.478   1.891  0.1453 -0.1873 -0.1461
32329W        W48138  18.228   7.621  10.785  0.2573  0.3055 -0.2003
32330W        W48139  14.918   2.025   3.348  0.3388 -0.0792 -0.0525
32331W        W48140  16.630   8.121   4.626 -0.1631 -0.0065 -0.1260
32332W        W48141  10.153   7.987  13.806 -0.0961  0.1471 -0.1482
32333W        W48142   1.471   5.598  10.886 -0.0085  0.1826  0.0946
32334W        W48143  14.532   3.852   3.092 -0.4652  0.0502 -0.2668
32335W        W48144  16.083   9.936  13.245  0.0111  0.0053 -0.2930
32336W        W48145  16.827   1.774  14.910  0.0494 -0.0441  0.0948
32337W        W48146  11.195   4.926  12.788  0.0652 -0.1645 -0.2756
32338W        W48147   6.006   1.009   4.680  0.0840  0.2396  0.0146
32339W        W48148   4.030  11.685   2.331  0.2942 -0.0690  0.2586
32340W        W48149  10.045   8.039  12.755 -0.0988  0.2486 -0.2174
32341W        W48150   7.282   5.715   5.615  0.0891  0.0550 -0.1171
32342W        W48151   6.924  15.156  12.590 -0.0651 -0.0238  0.6335
32343W        W48152  17.021  10.303   3.443 -0.1650 -0.0826  0.0419
32344W        W48153   3.956  17.017  10.529  0.1524 -0.0881  0.1129
32345W        W48154  15.334  12.301   1.138 -0.1663 -0.2094  0.1001
32346W        W48155  16.380  16.696  11.397 -0.2166 -0.0717 -0.1438
32347W        W48156  14.072   6.855  15.130  0.1994  0.1709 -0.0549
32348W        W48157   7.199   7.056   2.424 -0.3782 -0.1828  0.1287
32349W        W48158  14.884  15.354   4.048 -0.1314  0.0350  0.0734
32350W        W48159   0.576   2.960   0.691 -0.2727  0.0982  0.2003
32351W        W48160  14.556  15.682  12.268  0.0612  0.2930  0.2761
32352W        W48161   6.689  14.046   1.182  0.0983  0.0969 -0.1461
32353W        W48162  10.389  14.739  12.486 -0.0827 -0.0616 -0.1712
32354W        W48163  10.786  14.184   6.024 -0.0250 -0.0378  0.0994
32355W        W48164   9.425   0.720   5.241  0.2433  0.0113  0.0873
32356W        W48165  14.766   8.410   4.274 -0.0713 -0.1159  0.1020
32357W        W48166   7.819   7.852  15.188  0.1513 -0.0367 -0.1137
32358W        W48167  13.087  18.100  15.051  0.0978  0.2376  0.2121
32359W        W48168  14.132   6.034  11.898 -0.1877  0.3148  0.0838
32360W        W48169  10.843  14.296  13.959 -0.1618 -0.1935  0.0281
32361W        W48170   0.721   9.550   3.665  0.2160 -0.2174  0.0335
32362W        W48171   9.557  18.205   4.660  0.2049 -0.1846  0.1695
32363W        W48172   6.844  10.735  14.812  0.1155  0.1404 -0.2002
32364W        W48173   1.918   6.643  14.675  0.0196 -0.0858 -0.2526
32365W        W48174  17.849   4.287  14.616  0.3324 -0.1353 -0.1079
32366W        W48175  14.914   9.689   0.265  0.0772  0.3755  0.2171
32367W        W48176  15.085  18.574   0.924  0.0547  0.0520  0.1714
32368W        W48177   1.705  13.559  15.187  0.0864 -0.0469 -0.1387
32369W        W48178  12.766  17.225   3.740  0.3721  0.2000  0.0221
32370W        W48179   4.586   9.356  14.419 -0.1316 -0.4529 -0.2325
32371W        W48180   6.520   5.208   5.233 -0.0458  0.2230 -0.0560
32372W        W48181   5.129   7.851  11.666  0.0355  0.1165  0.2762
32373W        W48182   3.075   2.760   3.733  0.1067 -0.0039  0.0791
32374W        W48183  17.797  14.749  13.035  0.0705 -0.0815 -0.2715
32375W        W48184   2.165  15.084  11.931  0.1657 -0.0189  0.2560
32376W        W48185   0.366   9.879   1.154 -0.0905 -0.2772 -0.2377
32377W        W48186  17.098   9.825   0.047 -0.2173 -0.1503  0.2945
32378W        W48187   9.948   5.032  11.372 -0.2640  0.0682  0.0143
32379W        W48188  11.429  16.808   0.226  0.0611  0.1205  0.1053
32380W        W48189  15.835   6.892  12.619 -0.0392 -0.2133 -0.0106
32381W        W48190  16.840  12.247   4.949 -0.0500  0.1570 -0.0534
32382W        W48191  13.378  11.716  14.062  0.0637  0.0824 -0.0224
32383W        W48192   9.493  14.983   2.401 -0.0461 -0.0265  0.0455
32384W        W48193   8.645  10.590  11.912  0.1699  0.0619  0.2645
32385W        W48194  17.898  12.802  11.570  0.0024  0.0311  0.1408
32386W        W48195   6.539  16.948  11.288  0.0000 -0.3292  0.1877
32387W        W48196   7.544  11.680  12.644  0.0501  0.2381 -0.3675
32388W        W48197   8.670  11.785   2.355  0.2206  0.3132 -0.1002
32389W        W48198  12.121   5.248   5.749 -0.0922 -0.0767  0.1384
32390W        W48199  18.226   4.192  12.165  0.0951  0.0824 -0.1901
32391W        W48200   9.780  11.799   1.905 -0.0579 -0.0986  0.2830
32392W        W48201  16.296  12.372  13.886 -0.4809 -0.0228  0.3818
32393W        W48202   5.966   3.346   2.483  0.2599  0.2413 -0.1458
32394W        W48203  14.537  14.487  11.636  0.1037 -0.1795  0.1883
32395W        W48204   8.349   5.424   1.670 -0.1513  0.1108 -0.0768
32396W        W48205   1.004  10.811  12.815 -0.0785  0.0273 -0.1333
32397W        W48206   1.388   2.128   5.100  0.2232 -0.3922  0.1198
32398W        W48207   0.284  13.619   3.717 -0.1515  0.2392  0.2170
32399W        W48208   0.715  16.904   3.488 -0.0909 -0.2089  0.3246
32400W        W48209  15.142   1.087  13.183 -0.1592 -0.1716  0.1001
32401W        W48210  12.391   5.799   5.315  0.0396  0.0676  0.0694
32402W        W48211   3.151   5.757  15.247  0.0504  0.2527  0.2785
32403W        W48212  18.533   0.589  12.694 -0.1378 -0.3577 -0.0764
32404W        W48213  12.166   7.075  12.510 -0.1758 -0.1770 -0.1345
32405W        W48214  11.870  15.856  12.286  0.3340  0.1082 -0.0959
32406W        W48215  15.771  18.506  11.816 -0.0297 -0.2354 -0.0051
32407W        W48216  11.122   3.888   3.027  0.0468 -0.2873  0.2437
32408W        W48217  17.935   8.856  15.105 -0.2450 -0.2974  0.4560
32409W        W48218  12.148   6.323   0.862 -0.1286  0.2868 -0.0995
32410W        W48219   3.617  18.669   0.150  0.3149  0.1979  0.1837
32411W        W48220  11.201   1.688  15.528 -0.0924  0.0494  0.0794
32412W        W48221  18.008  15.093   0.862  0.0976 -0.1838  0.0193
32413W        W48222  11.726  10.029  12.870  0.0500 -0.0480 -0.0190
32414W        W48223   8.853   1.965  12.375 -0.3973  0.1325  0.1879
32415W        W48224   8.775   8.161   2.927 -0.0286  0.0872  0.0398
32416W        W48225   9.084   5.118  11.489  0.1551 -0.1791  0.0447
32417W        W48226  15.252  12.607   4.883  0.0820 -0.1051 -0.1033
32418W        W48227  10.826  14.231   0.115  0.0378 -0.2957 -0.3023
32419W        W48228  13.824   8.240  12.277 -0.0920  0.0499  0.2384
32420W        W48229  12.768   5.164   4.140 -0.1844  0.0479  0.0409
32421W        W48230   0.727  13.539   0.677 -0.1277 -0.0628 -0.0482
32422W        W48231   3.328   3.792  14.865  0.1201 -0.0848 -0.1112
32423W        W48232  11.796   4.260   4.195 -0.1940  0.2992 -0.2762
32424W        W48233  15.622   0.650   4.576 -0.0288  0.2228  0.1962
32425W        W48234   7.275   7.696   3.949 -0.5241  0.1928  0.1080
32426W        W48235   7.725   5.822  13.587 -0.0079  0.3442 -0.0101
32427W        W48236  15.775   1.278   4.885  0.1025  0.1809  0.1172
32428W        W48237  13.745  11.381   4.074  0.2490  0.2196 -0.2488
32429W        W48238   0.719  12.657   3.231  0.1423  0.2923  0.2428
32430W        W48239   4.667  16.345  12.023 -0.2434  0.1041  0.0092
32431W        W48240   3.295   1.677   0.022  0.1570 -0.2714 -0.0337
32432W        W48241   8.465  15.870  13.181 -0.2707 -0.0514 -0.0109
32433W        W48242   2.988  10.465  13.720  0.2258  0.1188 -0.1311
32434W        W48243  11.963  11.989   4.941  0.0354 -0.2609 -0.1332
32435W        W48244  10.134  10.744  13.697  0.1240 -0.2454  0.1059
32436W        W48245   5.838   8.420   4.954  0.1010  0.0317 -0.4078
32437W        W48246   7.651  14.538   1.025  0.0801 -0.0668  0.0344
32438W        W48247   6.780   0.594  13.018 -0.0161  0.1184  0.2651
32439W        W48248   9.466   1.494  12.383  0.2108  0.1572 -0.1997
32440W        W48249   9.180   1.409  11.828 -0.0374 -0.0767 -0.0572
32441W        W48250  17.468   1.514  14.179 -0.0236  0.2178 -0.0438
32442W        W48251  14.669   7.697   9.521 -0.2139  0.0161  0.2795
32443W        W48252  17.133   5.122  11.698  0.3023  0.0399 -0.2028
32444W        W48253  18.094  18.299   0.554 -0.1009  0.0929 -0.0987
32445W        W48254   4.028   2.381  13.548 -0.0993  0.0276  0.0310
32446W        W48255  15.195  11.423   3.613  0.0560  0.3419  0.0145
32447W        W48256   5.841  11.741  14.302  0.0805  0.1161  0.0910
32448W        W48257   4.929  18.485  10.378 -0.0596 -0.0499  0.1398
32449W        W48258  12.033   5.628   3.867  0.0914  0.0728  0.1060
32450W        W48259  16.989   6.802   4.889  0.0498  0.0857  0.0637
32451W        W48260  17.445   5.203  14.720 -0.1049  0.1245 -0.2637
32452W        W48261  14.576  11.775   0.777 -0.3138  0.1632  0.0481
32453W        W48262   8.480   8.972  14.990  0.0436  0.0952 -0.0490
32454W        W48263   5.678  17.411   2.040  0.0812 -0.1208 -0.1504
32455W        W48264  12.542   8.190  14.667 -0.0124 -0.0533  0.0803
32456W        W48265   9.456   6.633  11.138  0.1979  0.0293  0.2470
32457W        W48266   2.726  13.564  12.843 -0.0234  0.0360 -0.2239
32458W        W48267   1.378   0.633  13.524  0.0870 -0.1789  0.0895
32459W        W48268   4.181   7.148  14.030  0.2901 -0.0577 -0.2884
32460W        W48269   9.919   1.530  11.073  0.3442 -0.1383 -0.3629
32461W        W48270  12.604  15.058   2.919  0.0657 -0.0697 -0.3936
32462W        W48271   5.728   6.585  13.686  0.0366 -0.1397  0.0687
32463W        W48272   9.240   7.321   0.073 -0.2365 -0.3999  0.0842
32464W        W48273  10.630   4.685  11.005 -0.1956 -0.2232 -0.0489
32465W        W48274   2.783   7.945   5.524  0.0277 -0.1441  0.3066
32466W        W48275  12.881   5.281   2.319  0.0949 -0.0688 -0.0562
32467W        W48276   7.851   8.412   0.882 -0.2809 -0.1746 -0.1770
32468W        W48277  18.519   7.762   3.318  0.0149 -0.1923  0.0764
32469W        W48278  16.922   9.027   4.785 -0.2107  0.0576  0.0318
32470W        W48279  18.390  15.488  11.075 -0.2280 -0.0362 -0.2657
32471W        W48280   3.378  18.224   0.354  0.0074 -0.0134  0.2581
32472W        W48281  14.781   3.604   4.142 -0.0966 -0.0385 -0.1132
32473W        W48282   9.771   5.649  12.677 -0.3633 -0.4427  0.2935
32474W        W48283   3.206  16.108   5.055 -0.2065 -0.0195  0.0438
32475W        W48284   5.397  11.324   1.728  0.1684  0.0906 -0.0699
32476W        W48285   1.914   7.616  11.076 -0.1092  0.0194  0.0622
32477W        W48286   0.150  17.683   9.745 -0.1268  0.1052  0.1545
32478W        W48287  14.690   2.136  11.673  0.0373 -0.1163  0.0282
32479W        W48288  14.917  16.914   2.426 -0.1437 -0.2322 -0.0550
32480W        W48289  16.071  15.089  15.586  0.1356 -0.1595 -0.0294
32481W        W48290   6.377  15.819   1.092 -0.2616  0.2497 -0.2605
32482W        W48291   7.551   1.694  12.799 -0.0065 -0.4308  0.1570
32483W        W48292  13.121   7.762   3.401 -0.0445 -0.0032  0.0850
32484W        W48293  14.231  18.570   1.675 -0.2410  0.0753  0.1988
32485W        W48294   2.921  16.036  13.968 -0.1663 -0.4265 -0.0433
32486W        W48295   4.315   7.721  12.658  0.2086 -0.0757  0.1612
32487W        W48296  15.633  11.885   3.444  0.0828 -0.1389 -0.1419
32488W        W48297   6.433  11.965   4.193 -0.0153  0.0719  0.2107
32489W        W48298  17.896   6.050  14.757  0.0929 -0.0169 -0.2032
32490W        W48299   8.805   6.718   3.105 -0.4256  0.0213 -0.2692
32491W        W48300   1.262   0.457   3.419 -0.2257  0.4541  0.1532
32492W        W48301  17.560   6.134  13.511 -0.3255 -0.1760  0.2767
32493W        W48302   8.305   6.713   1.862  0.1972  0.0307  0.1272
32494W        W48303  13.089   7.513  11.529  0.1742 -0.1471  0.0868
32495W        W48304  15.196  16.769   3.509  0.0845  0.1014  0.1065
32496W        W48305   0.368  12.476  11.702  0.1477 -0.1706 -0.0030
32497W        W48306   8.025   1.619  12.924 -0.1189 -0.1133 -0.3654
32498W        W48307  12.662   9.042   1.781 -0.1228 -0.2368 -0.0889
32499W        W48308   2.080   0.433  15.043 -0.0795 -0.1199  0.1380
32500W        W48309   9.703  10.454  13.856 -0.1591 -0.2883  0.2941
32501W        W48310   6.336  16.233   0.062 -0.1578  0.0318 -0.0485
32502W        W48311  18.657   5.988   4.604  0.2900  0.1942 -0.0910
32503W        W48312  14.009  15.418  13.366  0.1287 -0.0314  0.1600
32504W        W48313   9.535  17.709   4.522 -0.1054  0.0209 -0.0630
32505W        W48314  10.275   2.542   0.676 -0.0524  0.1271  0.3144
32506W        W48315   1.055   0.631   0.035 -0.2885 -0.1545  0.0377
32507W        W48316   5.939   8.775  15.192 -0.0659  0.0104 -0.0615
32508W        W48317   1.098   8.601  13.940 -0.2382  0.0127  0.2905
32509W        W48318  13.593   9.651  12.145 -0.2613  0.3660 -0.1432
32510W        W48319   0.160  12.981   3.117 -0.1995  0.0017 -0.1297
32511W        W48320   9.766   9.410  15.396 -0.0453  0.0741  0.0679
32512W        W48321   5.902  16.766  11.934 -0.0308  0.1692 -0.0117
32513W        W48322   6.712   8.401  10.660  0.0519 -0.3224  0.0132
32514W        W48323   7.739   4.655   1.851 -0.0991 -0.2132  0.1998
32515W        W48324   4.783  16.155   3.105 -0.0699  0.3589 -0.0908
32516W        W48325   5.145  11.579  10.796 -0.0628 -0.0991 -0.1594
32517W        W48326   9.586  16.019  14.203 -0.0976  0.1345 -0.0395
32518W        W48327   3.392  17.338   4.513 -0.0540  0.2014  0.1309
32519W        W48328  15.545  17.514  15.394  0.2847  0.0082 -0.2478
32520W        W48329   4.444   3.137   2.709 -0.3399 -0.0299 -0.0374
32521W        W48330  11.313   3.504   2.065 -0.2195 -0.0855 -0.0251
32522W        W48331  10.033   8.999  15.596 -0.2039 -0.1683  0.0845
32523W        W48332   9.225   6.715   1.895 -0.1181  0.0125 -0.0328
32524W        W48333  14.176  13.639  12.815  0.1129  0.3212  0.1271
32525W        W48334  13.466   6.863  14.335  0.0579  0.2454 -0.0775
32526W        W48335  14.172   4.199  14.277  0.0038 -0.1785  0.0752
32527W        W48336  16.107   2.633   4.649 -0.0471 -0.1233 -0.0163
32528W        W48337  15.725  12.101  11.043 -0.1314 -0.1019  0.1423
32529W        W48338   3.554   0.677   2.040 -0.1241  0.1058  0.1625
32530W        W48339  17.327   1.950  14.142  0.0078 -0.2163 -0.1669
32531W        W48340   5.646   6.107   0.580  0.1056 -0.3283  0.0784
32532W        W48341   6.852   5.468   3.173  0.0975  0.0656 -0.1672
32533W        W48342  12.943   4.035  11.726  0.0058 -0.0836  0.0383
32534W        W48343  11.756   5.349  13.401  0.0720  0.0872 -0.2010
32535W        W48344   9.767  14.030   4.702  0.2887  0.0822  0.0016
32536W        W48345  11.880   4.132   2.400 -0.1839  0.3000 -0.1814
32537W        W48346   0.065   1.575   0.598  0.2367 -0.1613 -0.2845
32538W        W48347  13.627  11.853  10.241 -0.0129  0.0347  0.1132
32539W        W48348  18.266   2.243  13.978  0.1409 -0.0405  0.2537
32540W        W48349   9.969  10.615  10.740 -0.1644 -0.1040 -0.1052
32541W        W48350  17.566  18.636  14.322 -0.2558 -0.0634 -0.2413
32542W        W48351   8.194  15.598  10.808 -0.0115 -0.1844 -0.0471
32543W        W48352   9.899   6.262   5.574  0.2461  0.1362 -0.3336
32544W        W48353  13.444  13.114  14.343 -0.0886  0.3531 -0.1184
32545W        W48354   9.279   4.619   0.648 -0.0516  0.1833 -0.2058
32546W        W48355  16.816  17.047   2.401  0.0145  0.0423  0.3158
32547W        W48356   8.992  14.220  14.558 -0.1413  0.0343  0.1256
32548W        W48357  10.217   7.446  14.137  0.1746 -0.0134  0.0732
32549W        W48358  10.701   0.006  12.302 -0.0243 -0.1412 -0.1450
32550W        W48359  15.052   0.576  14.910  0.2311 -0.2015  0.1656
32551W        W48360   8.714   3.799   3.677  0.1926  0.1051 -0.0877
32552W        W48361  14.297   2.682  12.402 -0.2023 -0.0606  0.4199
32553W        W48362  18.652  11.127   4.554 -0.0103  0.2900  0.1389
32554W        W48363   3.167   4.270  11.653 -0.0606 -0.0213  0.1647
32555W        W48364   0.113   1.575  10.603  0.1564  0.0497 -0.0056
32556W        W48365  17.103  14.272  13.262  0.1048 -0.0720  0.0823
32557W        W48366   6.448  11.466  12.769 -0.1611 -0.0201 -0.1569
32558W        W48367   2.615   3.780   5.458 -0.2215 -0.4208  0.1862
32559W        W48368  12.125  14.001   2.245 -0.0521  0.2537  0.0436
32560W        W48369   9.307   4.335   0.125  0.1290  0.0142  0.0682
32561W        W48370   4.512   7.435  13.014 -0.4416 -0.0013  0.1305
32562W        W48371  16.121   1.814  15.244 -0.0569  0.2526  0.3182
32563W        W48372  17.190  15.418  14.176 -0.3015 -0.3212 -0.0317
32564W        W48373  14.473   4.301  10.142  0.0494  0.0924 -0.3308
32565W        W48374   0.212   0.480   5.302 -0.2333  0.2326 -0.2427
32566W        W48375   5.735   5.135  12.618 -0.0701  0.0035 -0.1216
32567W        W48376   8.536   5.785   3.539  0.1298  0.0609  0.3203
32568W        W48377  17.864  11.386  10.093 -0.2591  0.2573  0.1321
32569W        W48378   8.782   9.843  10.624 -0.1580 -0.0367 -0.1422
32570W        W48379  13.863   7.376   0.053  0.1538  0.0001 -0.1421
32571W        W48380  14.080  10.550   4.294 -0.1143 -0.2419  0.0214
32572W        W48381   3.509  17.905   1.400 -0.0027  0.0126  0.1089
32573W        W48382  16.518  10.504   9.997  0.0888 -0.1609 -0.0758
32574W        W48383   6.623  14.825  15.480 -0.1380  0.2981  0.1628
32575W        W48384  17.306   6.144  12.671 -0.0165  0.0113  0.0121
32576W        W48385   7.778   2.499  13.157 -0.0712 -0.2491 -0.2485
32577W        W48386  17.100  16.526  12.964 -0.2907  0.1078 -0.3024
32578W        W48387  13.899   8.184   4.569 -0.0532  0.0949 -0.0735
32579W        W48388   8.796   3.842   3.044 -0.1381  0.2153  0.0762
32580W        W48389  15.819   7.576   3.288  0.4123 -0.0612 -0.2716
32581W        W48390   8.600  18.109   2.986  0.0964 -0.2251  0.2555
32582W        W48391   2.885   2.048   0.022  0.1957  0.1791 -0.1540
32583W        W48392   5.911  13.819   0.525 -0.0674 -0.1509  0.0987
32584W        W48393   6.882   4.885  11.071  0.1371  0.1462  0.2208
32585W        W48394   8.828  14.365   0.116  0.1369  0.5289  0.0360
32586W        W48395  13.251  16.819   4.356  0.2441  0.3211  0.0138
32587W        W48396   6.807   1.341  15.547 -0.0755  0.0812 -0.0311
32588W        W48397   8.614   6.709  11.869 -0.1128 -0.1774 -0.1148
32589W        W48398   1.812   0.527   2.576 -0.1893 -0.0322 -0.3200
32590W        W48399  15.689  10.500  14.727 -0.4489 -0.2980 -0.0843
32591W        W48400  11.350   4.183   2.699  0.2742 -0.1342  0.3563
32592W        W48401  17.129   2.090   4.644  0.1282  0.0502 -0.2416
32593W        W48402   8.943   9.811   1.443  0.1542 -0.2410 -0.0744
32594W        W48403   9.201   3.131  13.133  0.0918 -0.1821  0.1147
32595W        W48404   2.987   3.063   3.324  0.1514 -0.2681  0.0637
32596W        W48405   5.822  18.437   2.797 -0.1874 -0.0291 -0.4241
32597W        W48406  14.131   6.818   4.343  0.1949 -0.1253 -0.1506
32598W        W48407  14.369   9.159   1.633 -0.0251 -0.2175  0.1084
32599W        W48408   4.474  14.997   4.899  0.0831  0.1780  0.1311
32600W        W48409   5.967  16.537  15.451  0.1580  0.1499  0.1477
32601W        W48410  17.620   7.498  14.569 -0.1418 -0.0578 -0.1057
32602W        W48411   2.017  17.942   5.030 -0.0295  0.1554 -0.2577
32603W        W48412   9.519  16.841   1.509  0.3113  0.0740 -0.0564
32604W        W48413  13.869   1.183  14.333 -0.0868 -0.0203 -0.0787
32605W        W48414  12.287  11.964  12.744  0.0862  0.2025 -0.1247
32606W        W48415  15.488   0.199  14.166 -0.3671  0.1064 -0.0478
32607W        W48416  11.922  15.736  10.267  0.3263  0.1143 -0.1914
32608W        W48417  13.446   9.929  13.170  0.3289  0.0935 -0.1292
32609W        W48418   4.307   1.600   3.680 -0.1256  0.0170 -0.1751
32610W        W48419   6.574   0.418  14.378  0.0429 -0.1789  0.1035
32611W        W48420   3.485   4.870  10.678  0.1153  0.2448 -0.2311
32612W        W48421   8.913   3.820   5.436  0.1079  0.1274 -0.1088
32613W        W48422   1.494  17.160  11.648  0.1961  0.0871  0.3891
32614W        W48423   8.641   8.126  15.527  0.3445  0.3229  0.1610
32615W        W48424   7.135   7.058  10.177  0.1108 -0.1259  0.2281
32616W        W48425   6.605  17.727  14.108  0.0022  0.2049 -0.0689
32617W        W48426   7.365  14.465  14.204 -0.2668  0.0388 -0.0327
32618W        W48427   8.474   2.539   3.119 -0.0655  0.2857 -0.1639
32619W        W48428  13.118   5.966   1.149  0.0727 -0.0052 -0.0295
32620W        W48429   2.467   8.604  11.671  0.1967 -0.0064 -0.0559
32621W        W48430  13.443   1.015   2.569  0.1315  0.0499  0.1386
32622W        W48431  16.686   9.576   2.307  0.0242 -0.0690 -0.2645
32623W        W48432   7.018  16.789   1.312  0.2308  0.1237 -0.1663
32624W        W48433   1.469   3.095   2.971  0.2951  0.0336 -0.0768
32625W        W48434  10.836  16.738   5.301  0.0312  0.1960 -0.1591
32626W        W48435  14.311   0.408   2.231  0.2628 -0.2712 -0.0191
32627W        W48436   9.008  11.941   1.385  0.0806 -0.1746 -0.0897
32628W        W48437   8.297   4.850   3.282  0.4148 -0.0946 -0.1818
32629W        W48438   7.978  18.516   5.918  0.1034 -0.0690 -0.0832
32630W        W48439  17.795  15.833  14.620  0.1977  0.1726 -0.0226
32631W        W48440   1.354   5.116   2.159  0.0837  0.1685 -0.1881
32632W        W48441   2.380  13.568   0.353 -0.1929 -0.1549 -0.1017
32633W        W48442   9.735   8.385  12.486 -0.0930  0.1339 -0.1920
32634W        W48443   2.390   7.478   1.462  0.2126 -0.3059  0.2193
32635W        W48444   9.095   4.726   4.591 -0.0327  0.1378 -0.0097
32636W        W48445   9.997   0.016   5.237 -0.2661  0.1444  0.1329
32637W        W48446   1.358  16.518  10.773 -0.1935 -0.1196  0.0251
32638W        W48447   8.824  11.109  10.334  0.3089 -0.2109  0.0143
32639W        W48448  17.240   6.153  10.333  0.1501  0.0948  0.1167
32640W        W48449  16.156   3.378   3.789 -0.0548 -0.0430  0.2025
32641W        W48450   2.717  13.407   3.477  0.0430 -0.2607 -0.2254
32642W        W48451   2.933  17.887  10.386 -0.0936  0.1702  0.1144
32643W        W48452   8.972  15.421   6.045  0.1091 -0.0284 -0.0598
32644W        W48453  15.016  11.902   0.894  0.2009  0.0842 -0.0070
32645W        W48454  13.957  12.021   2.555  0.0118  0.0087 -0.2148
32646W        W48455   6.696  10.098   5.064 -0.0775 -0.2443  0.2420
32647W        W48456  12.445   1.848  11.746  0.1374 -0.1703 -0.2953
32648W        W48457   6.564  14.336  11.767  0.1576 -0.0543  0.1736
32649W        W48458   0.969   0.623   0.557 -0.2121 -0.0276  0.2298
32650W        W48459  14.867  13.318   3.687  0.1777  0.0528  0.1336
32651W        W48460  12.148   6.332  15.081  0.0955 -0.0892  0.1661
32652W        W48461  18.110  16.889   2.249 -0.1086 -0.0098  0.5779
32653W        W48462  12.758  10.225  13.240 -0.2561  0.0583  0.3013
32654W        W48463  14.552   2.140  12.364 -0.2266  0.0351  0.1656
32655W        W48464   0.659   0.258   0.649 -0.3446  0.1262  0.0570
32656W        W48465  10.542  15.364   2.456 -0.0869  0.0163 -0.0676
32657W        W48466   8.969  11.665   3.291 -0.1056 -0.1498 -0.0891
32658W        W48467  15.791   2.268   3.733  0.2131  0.0807  0.0482
32659ION     NA48468  13.728   3.961  12.907  0.1274 -0.2470 -0.0195
32660ION     NA48469   3.185   3.102  11.064 -0.2783  0.0650  0.1323
32661ION     NA48470   9.152   3.838   5.914 -0.0513 -0.0175  0.3219
32662ION     NA48471   0.807  11.205   5.509  0.2013 -0.3146  0.1634
32663ION     NA48472  13.019  11.574   0.628 -0.0021  0.1296  0.0517
32664ION     NA48473   3.937   6.376  10.359 -0.0833  0.2221 -0.0439
32665ION     NA48474  17.289  16.155   2.310 -0.2230  0.1554  0.2637
32666ION     NA48475  14.784  16.374   1.022  0.0520  0.1942 -0.1070
32667ION     NA48476   0.065  11.307  14.962 -0.1252 -0.1587 -0.1088
32668ION     NA48477   6.428   3.564   9.968 -0.0627  0.0293 -0.3246
32669ION     NA48478   3.086  11.331   0.332  0.1139  0.1112 -0.1378
32670ION     NA48479   7.068   0.338   3.034  0.0135  0.0368  0.0264
32671ION     NA48480  11.870   5.167  10.068  0.0957  0.0203 -0.0439
32672ION     NA48481  13.656  14.656  12.358  0.2899  0.1562  0.0018
32673ION     NA48482  14.173   7.713   0.308  0.0954  0.1178  0.0497
32674ION     NA48483   1.185   4.353   0.793  0.1461  0.3007 -0.0440
32675ION     NA48484  17.036   2.878   1.631  0.0545  0.0218 -0.0813
32676ION     NA48485  14.079  14.289   3.424  0.0043  0.0714 -0.1588
32677ION     NA48486  14.548   1.885   2.093 -0.0249 -0.2555 -0.1236
32678ION     NA48487   5.809   3.255   5.720  0.0016  0.4026 -0.0074
32679ION     NA48488   1.500  18.564   0.179  0.0615 -0.1221  0.0392
32680ION     NA48489   9.322  18.335   0.385  0.4917 -0.0564 -0.4772
32681ION     NA48490   5.327   7.249   5.921 -0.0215  0.2429 -0.5581
32682ION     NA48491  10.541  11.196   5.669 -0.0934  0.0958 -0.3015
32683ION     NA48492   8.000   1.109  10.924 -0.2109 -0.4077  0.0597
32684ION     NA48493   7.419  13.689   2.943  0.1151  0.0791 -0.0684
32685ION     NA48494   9.367   1.992   4.774  0.0345 -0.1990 -0.1107
32686ION     NA48495   3.094  11.694  13.979 -0.0973  0.2039 -0.0465
32687ION     NA48496  13.040   0.909   4.112 -0.2172 -0.2616  0.1103
32688ION     NA48497  15.492  16.005   4.145  0.1514 -0.0399  0.0827
32689ION     NA48498   6.433   5.782   0.089  0.3435  0.3866  0.2231
32690ION     NA48499  17.425   8.783  13.663  0.3505  0.2437 -0.1283
32691ION     NA48500   7.589   6.203   9.788 -0.0168  0.2988  0.3202
32692ION     NA48501   2.333  16.481  10.189 -0.1134  0.0450  0.2393
32693ION     NA48502   8.009  16.743  15.471  0.0674 -0.1783 -0.0717
32694ION     NA48503  15.561   2.015   2.036 -0.0070 -0.2143  0.1764
32695ION     NA48504   1.524   3.440   9.786 -0.1442 -0.3010 -0.1961
32696ION     NA48505  14.447   9.098  10.742  0.3487 -0.1081  0.2109
32697ION     NA48506   5.960   0.689   2.784 -0.3074  0.3667 -0.3191
32698ION     NA48507  15.762   0.092  13.227 -0.0036 -0.1322  0.0858
32699ION     NA48508  16.600   5.852   1.741 -0.4150  0.1059 -0.0590
32700ION     NA48509   5.713  15.981   9.877 -0.2600  0.0468 -0.2077
32701ION     NA48510   0.549   7.860   4.975 -0.2691 -0.1876 -0.3695
32702ION     NA48511  12.229  17.051  10.513  0.1899  0.0933  0.1095
32703ION     NA48512  11.518   6.550   0.947 -0.3656  0.1322  0.0400
32704ION     NA48513   1.967   6.220   9.733 -0.0012  0.1797  0.1232
32705ION     NA48514   8.653   7.130   5.951 -0.1573  0.2288 -0.0387
32706ION     NA48515  17.003   0.577   5.659 -0.2533 -0.1818  0.3479
32707ION     NA48516   1.245  15.515  10.276  0.2750 -0.2445  0.1599
32708ION     NA48517   5.949  18.437   3.282  0.0885  0.0165  0.1864
32709ION     NA48518   4.725   4.215  15.608  0.1673 -0.1850 -0.1263
32710ION     NA48519   4.231  18.346   1.439 -0.2480 -0.1038 -0.2197
32711ION     NA48520   4.196   3.561   4.831  0.1812  0.1515 -0.0848
32712ION     NA48521   0.398  16.268   9.820 -0.0790  0.3761 -0.0541
32713ION     NA48522   4.161   9.225   5.131  0.2344 -0.1299  0.1875
32714ION     NA48523   0.953   1.965   0.466  0.1392 -0.1148  0.2661
32715ION     NA48524   5.135  13.219  15.461 -0.0174  0.0626 -0.0864
32716ION     NA48525   1.879   8.150   9.881 -0.2545 -0.2191  0.3894
32717ION     NA48526  15.456  16.860   9.991  0.0929  0.0579  0.2214
32718ION     NA48527   0.448   1.340  15.358  0.2446  0.1866 -0.0770
32719ION     NA48528   5.277  14.613   5.393  0.0248  0.0062  0.1195
32720ION     NA48529  14.064   6.516   5.726 -0.2050 -0.0152  0.0279
32721ION     NA48530   6.654  14.905   2.861 -0.0024  0.2065  0.1352
32722ION     NA48531  13.382  18.178   0.857  0.2747 -0.3323  0.2925
32723ION     NA48532  18.040   6.989  11.850  0.2038 -0.0215 -0.3678
32724ION     NA48533   4.380  10.147   9.962  0.0549  0.3438 -0.0632
32725ION     NA48534  15.657  16.011   9.935 -0.2297  0.4180  0.3754
32726ION     NA48535  10.628   7.025  10.804 -0.2706 -0.1238  0.0413
32727ION     NA48536  10.744  13.070  11.439 -0.2798 -0.0337  0.0152
32728ION     NA48537  18.185   6.491   3.784  0.1149 -0.0441  0.0655
32729ION     NA48538  11.736  16.605   2.528 -0.0192 -0.0234  0.1928
32730ION     NA48539   3.095   9.677   3.742  0.1823  0.0327  0.0239
32731ION     NA48540  10.975   5.005  10.184 -0.1734  0.1267  0.0031
32732ION     NA48541   6.470  13.891   2.018 -0.0727  0.0254 -0.0666
32733ION     NA48542   9.605  12.247  10.224 -0.1415 -0.0708 -0.4110
32734ION     NA48543  11.651  18.437  10.572  0.0347  0.2937  0.0541
32735ION     NA48544   5.069   0.611   5.555 -0.0040 -0.1341  0.0800
32736ION     NA48545  12.827   2.715   6.132 -0.0258 -0.0105 -0.2172
32737ION     NA48546   9.590   1.088  10.512 -0.1588 -0.0467 -0.0933
32738ION     NA48547   7.705  13.471   5.825 -0.0377 -0.1485  0.2837
32739ION     NA48548   5.325  14.882  13.509  0.2039 -0.1890 -0.3825
32740ION     NA48549  17.489   7.807   0.182  0.1784 -0.4139 -0.0367
32741ION     NA48550  17.072  17.135  14.588  0.1617 -0.3355 -0.0439
32742ION     NA48551   3.492  16.798   0.171  0.0438  0.1264 -0.0114
32743ION     NA48552  10.332   5.626   4.248 -0.1518 -0.1437 -0.0310
32744ION     NA48553  15.293  13.672  11.821  0.1183 -0.3941 -0.1446
32745ION     NA48554   7.388  11.872   5.819 -0.1419  0.1179 -0.0082
32746ION     NA48555   1.731   7.161   9.782 -0.3995  0.0938  0.0985
32747ION     NA48556  13.937  16.210   5.484  0.3409  0.0661 -0.1760
32748ION     NA48557   9.354   1.426  14.264 -0.2014  0.1881  0.0771
32749ION     NA48558   4.841  11.425  12.061  0.2164 -0.1118  0.1412
32750ION     NA48559  17.497  14.008   5.314  0.0411 -0.0993  0.2747
32751ION     NA48560   0.765   5.513   9.378 -0.0014 -0.1282 -0.1903
32752ION     NA48561  10.914  16.858   2.752 -0.2226  0.1285 -0.1665
32753ION     NA48562   3.899  17.751  15.584  0.3447  0.1608  0.3727
32754ION     NA48563   2.110  17.257   5.747  0.1456  0.0596  0.2106
32755ION     NA48564   5.478  17.076   4.266 -0.1195 -0.0937  0.0700
32756ION     NA48565  13.710   9.016  10.302 -0.3072 -0.2459  0.0578
32757ION     NA48566  16.363  17.626   9.998 -0.1525 -0.0677 -0.0530
32758ION     NA48567   9.963   5.394   5.611 -0.2040 -0.0923  0.0138
32759ION     NA48568   5.276  16.775  10.148 -0.1919  0.1832  0.1474
32760ION     NA48569   7.820  15.942  13.573  0.1966  0.0832  0.2158
32761ION     NA48570  18.075   5.643   9.293 -0.4622 -0.3762 -0.0306
32762ION     NA48571  17.008  14.775   5.066  0.2312 -0.0521  0.2562
32763ION     NA48572  10.759   4.117   2.667 -0.1429 -0.2387 -0.1837
32764ION     NA48573   4.646   8.320   9.828  0.2938 -0.1628  0.1364
32765ION     NA48574   5.584   7.745   3.038  0.1669  0.1505 -0.4152
32766ION     NA48575   2.075   7.365  15.450  0.1277 -0.0211  0.0569
32767ION     NA48576  10.722   7.745  10.316  0.3437 -0.1651  0.0687
32768ION     NA48577   3.438   8.044  11.532 -0.2420  0.3400  0.0771
32769ION     NA48578  11.232  11.462  10.573  0.0557 -0.2075 -0.1724
32770ION     NA48579   0.365   5.496  13.909  0.1462  0.1195 -0.0250
32771ION     NA48580   4.644   7.028  10.022 -0.0375 -0.0825 -0.1469
32772ION     NA48581  16.788  14.138  10.290  0.0850 -0.1226 -0.0991
32773ION     NA48582  10.918  17.996  10.500 -0.1005  0.1084 -0.1537
32774ION     NA48583   9.801   3.718   1.589  0.1842 -0.0742  0.3518
32775ION     NA48584  10.709   9.165   5.372  0.2751 -0.0654  0.0219
32776ION     NA48585   7.952   9.787   5.288 -0.1191 -0.0419  0.1693
32777ION     NA48586  17.936   8.938   9.524  0.0337 -0.1785 -0.2839
32778ION     NA48587   1.027  16.735  15.484  0.2685  0.2170 -0.0339
32779ION     NA48588  14.248  12.128  10.645  0.1954  0.1876  0.0273
32780ION     NA48589  18.116  18.446   5.706  0.0973 -0.3313  0.3955
32781ION     NA48590  18.541   1.253   9.610  0.1323  0.0552 -0.0820
32782ION     NA48591   7.331  17.840  14.650  0.2493 -0.0074 -0.0290
32783ION     NA48592  13.268  17.278  10.124 -0.0215 -0.0384  0.1482
32784ION     NA48593  16.757  14.841   2.087 -0.0553 -0.0405 -0.1338
32785ION     NA48594   5.209  16.760  12.695 -0.1514  0.1387  0.0060
32786ION     NA48595  13.459  10.211   5.967  0.0185  0.1793 -0.0708
32787ION     NA48596  10.542   7.777   0.522  0.2562  0.0922 -0.0106
32788ION     NA48597   2.121   0.975   3.824  0.1505 -0.1435  0.0419
32789ION     NA48598   0.793  16.103  14.171  0.0377 -0.2366 -0.1681
32790ION     NA48599  18.223   1.917  14.567  0.0457 -0.1531  0.1487
32791ION     NA48600   2.523   5.912  14.470  0.2073  0.1217  0.5350
32792ION     NA48601  14.222   4.726  10.121  0.0847 -0.0497 -0.2671
32793ION     NA48602  11.004  10.044  10.364  0.2367  0.0664  0.1222
32794ION     NA48603   8.110  14.549   2.014  0.3077 -0.0575  0.2796
32795ION     NA48604   1.670   1.318   9.823  0.6835 -0.0176 -0.0013
32796ION     NA48605  16.037   3.266   4.692 -0.3445  0.0794  0.2437
32797ION     NA48606  10.867   8.665   4.025  0.0985 -0.1280 -0.2690
32798ION     NA48607  18.063   6.986   5.366 -0.2734 -0.4891 -0.1197
32799ION     NA48608   3.660   8.383  14.861  0.0791 -0.4246 -0.0365
32800ION     NA48609  11.596   7.983  10.066 -0.0744 -0.1204 -0.1074
32801ION     NA48610   7.213   1.045  15.328  0.1361 -0.0046 -0.4020
32802ION     NA48611   4.768  15.154   3.473  0.3443 -0.2260  0.0629
32803ION     NA48612   3.948   8.283   5.582  0.0587  0.2634 -0.1666
32804ION     NA48613   5.916  17.785  13.784  0.1150 -0.0823 -0.3083
32805ION     NA48614   0.200   3.344   4.938 -0.0176 -0.0050 -0.0927
32806ION     NA48615   6.538   2.906   5.533 -0.2571  0.1360 -0.1020
32807ION     NA48616   5.544   8.603   0.262 -0.0923  0.2672 -0.0698
32808ION     NA48617  15.458   9.295   3.415  0.0407  0.0452 -0.1368
32809ION     NA48618   7.539  10.807   5.930 -0.1581 -0.0221  0.3085
32810ION     NA48619  12.696  16.171  12.832 -0.2134 -0.2799  0.0632
32811ION     NA48620   9.594  15.807  12.426 -0.0962  0.2271  0.1110
32812ION     NA48621  10.951  14.127   2.080 -0.3857 -0.1247 -0.0656
32813ION     NA48622  10.407   7.196  12.309  0.0344 -0.0103 -0.2446
32814ION     NA48623   1.945   6.646  13.661 -0.0205 -0.2645 -0.0175
32815ION     NA48624  12.979   4.470   1.514 -0.0103 -0.1493 -0.0794
32816ION     NA48625   3.130   2.612  10.080 -0.3710 -0.0088  0.0833
32817ION     NA48626  15.561  11.776  14.770  0.1266 -0.1474  0.0684
32818ION     NA48627   8.563   1.657  10.463 -0.0029 -0.1094  0.0871
32819ION     NA48628  13.195  10.325   2.139  0.0811 -0.1707 -0.0905
32820ION     NA48629   0.378  17.967   4.944 -0.2526  0.0108  0.1814
32821ION     NA48630   1.279   1.619  14.046 -0.0300  0.1790 -0.3835
32822ION     NA48631   8.008   8.935  15.142  0.1074  0.1082  0.3098
32823ION     NA48632  14.504  16.577   2.401 -0.0403 -0.1162 -0.3048
32824ION     NA48633   7.051  10.735  12.335  0.1383 -0.0314 -0.0158
32825ION     NA48634   2.787  11.383   9.858 -0.1050  0.3607 -0.0171
32826ION     NA48635  12.910   3.356   3.834  0.0465 -0.0972 -0.0960
32827ION     NA48636   3.376  17.938  12.537  0.0887 -0.1672  0.2039
32828ION     NA48637  10.056  14.802  12.891  0.0828 -0.0361 -0.1312
32829ION     NA48638  12.233  13.571   3.592 -0.1066  0.2394  0.0111
32830ION     NA48639  14.676   1.367   5.780  0.0346 -0.3325  0.1480
32831ION     NA48640  13.057  12.090   5.922 -0.0104 -0.0706 -0.0083
32832ION     NA48641  14.283  17.251   3.741 -0.2075 -0.0244 -0.1079
32833ION     NA48642  14.628  13.341   9.839  0.2351  0.3030  0.0848
32834ION     NA48643  11.823  18.286   6.005 -0.2548 -0.1933  0.1408
32835ION     NA48644  11.860   3.617   3.314  0.1366  0.1279 -0.1925
32836ION     NA48645   9.277  13.126   5.629  0.2674 -0.2438  0.1610
32837ION     NA48646   0.896  13.963   1.510 -0.1876  0.0441  0.0704
32838ION     NA48647  14.398  14.959   0.562 -0.0772  0.1828 -0.1726
32839ION     NA48648  13.572  17.369  15.612 -0.3270  0.3795  0.1384
32840ION     NA48649  14.520   3.174   5.681  0.3707 -0.0625  0.1176
32841ION     NA48650  13.754   7.977  10.443  0.0207  0.1293  0.0483
32842ION     NA48651   0.914   8.160   0.469  0.2506  0.0282  0.2435
32843ION     NA48652  11.579   5.813  11.540  0.0724  0.1972  0.0494
32844ION     NA48653  14.878   1.058  15.099  0.2673 -0.1131 -0.0523
32845ION     NA48654   2.771   2.979   2.250  0.1549  0.0036 -0.2843
32846ION     NA48655   7.546   4.377   5.493 -0.0646 -0.0161  0.0991
32847ION     NA48656  10.902   7.066   5.634  0.3721 -0.0588  0.2170
32848ION     NA48657  17.295  16.786   9.952  0.2059 -0.0032  0.0272
32849ION     NA48658   4.336   0.655   0.993 -0.1736 -0.0899 -0.2052
32850ION     NA48659   2.944   3.969   2.492 -0.0265 -0.0796  0.0583
32851ION     NA48660   8.164  17.424   5.603  0.0252 -0.0424 -0.2284
32852ION     NA48661  11.591  10.515   1.862  0.3033  0.0913  0.2799
32853ION     NA48662   8.025   6.705   2.300  0.0788  0.2259  0.1116
32854ION     NA48663   9.996   4.404  14.640  0.0230 -0.0284 -0.2470
32855ION     NA48664   0.409  14.944   5.170  0.2499 -0.1170  0.0386
32856ION     NA48665  11.435   6.195  10.019  0.0757 -0.1158 -0.0400
32857ION     NA48666  12.997   5.923  10.929  0.5159 -0.3704 -0.1378
32858ION     NA48667   1.658   5.242   9.605  0.2849  0.1913 -0.0201
32859ION     NA48668   5.042  15.646   9.932  0.1716 -0.1418  0.3896
32860ION     NA48669  17.323  17.115   2.524  0.0509 -0.0819 -0.1248
32861ION     NA48670  13.145  13.467  14.137  0.2234 -0.0831 -0.0965
32862ION     NA48671   0.285   4.643   9.531 -0.0219  0.0888  0.1233
32863ION     NA48672  11.442  10.946   6.006 -0.1600 -0.0879  0.0326
32864ION     NA48673   4.086   5.080   3.225 -0.2392 -0.1246  0.0319
32865ION     NA48674   0.833  18.184  10.116 -0.2778  0.1892  0.1662
32866ION     NA48675  17.240   9.700   5.183  0.1684  0.2681  0.3581
32867ION     NA48676  15.250   6.389   9.799  0.0974  0.3907 -0.2295
32868ION     NA48677   9.641   5.219  12.461  0.0800 -0.4285  0.0926
32869ION     NA48678  16.180   1.087  13.926 -0.0348 -0.1841 -0.1036
32870ION     NA48679   2.799  17.883   4.408  0.1645  0.1221  0.0303
32871ION     NA48680  11.846   1.243   0.524 -0.1760 -0.4251 -0.0154
32872ION     NA48681   9.239  12.225  11.982  0.1713 -0.0414  0.0267
32873ION     NA48682  16.547   1.537   3.657 -0.3696  0.1667  0.0722
32874ION     NA48683   3.908  13.579  14.052 -0.0117  0.0713 -0.2101
32875ION     NA48684  10.060  14.371   4.082 -0.0259 -0.3810 -0.1812
32876ION     NA48685  15.913   4.056  15.085 -0.0731 -0.0128 -0.0624
32877ION     NA48686   9.539   2.266  13.381  0.3590 -0.2638  0.0386
32878ION     NA48687  15.029   3.873   3.380 -0.0403 -0.0670 -0.4004
32879ION     NA48688  14.690   3.687   5.746 -0.1390 -0.0397 -0.0940
32880ION     NA48689   8.773  14.376   5.242 -0.1489  0.0033 -0.0828
32881ION     NA48690  10.057  13.491   6.054  0.0360  0.3969  0.0825
32882ION     NA48691   0.495  11.577   0.801  0.2856  0.2594 -0.1128
32883ION     NA48692  12.000  17.586  10.461  0.1826 -0.0205  0.0330
32884ION     NA48693   6.572   7.643   4.636  0.0403 -0.1256  0.0203
32885ION     NA48694   0.017  11.833   9.633  0.1939 -0.2671 -0.0424
32886ION     NA48695  17.814   2.542   9.948 -0.3751  0.0527  0.0183
32887ION     NA48696  17.166   4.647  11.674  0.2072  0.1007  0.3275
32888ION     NA48697  13.428  16.080  13.403 -0.0571 -0.0760 -0.0794
32889ION     NA48698   3.445   8.492  13.345  0.2282  0.1523 -0.1346
32890ION     NA48699  13.444   8.496  14.453 -0.0840 -0.3497  0.1689
32891ION     NA48700  17.873   8.566  10.522 -0.1372  0.0965  0.0783
32892ION     NA48701  17.764  11.754  15.206  0.0045  0.1669 -0.0886
32893ION     NA48702  13.862   4.678   5.919  0.0762  0.0440  0.0014
32894ION     NA48703  15.832   5.896   5.439  0.3286 -0.2807  0.1229
32895ION     NA48704   4.430   3.266  14.643 -0.0563  0.0928 -0.0705
32896ION     NA48705   1.664   2.298   1.684 -0.0276 -0.2312  0.0567
32897ION     NA48706   0.151  15.928   5.236  0.0096  0.0942 -0.0279
32898ION     NA48707   0.243  10.918   9.381  0.2523  0.2792 -0.1339
32899ION     NA48708   5.819   3.885   1.226  0.0957  0.1222 -0.1219
32900ION     NA48709   3.799  12.350  15.189 -0.5015 -0.2401  0.3501
32901ION     NA48710   7.677  14.087  13.922  0.2708 -0.1151  0.0040
32902ION     NA48711  11.045  10.001   4.680 -0.1734  0.0470 -0.0197
32903ION     NA48712   7.172   1.643  10.155 -0.0993 -0.0672  0.2902
32904ION     NA48713   2.609   6.986   9.816 -0.1050  0.0679  0.1106
32905ION     NA48714   4.536   2.124   3.716 -0.3419  0.0439 -0.0678
32906ION     NA48715  17.097   8.031   5.347 -0.1385  0.1376 -0.0074
32907ION     NA48716  13.627   4.075  15.576 -0.0152 -0.3221 -0.0430
32908ION     NA48717  15.325   8.026   0.858 -0.2946 -0.0666 -0.0564
32909ION     NA48718   8.304   3.138  10.218  0.1702  0.0073 -0.0228
32910ION     NA48719   1.612  17.125  10.024  0.0353  0.0086 -0.2478
32911ION     NA48720  17.504   4.745   9.347  0.1300 -0.0924 -0.1249
32912ION     NA48721  10.209   2.945   3.460 -0.3829  0.0199 -0.0249
32913ION     NA48722   4.723   1.159   5.946 -0.0605  0.0007  0.1229
32914ION     NA48723   9.560   2.713  10.545  0.3032 -0.0111  0.3035
32915ION     NA48724   1.127   6.428   9.412 -0.2196 -0.4395  0.0097
32916ION     NA48725   6.522   1.783   5.722  0.2723 -0.3013 -0.1066
32917ION     NA48726   1.894   6.630  15.229 -0.1325 -0.1391  0.1818
32918ION     NA48727  13.157  18.140   3.988  0.1122  0.3401 -0.2160
32919ION     NA48728   5.095  10.318  14.397 -0.1233  0.1892  0.0139
32920ION     NA48729   9.002  17.595  11.764  0.0375 -0.4857  0.1073
32921ION     NA48730   9.420   1.441   2.619 -0.5324  0.3195  0.1285
32922ION     NA48731   4.837   4.018   3.218  0.3322  0.1453 -0.3385
32923ION     NA48732  14.984   4.718   5.653  0.1714 -0.2175 -0.1061
32924ION     NA48733  11.761  11.603   4.095  0.0317 -0.2286  0.2079
32925ION     NA48734  13.999  14.672   9.860 -0.0457  0.4174  0.2973
32926ION     NA48735   9.305   4.694   5.575  0.1640 -0.2629  0.2053
32927ION     NA48736  14.437   1.604  10.332  0.0450  0.3164  0.0014
32928ION     NA48737   7.527   7.574   5.015 -0.0279 -0.1063  0.2310
32929ION     NA48738  12.130  16.332   3.876  0.0466 -0.1354 -0.2899
32930ION     NA48739   1.847   7.515   1.611 -0.4407 -0.2017 -0.1623
32931ION     NA48740  17.146   4.326   9.758 -0.0035  0.2421 -0.0915
32932ION     NA48741  17.070   7.441  10.783 -0.1835  0.0393 -0.1307
32933ION     NA48742  17.731   5.475   4.961 -0.0122 -0.1261  0.0076
32934ION     NA48743   2.813   7.749  10.210  0.1327 -0.5684 -0.1881
32935ION     NA48744  11.912  10.091   5.640 -0.1368  0.2906  0.1466
32936ION     NA48745   3.366   2.010   5.797  0.0772 -0.0971  0.0232
32937ION     NA48746   6.252   8.700   5.081 -0.2604 -0.2120 -0.0680
32938ION     NA48747   6.123   0.764  14.226 -0.1352 -0.1415  0.1819
32939ION     NA48748   3.306  13.156   9.863  0.0867 -0.0482 -0.1285
32940ION     NA48749   3.173   6.142   0.340  0.0191 -0.3166  0.3518
32941ION     NA48750  14.161  12.245   5.683  0.2205  0.1224  0.1672
32942ION     NA48751   5.220   6.604   3.237 -0.2687  0.0906  0.3315
32943ION     NA48752   7.387   2.906   2.136 -0.0578 -0.0174  0.1736
32944ION     NA48753  14.108   5.465   9.887 -0.0726 -0.1141  0.0922
32945ION     NA48754   7.991  13.695  14.696  0.2590  0.1568 -0.2375
32946ION     NA48755  13.789   2.904   5.327  0.3071  0.1279 -0.0527
32947ION     NA48756   4.847  13.493   9.914 -0.1861  0.2211 -0.1086
32948ION     NA48757   5.216  18.487  15.489  0.0206  0.3766 -0.0514
32949ION     NA48758  14.675   6.374   5.540  0.1593  0.2242 -0.0056
32950ION     NA48759   3.138   3.004  10.543 -0.2723 -0.3290 -0.0327
32951ION     NA48760  11.281  13.766  13.022  0.1907 -0.2954 -0.4272
32952ION     NA48761   2.372  17.226  15.022 -0.2050  0.0829  0.1016
32953ION     NA48762  14.729  12.749   5.499 -0.1370 -0.1526  0.1988
32954ION     NA48763  17.534   5.737  12.059  0.2109 -0.2058 -0.0396
32955ION     NA48764   3.313  12.219   0.502 -0.2527 -0.2223 -0.1256
32956ION     NA48765   3.642  16.406   4.046 -0.3601 -0.2761 -0.0354
32957ION     NA48766   9.213   5.888  10.073  0.3717 -0.0808 -0.1977
32958ION     NA48767   2.558   8.591   1.278  0.0102  0.1966  0.0082
32959ION     NA48768  17.244  13.179  14.005  0.0049 -0.2444  0.0437
32960ION     NA48769   6.877  13.102   5.503  0.0845 -0.0018  0.0021
32961ION     NA48770   9.477  16.648  15.141  0.1756 -0.3273 -0.0508
32962ION     NA48771   4.258  16.800  10.122  0.0621 -0.2717  0.2232
32963ION     NA48772   7.263  11.606  14.500  0.1387 -0.1116  0.2755
32964ION     NA48773  18.641  14.642   5.487 -0.0505 -0.1897 -0.0158
32965ION     NA48774   4.374  12.663  12.173  0.5298  0.4319  0.2413
32966ION     NA48775  14.973   2.912  14.935 -0.0085 -0.4372 -0.1317
32967ION     NA48776   2.322  12.843   1.701  0.2106 -0.0611  0.0262
32968ION     NA48777   0.548   8.513   9.629  0.0634 -0.1510  0.3405
32969ION     NA48778  14.229  12.417  12.055 -0.3094 -0.0156  0.1128
32970ION     NA48779  16.605   7.464  11.563 -0.0786 -0.1672 -0.2757
32971ION     NA48780   4.288   5.688   2.074  0.4038 -0.1482  0.0035
32972ION     NA48781  15.463  17.812  13.439 -0.1017  0.2258  0.0217
32973ION     NA48782   5.137   6.005   0.408 -0.0131  0.0746  0.1156
32974ION     NA48783   7.469  16.794   4.804 -0.0358  0.2514  0.1696
32975ION     NA48784  10.712   3.742  10.507  0.1040 -0.1665  0.2005
32976ION     NA48785   2.420   2.429  12.702  0.0342  0.1790  0.0149
32977ION     NA48786  15.639  10.167   5.534  0.2840 -0.0229  0.0016
32978ION     NA48787  17.880   1.635   1.994 -0.0694  0.0267  0.1602
32979ION     NA48788   1.898   9.410   2.128  0.0942 -0.1330  0.0642
32980ION     NA48789   7.884  15.111   5.757  0.0455  0.1030 -0.0399
32981ION     NA48790   2.494   1.055   5.635 -0.1191 -0.0315 -0.1359
32982ION     NA48791   8.688   6.811   4.131 -0.0597 -0.0743  0.3804
32983ION     NA48792   4.526   9.234  13.857  0.0042 -0.2188  0.0919
32984ION     NA48793   6.661   5.185   9.985  0.1091  0.2393 -0.0558
32985ION     NA48794   6.384  17.604   3.947 -0.1594 -0.0939 -0.1564
32986ION     NA48795   9.832   7.573  10.073  0.1730 -0.0087  0.4837
32987ION     NA48796   0.646  15.950  15.067  0.0963 -0.2115 -0.2866
32988ION     NA48797  18.069   0.953  11.383 -0.2283  0.2976  0.1881
32989ION     NA48798  15.124  10.475   3.548  0.0658  0.0895  0.0992
32990ION     NA48799  17.950  12.012  10.003 -0.1412 -0.1724  0.4060
32991ION     NA48800   0.230   2.077   4.387 -0.0285  0.2136 -0.0806
32992ION     NA48801   9.673   1.262   6.088  0.0030 -0.1846 -0.4354
32993ION     NA48802   3.087   1.899   1.978 -0.0314 -0.0454 -0.1997
32994ION     NA48803  13.983   7.064  10.242  0.0560  0.1282 -0.3481
32995ION     NA48804   2.799  12.599   5.029  0.0599 -0.0474 -0.1015
32996ION     NA48805  10.649  15.264   5.634 -0.1795  0.1702  0.1489
32997ION     NA48806  12.803  10.358   1.297  0.1836  0.1536 -0.0462
32998ION     NA48807   2.535  14.024  15.107  0.4771 -0.0092 -0.1193
32999ION     NA48808   5.327   1.601   3.739 -0.1318  0.1138 -0.0662
33000ION     NA48809   6.876   0.485   5.924  0.1477 -0.2711 -0.0525
33001ION     NA48810  13.971  16.791  13.698  0.0075  0.1989 -0.4773
33002ION     NA48811  14.535   4.867  13.830  0.1358  0.3622  0.1280
33003ION     NA48812   3.518   6.243  12.416  0.1860 -0.0690  0.1825
33004ION     NA48813   0.836  10.075   2.056 -0.0386  0.3021 -0.0457
33005ION     NA48814   9.899  13.238   4.045  0.2824 -0.1351 -0.3695
33006ION     NA48815   2.437  15.844   9.756  0.2344  0.3652 -0.1676
33007ION     NA48816  16.493  11.282   4.994  0.1692  0.0618  0.2623
33008ION     NA48817   0.709  16.758  10.073  0.2592  0.0455 -0.0363
33009ION     NA48818  13.658   9.338   4.646 -0.1337  0.0525  0.0096
33010ION     NA48819  16.444   5.110  14.276 -0.3955 -0.1582  0.1785
33011ION     NA48820  12.180   6.303   4.539  0.0155 -0.0332 -0.0415
33012ION     NA48821  13.032   2.375  10.324 -0.2790 -0.0921  0.0642
33013ION     NA48822   3.377  14.105   5.257  0.2097  0.0702 -0.1676
33014ION     NA48823   0.464  15.247   9.962 -0.3296 -0.2729 -0.2591
33015ION     NA48824   6.372   0.593  10.447 -0.1142 -0.1424  0.0427
33016ION     NA48825   3.294  10.556  15.506 -0.0584 -0.3080  0.0304
33017ION     NA48826  16.716  15.290   3.238  0.0706 -0.0857 -0.1057
33018ION     NA48827   8.960   9.164  14.619  0.0869 -0.0957  0.0627
33019ION     NA48828   5.213   1.214  10.286 -0.0855  0.0322 -0.0272
33020ION     NA48829   5.125   4.838   5.496  0.1620  0.0003 -0.0952
33021ION     NA48830   3.392  16.559  12.134  0.0087  0.4006  0.0751
33022ION     NA48831   3.952  11.064   5.132  0.2858  0.0443  0.1771
33023ION     NA48832   5.760   7.820  15.110  0.0755 -0.2586  0.0645
33024ION     NA48833   3.355   2.389  14.903  0.0015 -0.1458  0.0582
33025ION     NA48834   2.770   8.876   5.197  0.1027 -0.0395  0.1290
33026ION     NA48835   2.784   2.074   3.249 -0.0884 -0.0561  0.1195
33027ION     NA48836  15.911  13.208   9.646 -0.0646  0.4017  0.1031
33028ION     NA48837   3.575  14.491  10.107  0.0215  0.1001  0.0007
33029ION     NA48838   5.844   6.727   1.601  0.0797  0.0739 -0.0338
33030ION     NA48839  18.061  17.253  12.448  0.0521  0.1193  0.3900
33031ION     NA48840   0.594   7.291  15.427  0.3617 -0.1076 -0.1310
33032ION     NA48841   4.083   8.214  10.532  0.3327 -0.4566  0.2630
33033ION     NA48842  12.702  18.085  14.279 -0.1982  0.0056  0.1754
33034ION     NA48843   8.347  17.140  11.700 -0.5222  0.0927 -0.1660
33035ION     NA48844  15.187  17.364   5.897 -0.1105 -0.2161 -0.0492
33036ION     NA48845  16.949   1.932   9.890  0.2964  0.3319  0.0112
33037ION     NA48846  14.823   3.187   2.602 -0.1981 -0.0915  0.1213
33038ION     NA48847  15.532  15.188  10.936 -0.0325 -0.3345  0.1897
33039ION     NA48848  14.577  11.097   9.804  0.0870  0.1133 -0.2307
33040ION     NA48849  16.110   4.018   5.377  0.0608 -0.1284 -0.1706
33041ION     NA48850   6.521   3.018  14.885 -0.0481 -0.2484  0.1399
33042ION     NA48851  10.786   9.636   6.092 -0.0384 -0.0408 -0.0366
33043ION     NA48852   9.596   5.980   2.089 -0.0100 -0.1465  0.1069
33044ION     NA48853  17.231  17.355   1.100 -0.3128 -0.1391  0.0768
33045ION     NA48854   3.523  16.403   5.879  0.3997 -0.0676 -0.1755
33046ION     NA48855  13.312  15.548  10.454  0.0938  0.1431  0.2145
33047ION     NA48856   2.474  15.244   1.615  0.0662 -0.0313 -0.1709
33048ION     NA48857   8.426  11.788  14.690 -0.2565 -0.0473  0.0426
33049ION     NA48858   2.435   4.622   9.620  0.0118 -0.0967  0.1408
33050ION     NA48859  14.539   5.857  13.552  0.0885  0.1602 -0.1294
33051ION     NA48860   4.500   1.524  15.051 -0.1992 -0.2186  0.1650
33052ION     NA48861   2.980  11.917   4.121 -0.4332  0.1483 -0.0341
33053ION     NA48862  12.141   2.562  14.240 -0.1138  0.2083 -0.1075
33054ION     NA48863   0.237  14.623   3.712  0.2648  0.0640 -0.1718
33055ION     NA48864   5.538   3.345  10.046 -0.4531  0.2888 -0.0682
33056ION     NA48865   8.150  13.752   2.158 -0.2876  0.0479  0.0257
33057ION     NA48866  10.732   5.404  11.470  0.2380 -0.1362  0.1214
33058ION     NA48867  14.141   5.215  14.987 -0.0865  0.3197 -0.3047
33059ION     NA48868   3.496   0.380   0.470 -0.0065  0.0921 -0.2009
33060ION     NA48869   2.852   5.012   2.938 -0.0033 -0.3221 -0.0182
33061ION     NA48870   9.007   3.464  14.864 -0.2156 -0.2343  0.1314
33062ION     NA48871  10.267   0.548  11.064  0.1642 -0.1373  0.0789
33063ION     NA48872  17.407   1.170  15.295 -0.1390  0.0326  0.2282
33064ION     NA48873   6.741   5.429  14.101 -0.0417  0.4760 -0.1746
33065ION     NA48874  11.625   7.432   5.366 -0.4215  0.0722  0.0693
33066ION     NA48875  17.115   2.975   9.889 -0.0494 -0.0655  0.1279
33067ION     NA48876   7.176   6.122  15.136  0.0358  0.2362  0.1945
33068ION     NA48877   9.328  12.202   3.348  0.1069  0.4230 -0.0489
33069ION     NA48878   8.868  13.543  14.675 -0.1940 -0.0999  0.0409
33070ION     NA48879   0.051  14.173   0.274  0.5502  0.6359  0.1764
33071ION     NA48880  16.842   1.635  13.988  0.1064  0.3285  0.0735
33072ION     NA48881   2.391  13.353   9.520  0.1250 -0.1405  0.1780
33073ION     NA48882  18.212  14.552   0.919  0.0175 -0.1917 -0.0611
33074ION     NA48883   7.600   7.532  13.169 -0.2657 -0.1203 -0.1449
33075ION     NA48884  15.778   7.191   9.527  0.1825  0.0434 -0.0391
33076ION     NA48885   5.695   5.052   1.802 -0.1635  0.0058  0.2785
33077ION     NA48886  15.283  12.838   5.435 -0.0593 -0.1993 -0.0274
33078ION     NA48887   8.029  17.935   4.178 -0.0622  0.2515  0.1973
33079ION     NA48888  18.340  10.193   4.587 -0.1470 -0.1169 -0.0232
33080ION     NA48889   6.555  14.882   5.944 -0.0433  0.1387 -0.1279
33081ION     NA48890   7.571   1.615   6.343 -0.1674 -0.1092  0.2992
33082ION     NA48891   3.080  15.418  15.597  0.1789 -0.1713 -0.2342
33083ION     NA48892   3.084  11.368   4.696  0.1293 -0.1880  0.0299
33084ION     NA48893  16.979   5.887   2.643 -0.0365  0.1139 -0.0758
33085ION     NA48894  13.664  17.060   2.242 -0.2129  0.0397  0.2582
33086ION     NA48895  13.142   9.770   6.134 -0.0969 -0.0952  0.0095
33087ION     NA48896   0.607   0.395   1.982 -0.0777  0.0496  0.0708
33088ION     NA48897   4.885  16.403   2.172 -0.1079  0.2465  0.0342
33089ION     NA48898  14.093   0.704   4.551  0.1784  0.1321  0.1190
33090ION     NA48899   4.856  17.553   5.420  0.0945 -0.4719 -0.0958
33091ION     NA48900  18.026   1.890   0.160  0.0740 -0.0924  0.0537
33092ION     NA48901   4.142  13.726   5.629 -0.1867 -0.2564  0.4981
33093ION     NA48902  16.421   6.776  12.689  0.0772 -0.2759 -0.0579
33094ION     NA48903   7.634  12.536   5.305 -0.1416 -0.4607  0.0105
33095ION     NA48904   2.514  10.417  14.201 -0.0407 -0.1295 -0.0858
33096ION     NA48905  10.633  15.309  10.760 -0.0247  0.0607  0.2468
33097ION     NA48906  15.435   6.756  14.984 -0.0998 -0.3397  0.0858
33098ION     NA48907  11.955  12.834   3.077  0.2957  0.1674 -0.0658
33099ION     NA48908   0.615  12.488   9.966 -0.0509 -0.0033 -0.2411
33100ION     NA48909   6.503   9.343   5.907  0.3610 -0.0659 -0.0514
33101ION     NA48910  18.081  17.305   1.232  0.3023 -0.3005 -0.1040
33102ION     NA48911  15.519   5.217  10.010  0.1340 -0.0402  0.2510
33103ION     NA48912  11.271   5.552   2.329 -0.0531 -0.2196  0.0996
33104ION     NA48913  13.544   1.146  10.182  0.1391  0.0603  0.1305
33105ION     NA48914  13.668   0.704  14.180 -0.1409 -0.1021 -0.0578
33106ION     NA48915  13.783   1.358   2.407 -0.1084 -0.0915  0.0350
33107ION     NA48916  15.533  13.536   5.438 -0.0880 -0.2113 -0.0006
33108ION     NA48917  17.236  17.948   3.868  0.0765  0.1194 -0.1482
33109ION     NA48918  16.449   7.661   4.915 -0.1517 -0.2177 -0.0930
33110ION     NA48919  16.627  16.885   0.389 -0.0604 -0.2495  0.0593
33111ION     NA48920  12.695   0.983  10.181  0.0323  0.2619  0.0687
33112ION     NA48921   1.595  15.790  14.685  0.0670 -0.0400 -0.1599
33113ION     NA48922   8.375   7.610   9.954 -0.3707 -0.0595  0.0811
33114ION     NA48923   4.148  13.697   9.890 -0.1323 -0.2548  0.0906
33115ION     NA48924   4.494   7.652   5.849  0.1648 -0.1346  0.1219
33116ION     NA48925   4.112  15.211   5.646 -0.0783 -0.1580  0.1361
33117ION     NA48926  15.147   2.251   3.824  0.3687  0.3653 -0.1582
33118ION     NA48927  13.547   0.301  10.324 -0.1422 -0.0192  0.3425
33119ION     NA48928   3.098  13.300   3.238 -0.0250 -0.3770 -0.0927
33120ION     NA48929   9.127   8.053   3.863  0.1128 -0.2776  0.0504
33121ION     NA48930   7.569   7.902   1.362  0.1934 -0.2364 -0.2111
33122ION     NA48931   1.379   6.012   5.135 -0.0851 -0.0007 -0.0162
33123ION     NA48932  14.384  17.781  13.667 -0.1312  0.2167 -0.0067
33124ION     NA48933   4.960   7.389   3.748 -0.1695  0.0497 -0.4495
33125ION     NA48934  14.961   2.885   6.038 -0.2104 -0.1138  0.0816
33126ION     NA48935  16.786   2.129   4.256 -0.2040 -0.1726  0.0656
33127ION     NA48936   8.339  10.544   5.210 -0.0187  0.0323 -0.0234
33128ION     NA48937   1.025   3.618  10.969  0.0399 -0.2278  0.1303
33129ION     NA48938   5.838  11.393  10.094  0.0428 -0.0209  0.2025
33130ION     NA48939  13.692   2.429  13.660 -0.1634 -0.2244 -0.3463
33131ION     NA48940   7.003  12.845  10.119  0.0966 -0.2167  0.0365
33132ION     NA48941   6.077   5.966   0.938 -0.0475 -0.1215  0.0752
33133ION     NA48942   6.225  10.216  10.215  0.1475 -0.0780  0.1083
33134ION     NA48943   4.019  14.839  12.329  0.2004  0.4101 -0.3159
33135ION     NA48944   7.323  10.150   2.251  0.3541  0.2711  0.0269
33136ION     NA48945  12.895  17.489   3.035 -0.2191  0.1438 -0.1497
33137ION     NA48946  15.434   6.466  13.912  0.0101 -0.2957  0.3018
33138ION     NA48947   3.784  12.993  10.141 -0.1724 -0.1114  0.2941
33139ION     NA48948   7.723   3.304  14.427  0.2065 -0.0157 -0.0823
33140ION     NA48949   2.733  16.425  13.101  0.3978  0.1759 -0.2378
33141ION     NA48950   8.318   8.526  10.092  0.0266 -0.2672 -0.0364
33142ION     NA48951   5.527  16.045   0.462 -0.1551  0.1605  0.2657
33143ION     NA48952   9.431   6.842   4.891 -0.0611 -0.0037  0.1573
33144ION     NA48953  14.397  16.306  14.973  0.2251 -0.4160 -0.2162
33145ION     NA48954  17.442  13.161   9.567  0.0031 -0.1725  0.1264
33146ION     NA48955   8.172  11.171   0.593 -0.3608  0.0002 -0.0590
33147ION     NA48956  18.131   0.863  13.149  0.1528 -0.0218 -0.3309
33148ION     NA48957   1.396  13.024   3.425 -0.0583 -0.3895 -0.1437
33149ION     NA48958   5.272   0.712   0.744 -0.1889  0.1777  0.0809
33150ION     NA48959  14.828  15.317  10.046 -0.0809 -0.1415 -0.0040
33151ION     NA48960   1.008   8.079   5.701 -0.0350 -0.0128  0.3055
33152ION     NA48961   9.257   8.805  10.106 -0.3539 -0.1006 -0.0508
33153ION     NA48962  16.206   7.244  15.220  0.0810  0.0221  0.0908
33154ION     NA48963   0.811  14.658  13.626  0.3135  0.1027 -0.2809
33155ION     NA48964   7.570  10.475   4.224 -0.0658  0.1395 -0.1094
33156ION     NA48965  18.201   2.057   3.598  0.0949 -0.0589 -0.3332
33157ION     NA48966  17.288   5.061   3.331  0.1222  0.1084 -0.0368
33158ION     NA48967   3.139  15.055  12.059  0.1580 -0.1358 -0.0173
33159ION     NA48968  18.540   3.781   9.458  0.2268 -0.3782  0.1117
33160ION     NA48969   5.200  10.249  10.045 -0.1765  0.3335 -0.0514
33161ION     NA48970  15.841   4.945   5.172 -0.1936  0.1731 -0.0478
33162ION     NA48971   7.308  17.920  10.603 -0.1521  0.2017 -0.0142
33163ION     NA48972   1.933  18.433   9.817  0.2062  0.0956 -0.3445
33164ION     NA48973   8.455   6.146   6.018  0.1345  0.2951  0.1513
33165ION     NA48974  16.841   7.562  14.398  0.0414  0.0344  0.0699
33166ION     NA48975   9.260  10.085   1.690  0.1110  0.1252  0.0738
33167ION     NA48976  15.236  13.845   9.825 -0.1264  0.3136 -0.0922
33168ION     NA48977   5.282   4.032   5.255 -0.1106  0.2305  0.4197
33169ION     NA48978   5.170   6.201  13.982  0.2292 -0.0116  0.1353
33170ION     NA48979   9.998  17.825   6.145 -0.1599 -0.0438 -0.2266
33171ION     NA48980   0.649   9.508  13.142 -0.0447 -0.2572  0.1587
33172ION     NA48981   1.887   8.602  11.464  0.1328 -0.1177 -0.2489
33173ION     NA48982   3.023  16.983   9.864  0.1787 -0.2631 -0.0236
33174ION     NA48983   4.506   4.965   9.807 -0.0215 -0.1193 -0.1067
33175ION     NA48984  12.409   6.331   5.950  0.0835 -0.2241  0.3664
33176ION     NA48985   3.327   6.226   9.535  0.1859  0.3990 -0.0948
33177ION     NA48986   1.042   7.293   5.250  0.2939  0.3805  0.0443
33178ION     NA48987  16.291  11.462   5.545  0.2857  0.0762  0.0906
33179ION     NA48988  17.508   7.565  12.187  0.0544 -0.3275  0.1199
33180ION     NA48989  17.730   9.140   4.619  0.0906 -0.0319  0.2677
33181ION     NA48990  11.087  12.385  15.591  0.2026 -0.0591  0.0946
33182ION     NA48991  18.225  14.854   9.869 -0.5208  0.0779  0.0670
33183ION     NA48992   9.049   2.507   0.464 -0.0034 -0.0662 -0.1580
33184ION     NA48993   8.395   5.709   0.803  0.2949  0.3563 -0.1301
33185ION     NA48994   6.623   0.902   5.239 -0.0218 -0.3223 -0.2465
33186ION     NA48995   1.704   0.646   9.877 -0.1034 -0.0441  0.3951
33187ION     NA48996  10.193  17.484  11.722 -0.0612  0.1257  0.1907
33188ION     NA48997   1.675   3.885  13.805 -0.0438 -0.0320 -0.0503
33189ION     NA48998  12.889  12.768   1.280 -0.3548  0.0034 -0.3266
33190ION     NA48999   7.531  15.992   0.344  0.0221  0.0774 -0.0572
33191ION     NA49000  11.906   3.982  15.359 -0.2637 -0.0338 -0.0088
33192ION     NA49001  13.983   0.320  11.895 -0.0479 -0.1115 -0.0074
33193ION     NA49002   4.973  15.686   5.367  0.2533  0.1461 -0.1915
33194ION     NA49003   1.754   9.763   0.596 -0.0062 -0.0896 -0.0489
33195ION     NA49004   0.375   6.290   9.367 -0.1151  0.1011 -0.0675
33196ION     NA49005  18.581  12.706   4.335  0.0146 -0.1468 -0.0003
33197ION     NA49006   0.840   1.258   9.777 -0.1342 -0.0319 -0.4143
33198ION     NA49007  16.831   5.869   5.178 -0.1825  0.1613  0.0009
33199ION     NA49008  12.805  15.530  14.633 -0.1803  0.2338  0.0279
33200ION     NA49009  13.146   9.112   0.791  0.2621 -0.0612  0.1467
33201ION     NA49010   8.997  16.675  13.338 -0.0130 -0.0944  0.0169
33202ION     NA49011   8.379   7.960   5.655 -0.3985 -0.2226  0.1817
33203ION     NA49012  11.515   1.688   6.229  0.0040  0.1158  0.0574
33204ION     NA49013  13.046  13.041   5.890  0.2794  0.3340  0.2330
33205ION     NA49014   6.388  17.536   5.645 -0.0778  0.2527  0.1738
33206ION     NA49015   0.775   6.168  12.311  0.1200 -0.4476  0.1601
33207ION     NA49016   3.596   7.660   4.917 -0.0894 -0.3485 -0.0384
33208ION     NA49017  14.054   7.795   5.416  0.2273 -0.0800 -0.1057
33209ION     NA49018   9.967  17.090   0.671  0.1184  0.2066 -0.1330
33210ION     NA49019   0.390  12.813  15.243 -0.1368 -0.1797 -0.2391
33211ION     NA49020  17.307  18.161   9.874 -0.2222  0.0462  0.3479
33212ION     NA49021   1.435  15.281   1.177 -0.0957  0.0516  0.0869
33213ION     NA49022   2.779  16.047  11.083  0.2607  0.2521 -0.2312
33214ION     NA49023  12.005   1.092   2.914 -0.0189  0.0357 -0.0768
33215ION     NA49024   7.593   4.149  10.573 -0.0506 -0.3412 -0.2054
33216ION     NA49025  18.610   1.831   5.259  0.1985  0.0002 -0.0101
33217ION     NA49026  11.157  13.385   3.373  0.0435 -0.0072  0.1791
33218ION     NA49027   9.894  10.408  10.155 -0.0300  0.1313 -0.3325
33219ION     NA49028  10.193  16.528  10.443  0.1384 -0.1051  0.3642
33220ION     NA49029  18.652  18.256   5.348  0.0122 -0.1131 -0.0255
33221ION     NA49030   3.555  17.703   9.741 -0.1920  0.1057 -0.0012
33222ION     NA49031  18.596   2.190   9.723 -0.4533 -0.1721 -0.0656
33223ION     NA49032  17.221  13.051   0.735 -0.0763  0.2964 -0.1384
33224ION     NA49033  12.042  12.407   6.036  0.0963  0.0818 -0.0367
33225ION     NA49034   6.479  18.521   1.390  0.3145  0.1288 -0.0550
33226ION     NA49035   6.734   3.750  12.848  0.0932 -0.3167  0.1610
33227ION     NA49036  10.141   7.466   5.064  0.0741  0.2118  0.0510
33228ION     NA49037  17.934   8.379   3.405 -0.2323  0.0972  0.2184
33229ION     NA49038   8.282   2.400   4.015  0.0801  0.2455 -0.0036
33230ION     NA49039   0.838  11.567   9.542  0.4649 -0.3443 -0.2230
33231ION     NA49040  12.806   4.849  11.469  0.2777 -0.0279  0.1302
33232ION     NA49041   4.783  13.107   4.209  0.0970 -0.2251 -0.1614
33233ION     NA49042   7.025   3.674   3.817 -0.3209  0.0970 -0.2714
33234ION     NA49043  10.323  14.137  10.366  0.2229  0.0816  0.1436
33235ION     NA49044   1.449  10.794   4.972 -0.1200 -0.1347 -0.1858
33236ION     NA49045  14.246   9.450   5.865  0.5294  0.1596 -0.0228
33237ION     NA49046   6.530   6.309   9.995  0.0199  0.1699  0.0475
33238ION     NA49047   3.101   2.739  13.395 -0.0396 -0.2033  0.1816
33239ION     NA49048  14.831   3.935  10.233 -0.2970  0.2360 -0.4064
33240ION     NA49049  12.868  13.443   2.844  0.1294  0.0258 -0.2813
33241ION     NA49050   9.039   0.083   6.337  0.1243  0.0035 -0.0846
33242ION     NA49051   0.134   0.954   5.180 -0.1082 -0.0656  0.2055
33243ION     NA49052   5.948   1.465   1.515  0.1067 -0.0481  0.0121
33244ION     NA49053   3.776  18.041   4.521  0.1980 -0.1072 -0.1442
33245ION     NA49054   3.608  15.783   4.656  0.0969 -0.0771 -0.1088
33246ION     NA49055   4.553  10.745   3.646 -0.3249  0.1265  0.3460
33247ION     NA49056   2.388  18.594  13.890 -0.1674 -0.2716  0.2547
33248ION     NA49057  16.393  16.244   9.990  0.0220  0.1201 -0.0993
33249ION     NA49058   4.714  17.628   9.994  0.0804  0.0340  0.1986
33250ION     NA49059   9.654   9.565  10.259  0.2290  0.1726  0.0686
33251ION     NA49060  15.215   8.895  12.397  0.2156 -0.0406 -0.0472
33252ION     NA49061   6.564  15.475   2.421 -0.0772 -0.2187  0.0058
33253ION     NA49062   8.364  12.323   1.857  0.0321 -0.1153 -0.2999
33254ION     NA49063  15.047   5.401   3.960  0.5030  0.3142 -0.1699
33255ION     NA49064  11.183  16.260  14.600  0.1458 -0.3033 -0.3035
33256ION     NA49065   5.138  10.170   0.158 -0.1884  0.0149  0.0038
33257ION     NA49066  16.170  15.263   1.886 -0.0780 -0.2109  0.1748
33258ION     NA49067   4.749   6.888   5.018  0.0755 -0.2231  0.1634
33259ION     NA49068  18.319  12.995  14.305  0.0449  0.1953  0.1753
33260ION     NA49069   4.151   4.640  12.883 -0.1534 -0.0892 -0.0765
33261ION     NA49070  12.576   6.408  10.137 -0.0013  0.1944 -0.2650
33262ION     NA49071  12.133  11.295  10.352  0.1444  0.1812 -0.1228
33263ION     NA49072   9.865  13.900   2.962 -0.2257 -0.1795  0.0797
33264ION     NA49073   6.219  16.369   1.556 -0.4132 -0.0835 -0.1218
33265ION     NA49074   9.757   5.719   3.464  0.3113 -0.1339  0.0710
33266ION     NA49075  17.639  11.689   5.462 -0.1656 -0.0583  0.0312
33267ION     NA49076  17.622  10.117   0.337  0.1859 -0.1439 -0.2040
33268ION     NA49077   6.053  14.643   5.733 -0.2357 -0.2232 -0.2624
33269ION     NA49078  13.050  14.002   6.256 -0.0387  0.1312  0.0183
33270ION     NA49079   8.200   9.530  10.076 -0.1900  0.4457 -0.0505
33271ION     NA49080   1.395   8.234  14.591 -0.2357 -0.2027 -0.1926
33272ION     NA49081  17.992   0.178   2.894  0.0172  0.0637  0.2425
33273ION     NA49082  12.354  16.780   1.293 -0.2223  0.1297 -0.1395
33274ION     NA49083  15.041  12.795   9.798 -0.0886 -0.2653 -0.2992
33275ION     NA49084   2.008   9.630   9.856  0.0232  0.3150 -0.2508
33276ION     NA49085  12.937   7.597   0.268 -0.0199 -0.0675  0.3453
33277ION     NA49086  17.615   7.435   3.631  0.0767 -0.2017 -0.1407
33278ION     NA49087   8.570  12.653   0.024 -0.0344  0.1988 -0.2737
33279ION     NA49088  14.801  17.430   5.614 -0.0311 -0.3897 -0.0523
33280ION     NA49089  17.890   1.732  10.075  0.0169 -0.1228 -0.1768
33281ION     NA49090  11.943  12.622   4.587  0.0698 -0.1592  0.0435
33282ION     NA49091   3.143  12.681  14.518 -0.0576  0.0611 -0.1710
33283ION     NA49092   9.319  15.002   1.174  0.0732  0.0943  0.0582
33284ION     NA49093   6.939  18.274  10.488 -0.1142  0.1992 -0.1669
33285ION     NA49094   0.708  12.792   9.553 -0.0414 -0.1908  0.0018
33286ION     NA49095   9.256   3.567   0.271 -0.0239 -0.1700  0.0521
33287ION     NA49096  13.276   2.269   0.605 -0.0153  0.1793  0.1418
33288ION     NA49097   0.219  16.780   5.855 -0.3296 -0.0615 -0.0187
33289ION     NA49098   9.220  11.399  10.435 -0.0414 -0.0113  0.0029
33290ION     NA49099   9.768  13.339  10.421  0.0725  0.2158 -0.1010
33291ION     NA49100   5.541   7.284   9.791  0.1157 -0.0809  0.0229
33292ION     NA49101   7.723  11.563   2.423  0.3189  0.1105 -0.0631
33293ION     NA49102   0.205  18.641   9.943  0.0822  0.1620 -0.0018
33294ION     NA49103  10.010  12.752   5.489  0.1147  0.1758  0.0699
33295ION     NA49104   8.436  13.198   1.475  0.0001  0.3101 -0.1647
33296ION     NA49105  12.562  18.086   0.175  0.1648 -0.1027 -0.1117
33297ION     NA49106  18.318  16.793   9.984 -0.0393 -0.0716 -0.0730
33298ION     NA49107  17.299  14.995   5.466  0.2031 -0.3793 -0.0924
33299ION     NA49108   4.055   7.480   9.897  0.0248 -0.1401  0.0774
33300ION     NA49109  12.401  14.413   3.883  0.1892 -0.3411  0.0600
33301ION     NA49110   7.372   3.209  10.280  0.0246  0.2731  0.0505
33302ION     NA49111   6.650   9.055  11.369 -0.2732 -0.2735 -0.0242
33303ION     NA49112  16.219   1.701  10.182 -0.3480  0.2517  0.0465
33304ION     NA49113   4.104   6.336   5.359 -0.1448 -0.3615  0.2278
33305ION     NA49114   3.522  10.229   5.221  0.2059  0.1442 -0.4406
33306ION     NA49115   5.362  16.303  15.111 -0.0939  0.0380  0.1235
33307ION     NA49116  13.068  12.418  10.458  0.1762 -0.1007 -0.0650
33308ION     NA49117   4.998  10.054   5.425  0.1242 -0.0945 -0.1062
33309ION     NA49118  17.594   6.192   5.381 -0.1642  0.2383  0.0698
33310ION     NA49119  17.466  13.235  12.477 -0.4662 -0.3643  0.0089
33311ION     NA49120  15.132   9.166  11.252  0.0767 -0.0611  0.0037
33312ION     NA49121   2.725   8.757   2.127  0.0327 -0.0551 -0.2973
33313ION     NA49122   2.427   0.724   0.615 -0.2567 -0.3480 -0.0156
33314ION     NA49123   7.147  14.964   4.736 -0.0175  0.1970  0.1651
33315ION     NA49124  17.145   1.118  10.301 -0.0038 -0.0491 -0.0517
33316ION     NA49125   3.875  16.546   9.911 -0.3047 -0.0479  0.0315
33317ION     NA49126  15.599   3.522   5.961  0.3012 -0.1703  0.2444
33318ION     NA49127   1.855  14.869   9.804 -0.3539 -0.0076  0.1994
33319ION     NA49128  13.394   2.322   5.876  0.1635 -0.0071 -0.1731
33320ION     NA49129   6.957   8.873   2.774  0.0418 -0.1982  0.0616
33321ION     NA49130   6.681  10.849  15.280 -0.0110 -0.1736  0.3029
33322ION     NA49131   4.392  15.107   0.225  0.0209 -0.3408  0.0668
33323ION     NA49132   2.882   1.633  15.349 -0.1509  0.0567 -0.4362
33324ION     NA49133  11.708  12.714  10.465  0.0693 -0.1195  0.3019
33325ION     NA49134  11.270  17.063  10.756  0.0222  0.0620  0.2663
33326ION     NA49135   9.353   4.273   3.773  0.0086 -0.2862  0.1563
33327ION     NA49136   4.650   1.989   5.593 -0.1236 -0.1415 -0.0108
33328ION     NA49137  13.799  18.328  14.022  0.0016 -0.0963 -0.1493
33329ION     NA49138  14.851  14.332   3.998 -0.1893 -0.1827  0.1774
33330ION     NA49139   5.605   9.731   1.163  0.0059  0.1248 -0.2458
33331ION     NA49140  15.975   7.674   9.688 -0.2497  0.1732 -0.0382
33332ION     NA49141   6.185  18.291   4.649  0.1002  0.0439 -0.1657
33333ION     NA49142   5.728   5.831  13.280  0.1037 -0.3631 -0.1290
33334ION     NA49143  13.053  16.793  10.837 -0.1270  0.1515 -0.0181
33335ION     NA49144   7.538  16.727   5.789 -0.1621  0.0691 -0.1895
33336ION     NA49145  14.614  12.652   0.523 -0.0806  0.2016 -0.0003
33337ION     NA49146   1.428   3.765   4.863  0.0031 -0.1666 -0.2911
33338ION     NA49147   1.886  14.226  14.474 -0.2360  0.0985 -0.1870
33339ION     NA49148   6.732  11.098   3.532 -0.3382 -0.0841  0.1026
33340ION     NA49149   4.675  11.081   5.137  0.1270  0.1008  0.0244
33341ION     NA49150  16.629   4.547   4.870  0.1375  0.0437  0.0801
33342ION     NA49151   6.441  10.537   2.737  0.0419 -0.0033 -0.0698
33343ION     NA49152  16.419  11.479   9.615  0.1945 -0.1462 -0.1885
33344ION     NA49153   9.997   7.617   2.080 -0.0010  0.1819 -0.0938
33345ION     NA49154  10.095  10.190   1.856  0.1916 -0.2011  0.2875
33346ION     NA49155   8.041  10.411  10.352 -0.4431 -0.1115  0.3067
33347ION     NA49156   2.867  13.593   4.752 -0.0088 -0.1585 -0.0601
33348ION     NA49157  14.332  16.409  10.397  0.1064  0.1448 -0.0095
33349ION     NA49158   8.399   5.773   9.813  0.1033  0.0369  0.1065
33350ION     NA49159  15.731   8.520   9.697  0.0114  0.1989  0.2195
33351ION     NA49160  13.353   5.629  14.414  0.0426  0.1024  0.1486
33352ION     NA49161   8.385  15.462  10.088  0.2401  0.2254  0.1487
33353ION     NA49162  18.267  18.089   3.665  0.0703  0.2802 -0.4400
33354ION     NA49163  11.741   0.272  12.360  0.0995  0.0841  0.0166
33355ION     NA49164   0.657   0.278   5.399 -0.3035  0.4315  0.0928
33356ION     NA49165   3.438   4.634   3.019 -0.1649 -0.0839 -0.1745
33357ION     NA49166  10.959  12.837  12.764  0.1420  0.1426  0.0355
33358ION     NA49167  15.955  14.260   9.527  0.0063  0.0751 -0.1146
33359ION     NA49168   2.267  10.620   3.819 -0.0270  0.0260 -0.2314
33360ION     NA49169   9.435  16.992  10.259  0.0481  0.0554 -0.2818
33361ION     NA49170  16.735  11.170   5.478  0.0671  0.1606  0.0400
33362ION     NA49171  11.658   6.847   2.748 -0.1039  0.1708 -0.0983
33363ION     NA49172   4.493  17.825  14.195 -0.0021 -0.0624 -0.1779
33364ION     NA49173   0.444  10.872   4.208 -0.0351  0.0921  0.1857
33365ION     NA49174  16.176  10.217   1.746  0.4892 -0.1999 -0.3481
33366ION     NA49175  16.680   9.938   9.748  0.0989 -0.0628 -0.0733
33367ION     NA49176   7.589   2.114   4.713  0.1324  0.0854  0.0369
33368ION     NA49177   3.644   4.711   5.407 -0.1359  0.1536  0.3046
33369ION     NA49178  12.243  15.362   6.071 -0.1976  0.1290  0.0292
33370ION     NA49179   8.655  15.381   0.069  0.1204  0.1169 -0.2386
33371ION     NA49180   2.143   5.353   5.102  0.1921 -0.5533  0.3828
33372ION     NA49181  16.989   1.796   5.650 -0.1512  0.1680 -0.1369
33373ION     NA49182  15.738   5.075   9.569 -0.2558 -0.2786  0.2975
33374ION     NA49183   9.076   3.106  13.673  0.1015  0.0844  0.0934
33375ION     NA49184   3.325   2.137   0.235  0.1737  0.0342  0.1980
33376ION     NA49185   9.564   5.031   9.923  0.1189 -0.1188 -0.0229
33377ION     NA49186   6.555   8.415  10.167 -0.0749  0.1267 -0.2352
33378ION     NA49187  14.210  12.252   3.848  0.0583 -0.1437 -0.0439
33379ION     NA49188  15.660   0.432  10.134  0.0266  0.0308 -0.0382
33380ION     NA49189  18.030  16.011  11.678  0.0764 -0.0532  0.1684
33381ION     NA49190  16.968   6.957   9.248 -0.1110 -0.0893 -0.0276
33382ION     NA49191  10.884  13.720   0.548 -0.2420 -0.1169 -0.0372
33383ION     NA49192  16.356   7.840   2.804  0.0906  0.0762  0.0643
33384ION     NA49193   7.886   0.383   5.802 -0.1456  0.0417  0.1987
33385ION     NA49194   8.721  12.094  10.053 -0.2956 -0.0093  0.0550
33386ION     NA49195   6.224   9.695  15.357 -0.3174 -0.1431  0.0363
33387ION     NA49196   5.443  18.071  10.168 -0.1790  0.0498 -0.0660
33388ION     NA49197   7.697   4.870   4.606  0.0448 -0.0403 -0.2579
33389ION     NA49198   6.240   4.866   5.506  0.1400 -0.3736  0.0190
33390ION     NA49199   3.397  18.515  10.001 -0.0129 -0.1640 -0.1499
33391ION     NA49200   1.578   0.396   5.226  0.0404  0.1640 -0.1490
33392ION     NA49201  11.046   4.682  11.380  0.0944  0.0425 -0.1130
33393ION     NA49202   9.409  15.269  10.063 -0.2498  0.1266  0.2124
33394ION     NA49203   1.983   9.656  11.918  0.1772 -0.1655  0.1586
33395ION     NA49204   5.397   3.153  14.479  0.2246 -0.0171  0.4656
33396ION     NA49205  14.940   8.881   9.751  0.1153 -0.0884 -0.2816
33397ION     NA49206   0.694  12.242   2.989  0.0628 -0.0165  0.0451
33398ION     NA49207   8.999   5.100   2.457  0.2005 -0.4819 -0.1661
  18.67542  18.67542  15.62367
